<event>
 8    1  0.9956970E+004  0.1043930E+01  0.7957747E-01            NaN
         13   -1    0    0    0    0  0.00000000000E+00  0.00000000000E+00  0.74505805969E-08  0.10566000000E+00  0.10566000000E+00 0.  1.
     999900   -1    0    0    0    0 -0.00000000000E+00 -0.00000000000E+00 -0.74505805969E-08  0.93827000000E+00  0.93827000000E+00 0.  1.
     999902    2    1    2    0    0 -0.74615042043E-02 -0.56160415707E-02 -0.29647643883E-01  0.10128462944E+01  0.10123692109E+01 0.  0.
     999903    2    3    3    0    0  0.93203770624E-01 -0.54655588000E-01 -0.60263032707E-01  0.12522268230E+00  0.19362615865E-01 0.  0.
         14    1    1    2    0    0  0.74615042043E-02  0.56160415707E-02  0.29647643883E-01  0.31083705631E-01  0.00000000000E+00 0.  1.
     999901    1    3    3    0    0 -0.10066527483E+00  0.49039546430E-01  0.30615388823E-01  0.88762361207E+00  0.88000000000E+00 0. -1.
        -11    1    4    4    0    0  0.40742143662E-01 -0.15139741278E-01 -0.17559352180E-01  0.46879910475E-01  0.51100000000E-03 0. -1.
         11    1    4    4    0    0  0.52461626962E-01 -0.39515846723E-01 -0.42703680526E-01  0.78342771825E-01  0.51100000000E-03 0.  1.
</event>
<event>
 8    1  0.9956970E+004  0.1043930E+01  0.7957747E-01            NaN
         13   -1    0    0    0    0  0.00000000000E+00  0.00000000000E+00  0.74505805969E-08  0.10566000000E+00  0.10566000000E+00 0.  1.
     999900   -1    0    0    0    0 -0.00000000000E+00 -0.00000000000E+00 -0.74505805969E-08  0.93827000000E+00  0.93827000000E+00 0.  1.
     999902    2    1    2    0    0  0.29241954272E-02  0.51334652572E-02  0.22792333252E-01  0.10203844306E+01  0.10201127351E+01 0.  0.
     999903    2    3    3    0    0  0.38205308145E-01 -0.46300096324E-01 -0.11123018746E+00  0.12805478060E+00  0.20555479607E-01 0.  0.
         14    1    1    2    0    0 -0.29241954272E-02 -0.51334652572E-02 -0.22792333252E-01  0.23545569424E-01  0.00000000000E+00 0. -1.
     999901    1    3    3    0    0 -0.35281112717E-01  0.51433561581E-01  0.13402252071E+00  0.89232964998E+00  0.88000000000E+00 0. -1.
        -11    1    4    4    0    0  0.13582613090E-01 -0.30880589041E-01 -0.68817058830E-01  0.76642983142E-01  0.51100000000E-03 0. -1.
         11    1    4    4    0    0  0.24622695055E-01 -0.15419507283E-01 -0.42413128629E-01  0.51411797456E-01  0.51100000000E-03 0.  1.
</event>
<event>
 8    1  0.9956970E+004  0.1043930E+01  0.7957747E-01            NaN
         13   -1    0    0    0    0  0.00000000000E+00  0.00000000000E+00  0.74505805969E-08  0.10566000000E+00  0.10566000000E+00 0.  1.
     999900   -1    0    0    0    0 -0.00000000000E+00 -0.00000000000E+00 -0.74505805969E-08  0.93827000000E+00  0.93827000000E+00 0.  1.
     999902    2    1    2    0    0 -0.15395065172E-01 -0.17511052629E-01  0.11860773734E-02  0.10205836561E+01  0.10203165917E+01 0.  0.
     999903    2    3    3    0    0  0.33170841009E-01 -0.92440736942E-01  0.81840482280E-01  0.13239547900E+00  0.34425336322E-01 0.  0.
         14    1    1    2    0    0  0.15395065172E-01  0.17511052629E-01 -0.11860773734E-02  0.23346343940E-01  0.00000000000E+00 0. -1.
     999901    1    3    3    0    0 -0.48565906180E-01  0.74929684313E-01 -0.80654404907E-01  0.88818817706E+00  0.88000000000E+00 0.  1.
        -11    1    4    4    0    0 -0.35798643785E-04 -0.37688548579E-01  0.17285987783E-01  0.41466787555E-01  0.51100000000E-03 0. -1.
         11    1    4    4    0    0  0.33206639652E-01 -0.54752188363E-01  0.64554494497E-01  0.90928691447E-01  0.51100000000E-03 0.  1.
</event>
<event>
 8    1  0.9956970E+004  0.1043930E+01  0.7957747E-01            NaN
         13   -1    0    0    0    0  0.00000000000E+00  0.00000000000E+00  0.74505805969E-08  0.10566000000E+00  0.10566000000E+00 0. -1.
     999900   -1    0    0    0    0 -0.00000000000E+00 -0.00000000000E+00 -0.74505805969E-08  0.93827000000E+00  0.93827000000E+00 0. -1.
     999902    2    1    2    0    0 -0.66823097605E-02  0.21528788839E-01 -0.72654147599E-02  0.10202460758E+01  0.10199711403E+01 0.  0.
     999903    2    3    3    0    0 -0.31717639337E-01  0.10410886413E+00  0.72577109200E-01  0.13242792711E+00  0.20616858722E-01 0.  0.
         14    1    1    2    0    0  0.66823097605E-02 -0.21528788839E-01  0.72654147599E-02  0.23683924173E-01  0.00000000000E+00 0.  1.
     999901    1    3    3    0    0  0.25035329577E-01 -0.82580075288E-01 -0.79842523960E-01  0.88781814872E+00  0.88000000000E+00 0. -1.
        -11    1    4    4    0    0 -0.18637134524E-01  0.30206896266E-01  0.27243295867E-01  0.44746593792E-01  0.51100000000E-03 0. -1.
         11    1    4    4    0    0 -0.13080504813E-01  0.73901967861E-01  0.45333813333E-01  0.87681333317E-01  0.51100000000E-03 0.  1.
</event>
<event>
 8    1  0.9956970E+004  0.1043930E+01  0.7957747E-01            NaN
         13   -1    0    0    0    0  0.00000000000E+00  0.00000000000E+00  0.74505805969E-08  0.10566000000E+00  0.10566000000E+00 0. -1.
     999900   -1    0    0    0    0 -0.00000000000E+00 -0.00000000000E+00 -0.74505805969E-08  0.93827000000E+00  0.93827000000E+00 0. -1.
     999902    2    1    2    0    0  0.22991160386E-01  0.21712346404E-02  0.26772015105E-02  0.10206818791E+01  0.10204170830E+01 0.  0.
     999903    2    3    3    0    0  0.48265311292E-01  0.91841003879E-01  0.79585300785E-01  0.13242836467E+00  0.20955700937E-01 0.  0.
         14    1    1    2    0    0 -0.22991160386E-01 -0.21712346404E-02 -0.26772015105E-02  0.23248120864E-01  0.00000000000E+00 0. -1.
     999901    1    3    3    0    0 -0.25274150906E-01 -0.89669769238E-01 -0.76908099275E-01  0.88825351446E+00  0.88000000000E+00 0. -1.
        -11    1    4    4    0    0  0.20181464652E-01  0.22998941781E-01  0.31295711776E-01  0.43771286651E-01  0.51100000000E-03 0. -1.
         11    1    4    4    0    0  0.28083846640E-01  0.68842062098E-01  0.48289589009E-01  0.88657078024E-01  0.51100000000E-03 0.  1.
</event>
<event>
 8    1  0.9956970E+004  0.1043930E+01  0.7957747E-01            NaN
         13   -1    0    0    0    0  0.00000000000E+00  0.00000000000E+00  0.74505805969E-08  0.10566000000E+00  0.10566000000E+00 0.  1.
     999900   -1    0    0    0    0 -0.00000000000E+00 -0.00000000000E+00 -0.74505805969E-08  0.93827000000E+00  0.93827000000E+00 0. -1.
     999902    2    1    2    0    0 -0.12547988990E-01  0.10534130176E-01  0.60818486845E-02  0.10264540505E+01  0.10263052709E+01 0.  0.
     999903    2    3    3    0    0 -0.10176889546E+00 -0.81399708063E-01 -0.34563201175E-01  0.13624945560E+00  0.19659062042E-01 0.  0.
         14    1    1    2    0    0  0.12547988990E-01 -0.10534130176E-01 -0.60818486845E-02  0.17475949464E-01  0.00000000000E+00 0. -1.
     999901    1    3    3    0    0  0.89220906470E-01  0.91933838240E-01  0.40645049859E-01  0.89020459493E+00  0.88000000000E+00 0.  1.
        -11    1    4    4    0    0 -0.56022599488E-01 -0.43365649063E-01 -0.28796848845E-01  0.76476341417E-01  0.51100000000E-03 0.  1.
         11    1    4    4    0    0 -0.45746295971E-01 -0.38034059001E-01 -0.57663523292E-02  0.59773114184E-01  0.51100000000E-03 0. -1.
</event>
<event>
 8    1  0.9956970E+004  0.1043930E+01  0.7957747E-01            NaN
         13   -1    0    0    0    0  0.00000000000E+00  0.00000000000E+00  0.74505805969E-08  0.10566000000E+00  0.10566000000E+00 0. -1.
     999900   -1    0    0    0    0 -0.00000000000E+00 -0.00000000000E+00 -0.74505805969E-08  0.93827000000E+00  0.93827000000E+00 0. -1.
     999902    2    1    2    0    0  0.11997683368E-01 -0.29056729898E-02 -0.19255243691E-01  0.10210574892E+01  0.10208012757E+01 0.  0.
     999903    2    3    3    0    0  0.74273691971E-01  0.10398473580E+00  0.23586772912E-01  0.13137254543E+00  0.19313291779E-01 0.  0.
         14    1    1    2    0    0 -0.11997683368E-01  0.29056729898E-02  0.19255243691E-01  0.22872510822E-01  0.00000000000E+00 0. -1.
     999901    1    3    3    0    0 -0.62276008602E-01 -0.10689040879E+00 -0.42842016603E-01  0.88968494374E+00  0.88000000000E+00 0.  1.
        -11    1    4    4    0    0  0.31595797444E-01  0.48912516767E-01  0.20124331870E-01  0.61611513265E-01  0.51100000000E-03 0.  1.
         11    1    4    4    0    0  0.42677894527E-01  0.55072219031E-01  0.34624410423E-02  0.69761032169E-01  0.51100000000E-03 0. -1.
</event>
<event>
 8    1  0.9956970E+004  0.1043930E+01  0.7957747E-01            NaN
         13   -1    0    0    0    0  0.00000000000E+00  0.00000000000E+00  0.74505805969E-08  0.10566000000E+00  0.10566000000E+00 0.  1.
     999900   -1    0    0    0    0 -0.00000000000E+00 -0.00000000000E+00 -0.74505805969E-08  0.93827000000E+00  0.93827000000E+00 0.  1.
     999902    2    1    2    0    0  0.16853162285E-01  0.14406448890E-01  0.62691646573E-02  0.10208892258E+01  0.10206291854E+01 0.  0.
     999903    2    3    3    0    0 -0.11750756089E+00  0.37704106316E-01 -0.35655943032E-01  0.12939985437E+00  0.15599664722E-01 0.  0.
         14    1    1    2    0    0 -0.16853162285E-01 -0.14406448890E-01 -0.62691646573E-02  0.23040774165E-01  0.00000000000E+00 0.  1.
     999901    1    3    3    0    0  0.13436072317E+00 -0.23297657427E-01  0.41925107690E-01  0.89148937146E+00  0.88000000000E+00 0.  1.
        -11    1    4    4    0    0 -0.85205059511E-01  0.26929619537E-01 -0.18455485955E-01  0.91246767929E-01  0.51100000000E-03 0. -1.
         11    1    4    4    0    0 -0.32302501377E-01  0.10774486780E-01 -0.17200457077E-01  0.38153086445E-01  0.51100000000E-03 0.  1.
</event>
<event>
 8    1  0.9956970E+004  0.1043930E+01  0.7957747E-01            NaN
         13   -1    0    0    0    0  0.00000000000E+00  0.00000000000E+00  0.74505805969E-08  0.10566000000E+00  0.10566000000E+00 0. -1.
     999900   -1    0    0    0    0 -0.00000000000E+00 -0.00000000000E+00 -0.74505805969E-08  0.93827000000E+00  0.93827000000E+00 0.  1.
     999902    2    1    2    0    0 -0.13784357563E-01 -0.45708176336E-03  0.20148744754E-01  0.10195130110E+01  0.10192205798E+01 0.  0.
     999903    2    3    3    0    0  0.26480987097E-01  0.11323900209E+00  0.56936366122E-01  0.13052401975E+00  0.16445536528E-01 0.  0.
         14    1    1    2    0    0  0.13784357563E-01  0.45708176336E-03 -0.20148744754E-01  0.24416989010E-01  0.00000000000E+00 0.  1.
     999901    1    3    3    0    0 -0.40265344660E-01 -0.11369608385E+00 -0.36787621367E-01  0.88898899124E+00  0.88000000000E+00 0. -1.
        -11    1    4    4    0    0  0.69346960256E-02  0.53108180543E-01  0.19254146379E-01  0.56917063551E-01  0.51100000000E-03 0.  1.
         11    1    4    4    0    0  0.19546291072E-01  0.60130821548E-01  0.37682219742E-01  0.73606956196E-01  0.51100000000E-03 0. -1.
</event>
<event>
 8    1  0.9956970E+004  0.1043930E+01  0.7957747E-01            NaN
         13   -1    0    0    0    0  0.00000000000E+00  0.00000000000E+00  0.74505805969E-08  0.10566000000E+00  0.10566000000E+00 0.  1.
     999900   -1    0    0    0    0 -0.00000000000E+00 -0.00000000000E+00 -0.74505805969E-08  0.93827000000E+00  0.93827000000E+00 0. -1.
     999902    2    1    2    0    0 -0.88775947598E-02  0.12183795803E-01  0.18038973842E-01  0.10204212538E+01  0.10201504174E+01 0.  0.
     999903    2    3    3    0    0  0.11604449330E+00  0.32219043136E-01  0.47091194376E-01  0.13089836445E+00  0.20307881785E-01 0.  0.
         14    1    1    2    0    0  0.88775947598E-02 -0.12183795803E-01 -0.18038973842E-01  0.23508746163E-01  0.00000000000E+00 0. -1.
     999901    1    3    3    0    0 -0.12492208806E+00 -0.20035247332E-01 -0.29052220535E-01  0.88952288938E+00  0.88000000000E+00 0. -1.
        -11    1    4    4    0    0  0.78564563923E-01  0.17170239667E-01  0.22104819033E-01  0.83403189268E-01  0.51100000000E-03 0. -1.
         11    1    4    4    0    0  0.37479929378E-01  0.15048803468E-01  0.24986375344E-01  0.47495175184E-01  0.51100000000E-03 0.  1.
</event>
<event>
 8    1  0.9956970E+004  0.1043930E+01  0.7957747E-01            NaN
         13   -1    0    0    0    0  0.00000000000E+00  0.00000000000E+00  0.74505805969E-08  0.10566000000E+00  0.10566000000E+00 0. -1.
     999900   -1    0    0    0    0 -0.00000000000E+00 -0.00000000000E+00 -0.74505805969E-08  0.93827000000E+00  0.93827000000E+00 0. -1.
     999902    2    1    2    0    0  0.13924772730E-01 -0.18868912892E-01 -0.59589648959E-02  0.10197340410E+01  0.10194469432E+01 0.  0.
     999903    2    3    3    0    0 -0.88350949423E-01  0.27241616394E-02  0.90885641908E-01  0.12827149996E+00  0.19495293696E-01 0.  0.
         14    1    1    2    0    0 -0.13924772730E-01  0.18868912892E-01  0.59589648959E-02  0.24195959001E-01  0.00000000000E+00 0. -1.
     999901    1    3    3    0    0  0.10227572215E+00 -0.21593074532E-01 -0.96844606804E-01  0.89146254104E+00  0.88000000000E+00 0. -1.
        -11    1    4    4    0    0 -0.16545799708E-04  0.20860061779E-02  0.27027698441E-02  0.34522139806E-02  0.51100000000E-03 0. -1.
         11    1    4    4    0    0 -0.88334403623E-01  0.63815546150E-03  0.88182872064E-01  0.12481928598E+00  0.51100000000E-03 0.  1.
</event>
<event>
 8    1  0.9956970E+004  0.1043930E+01  0.7957747E-01            NaN
         13   -1    0    0    0    0  0.00000000000E+00  0.00000000000E+00  0.74505805969E-08  0.10566000000E+00  0.10566000000E+00 0.  1.
     999900   -1    0    0    0    0 -0.00000000000E+00 -0.00000000000E+00 -0.74505805969E-08  0.93827000000E+00  0.93827000000E+00 0.  1.
     999902    2    1    2    0    0  0.80782426455E-02  0.21911165189E-01  0.43170470648E-02  0.10201814409E+01  0.10199049849E+01 0.  0.
     999903    2    3    3    0    0  0.10225636411E+00 -0.60951914993E-02 -0.78655422535E-01  0.13083431784E+00  0.20914776363E-01 0.  0.
         14    1    1    2    0    0 -0.80782426455E-02 -0.21911165189E-01 -0.43170470648E-02  0.23748559105E-01  0.00000000000E+00 0. -1.
     999901    1    3    3    0    0 -0.94178121462E-01  0.28006356689E-01  0.82972469600E-01  0.88934712306E+00  0.88000000000E+00 0. -1.
        -11    1    4    4    0    0  0.24663622427E-01  0.64244372948E-02 -0.24728124208E-01  0.35514911145E-01  0.51100000000E-03 0. -1.
         11    1    4    4    0    0  0.77592741681E-01 -0.12519628794E-01 -0.53927298326E-01  0.95319406694E-01  0.51100000000E-03 0.  1.
</event>
<event>
 8    1  0.9956970E+004  0.1043930E+01  0.7957747E-01            NaN
         13   -1    0    0    0    0  0.00000000000E+00  0.00000000000E+00  0.74505805969E-08  0.10566000000E+00  0.10566000000E+00 0. -1.
     999900   -1    0    0    0    0 -0.00000000000E+00 -0.00000000000E+00 -0.74505805969E-08  0.93827000000E+00  0.93827000000E+00 0. -1.
     999902    2    1    2    0    0 -0.87159844165E-02 -0.18785277285E-01  0.16970519725E-01  0.10171558788E+01  0.10168034364E+01 0.  0.
     999903    2    3    3    0    0  0.70223659555E-03  0.69516075483E-01 -0.10129706830E+00  0.12481454602E+00  0.22013563199E-01 0.  0.
         14    1    1    2    0    0  0.87159844165E-02  0.18785277285E-01 -0.16970519725E-01  0.26774121214E-01  0.00000000000E+00 0.  1.
     999901    1    3    3    0    0 -0.94182210121E-02 -0.88301352769E-01  0.11826758803E+00  0.89234133277E+00  0.88000000000E+00 0.  1.
        -11    1    4    4    0    0 -0.30306761289E-02  0.45866666537E-01 -0.48412417857E-01  0.66760463006E-01  0.51100000000E-03 0. -1.
         11    1    4    4    0    0  0.37329127244E-02  0.23649408947E-01 -0.52884650443E-01  0.58054083013E-01  0.51100000000E-03 0.  1.
</event>
<event>
 8    1  0.9956970E+004  0.1043930E+01  0.7957747E-01            NaN
         13   -1    0    0    0    0  0.00000000000E+00  0.00000000000E+00  0.74505805969E-08  0.10566000000E+00  0.10566000000E+00 0. -1.
     999900   -1    0    0    0    0 -0.00000000000E+00 -0.00000000000E+00 -0.74505805969E-08  0.93827000000E+00  0.93827000000E+00 0.  1.
     999902    2    1    2    0    0  0.17858469207E-01  0.33070633638E-03 -0.15440820870E-01  0.10203195523E+01  0.10200463400E+01 0.  0.
     999903    2    3    3    0    0 -0.66077845369E-01  0.81007646147E-01 -0.75550537734E-01  0.13061889955E+00  0.20612927643E-01 0.  0.
         14    1    1    2    0    0 -0.17858469207E-01 -0.33070633638E-03  0.15440820870E-01  0.23610447651E-01  0.00000000000E+00 0. -1.
     999901    1    3    3    0    0  0.83936314577E-01 -0.80676939811E-01  0.60109716863E-01  0.88970065279E+00  0.88000000000E+00 0.  1.
        -11    1    4    4    0    0 -0.44671879393E-01  0.46649083922E-01 -0.35646961350E-01  0.73774526862E-01  0.51100000000E-03 0. -1.
         11    1    4    4    0    0 -0.21405965976E-01  0.34358562225E-01 -0.39903576384E-01  0.56844372692E-01  0.51100000000E-03 0.  1.
</event>
<event>
 8    1  0.9956970E+004  0.1043930E+01  0.7957747E-01            NaN
         13   -1    0    0    0    0  0.00000000000E+00  0.00000000000E+00  0.74505805969E-08  0.10566000000E+00  0.10566000000E+00 0.  1.
     999900   -1    0    0    0    0 -0.00000000000E+00 -0.00000000000E+00 -0.74505805969E-08  0.93827000000E+00  0.93827000000E+00 0.  1.
     999902    2    1    2    0    0 -0.28944394639E-02  0.16295122016E-01 -0.16830984037E-01  0.10203251106E+01  0.10200520283E+01 0.  0.
     999903    2    3    3    0    0  0.20292526331E-01 -0.73064931259E-01  0.10065060699E+00  0.12773070171E+00  0.20840265479E-01 0.  0.
         14    1    1    2    0    0  0.28944394639E-02 -0.16295122016E-01  0.16830984037E-01  0.23604889430E-01  0.00000000000E+00 0.  1.
     999901    1    3    3    0    0 -0.23186965795E-01  0.89360053275E-01 -0.11748159103E+00  0.89259440886E+00  0.88000000000E+00 0.  1.
        -11    1    4    4    0    0  0.13675296763E-01 -0.23777360205E-01  0.24515859017E-01  0.36792187543E-01  0.51100000000E-03 0. -1.
         11    1    4    4    0    0  0.66172295674E-02 -0.49287571054E-01  0.76134747978E-01  0.90938514163E-01  0.51100000000E-03 0.  1.
</event>
<event>
 8    1  0.9956970E+004  0.1043930E+01  0.7957747E-01            NaN
         13   -1    0    0    0    0  0.00000000000E+00  0.00000000000E+00  0.74505805969E-08  0.10566000000E+00  0.10566000000E+00 0. -1.
     999900   -1    0    0    0    0 -0.00000000000E+00 -0.00000000000E+00 -0.74505805969E-08  0.93827000000E+00  0.93827000000E+00 0.  1.
     999902    2    1    2    0    0  0.10960360928E-01 -0.20240313325E-01 -0.44138501950E-02  0.10204932368E+01  0.10202240756E+01 0.  0.
     999903    2    3    3    0    0 -0.14594423224E-01  0.88620352501E-01 -0.90710424656E-01  0.12922964487E+00  0.20133452400E-01 0.  0.
         14    1    1    2    0    0 -0.10960360928E-01  0.20240313325E-01  0.44138501950E-02  0.23436763187E-01  0.00000000000E+00 0. -1.
     999901    1    3    3    0    0  0.25554784152E-01 -0.10886066583E+00  0.86296574461E-01  0.89126359194E+00  0.88000000000E+00 0. -1.
        -11    1    4    4    0    0 -0.56870115989E-03  0.52644852732E-01 -0.60488890607E-01  0.80193334811E-01  0.51100000000E-03 0.  1.
         11    1    4    4    0    0 -0.14025722064E-01  0.35975499769E-01 -0.30221534049E-01  0.49036310060E-01  0.51100000000E-03 0. -1.
</event>
<event>
 8    1  0.9956970E+004  0.1043930E+01  0.7957747E-01            NaN
         13   -1    0    0    0    0  0.00000000000E+00  0.00000000000E+00  0.74505805969E-08  0.10566000000E+00  0.10566000000E+00 0.  1.
     999900   -1    0    0    0    0 -0.00000000000E+00 -0.00000000000E+00 -0.74505805969E-08  0.93827000000E+00  0.93827000000E+00 0.  1.
     999902    2    1    2    0    0 -0.16717949403E-01 -0.16413039564E-01 -0.39775449162E-02  0.10201666130E+01  0.10198898076E+01 0.  0.
     999903    2    3    3    0    0 -0.23157831827E-01 -0.11688737170E+00  0.54383262890E-01  0.13250533331E+00  0.20029509139E-01 0.  0.
         14    1    1    2    0    0  0.16717949403E-01  0.16413039564E-01  0.39775449162E-02  0.23763387038E-01  0.00000000000E+00 0.  1.
     999901    1    3    3    0    0  0.64398824239E-02  0.10047433213E+00 -0.58360807806E-01  0.88766127965E+00  0.88000000000E+00 0.  1.
        -11    1    4    4    0    0 -0.12995188689E-01 -0.89020021500E-01  0.48694445592E-01  0.10229784606E+00  0.51100000000E-03 0. -1.
         11    1    4    4    0    0 -0.10162643137E-01 -0.27867350197E-01  0.56888172981E-02  0.30207487247E-01  0.51100000000E-03 0.  1.
</event>
<event>
 7    1  0.9956970E+004  0.1043930E+01  0.7957747E-01            NaN
         13   -1    0    0    0    0  0.00000000000E+00  0.00000000000E+00  0.74505805969E-08  0.10566000000E+00  0.10566000000E+00 0. -1.
     999900   -1    0    0    0    0 -0.00000000000E+00 -0.00000000000E+00 -0.74505805969E-08  0.93827000000E+00  0.93827000000E+00 0.  1.
     999903    2    1    2    0    0  0.21209003889E-01  0.25010933593E-01 -0.10800100775E+00  0.11470003685E+00  0.20408628888E-01 0.  0.
         14    1    1    2    0    0 -0.40159970155E-01 -0.56510654929E-02 -0.75826468064E-02  0.41258384319E-01  0.00000000000E+00 0. -1.
     999901    1    1    2    0    0  0.18950966266E-01 -0.19359868100E-01  0.11558365455E+00  0.88797157883E+00  0.88000000000E+00 0. -1.
        -11    1    3    3    0    0  0.20397470786E-03  0.49688029976E-02 -0.45607185324E-01  0.45880356178E-01  0.51100000000E-03 0. -1.
         11    1    3    3    0    0  0.21005029181E-01  0.20042130595E-01 -0.62393822425E-01  0.68819680669E-01  0.51100000000E-03 0.  1.
</event>
<event>
 8    1  0.9956970E+004  0.1043930E+01  0.7957747E-01            NaN
         13   -1    0    0    0    0  0.00000000000E+00  0.00000000000E+00  0.74505805969E-08  0.10566000000E+00  0.10566000000E+00 0.  1.
     999900   -1    0    0    0    0 -0.00000000000E+00 -0.00000000000E+00 -0.74505805969E-08  0.93827000000E+00  0.93827000000E+00 0.  1.
     999902    2    1    2    0    0  0.17787708833E-01 -0.56896134499E-02  0.12430333062E-01  0.10214959307E+01  0.10212495527E+01 0.  0.
     999903    2    3    3    0    0 -0.30211344261E-01  0.12299535089E+00  0.24964004493E-01  0.13075420488E+00  0.20805742244E-01 0.  0.
         14    1    1    2    0    0 -0.17787708833E-01  0.56896134499E-02 -0.12430333062E-01  0.22434069332E-01  0.00000000000E+00 0. -1.
     999901    1    3    3    0    0  0.47999053094E-01 -0.12868496434E+00 -0.12533671431E-01  0.89074172579E+00  0.88000000000E+00 0. -1.
        -11    1    4    4    0    0 -0.19097009807E-01  0.64072584688E-01  0.31109684855E-02  0.66932287710E-01  0.51100000000E-03 0. -1.
         11    1    4    4    0    0 -0.11114334454E-01  0.58922766201E-01  0.21853036007E-01  0.63821917167E-01  0.51100000000E-03 0.  1.
</event>
<event>
 8    1  0.9956970E+004  0.1043930E+01  0.7957747E-01            NaN
         13   -1    0    0    0    0  0.00000000000E+00  0.00000000000E+00  0.74505805969E-08  0.10566000000E+00  0.10566000000E+00 0. -1.
     999900   -1    0    0    0    0 -0.00000000000E+00 -0.00000000000E+00 -0.74505805969E-08  0.93827000000E+00  0.93827000000E+00 0.  1.
     999902    2    1    2    0    0 -0.13791707480E-01 -0.13822515144E-01  0.12234908140E-01  0.10208872984E+01  0.10206272140E+01 0.  0.
     999903    2    3    3    0    0 -0.87781182485E-01  0.43478073265E-01  0.87218073945E-01  0.13275427063E+00  0.20514021928E-01 0.  0.
         14    1    1    2    0    0  0.13791707480E-01  0.13822515144E-01 -0.12234908140E-01  0.23042701606E-01  0.00000000000E+00 0.  1.
     999901    1    3    3    0    0  0.73989475005E-01 -0.57300588409E-01 -0.74983165805E-01  0.88813302776E+00  0.88000000000E+00 0.  1.
        -11    1    4    4    0    0 -0.38571908420E-01  0.20369390425E-01  0.25599582001E-01  0.50579678776E-01  0.51100000000E-03 0. -1.
         11    1    4    4    0    0 -0.49209274064E-01  0.23108682839E-01  0.61618491945E-01  0.82174591858E-01  0.51100000000E-03 0.  1.
</event>
<event>
 8    1  0.9956970E+004  0.1043930E+01  0.7957747E-01            NaN
         13   -1    0    0    0    0  0.00000000000E+00  0.00000000000E+00  0.74505805969E-08  0.10566000000E+00  0.10566000000E+00 0. -1.
     999900   -1    0    0    0    0 -0.00000000000E+00 -0.00000000000E+00 -0.74505805969E-08  0.93827000000E+00  0.93827000000E+00 0. -1.
     999902    2    1    2    0    0 -0.25008868976E-02  0.10962169527E-03 -0.23313152327E-01  0.10204828355E+01  0.10202134326E+01 0.  0.
     999903    2    3    3    0    0 -0.66940004411E-01  0.33777321616E-01 -0.10860778577E+00  0.13337456229E+00  0.19267877179E-01 0.  0.
         14    1    1    2    0    0  0.25008868976E-02 -0.10962169527E-03  0.23313152327E-01  0.23447164512E-01  0.00000000000E+00 0. -1.
     999901    1    3    3    0    0  0.64439117513E-01 -0.33667699921E-01  0.85294633439E-01  0.88710827320E+00  0.88000000000E+00 0.  1.
        -11    1    4    4    0    0 -0.31840740156E-01  0.64844500824E-02 -0.38848754471E-01  0.50649458749E-01  0.51100000000E-03 0.  1.
         11    1    4    4    0    0 -0.35099264255E-01  0.27292871534E-01 -0.69759031295E-01  0.82725103541E-01  0.51100000000E-03 0. -1.
</event>
<event>
 8    1  0.9956970E+004  0.1043930E+01  0.7957747E-01            NaN
         13   -1    0    0    0    0  0.00000000000E+00  0.00000000000E+00  0.74505805969E-08  0.10566000000E+00  0.10566000000E+00 0. -1.
     999900   -1    0    0    0    0 -0.00000000000E+00 -0.00000000000E+00 -0.74505805969E-08  0.93827000000E+00  0.93827000000E+00 0. -1.
     999902    2    1    2    0    0  0.19170761339E-01  0.13760194607E-01  0.50338087325E-02  0.10198011733E+01  0.10195156854E+01 0.  0.
     999903    2    3    3    0    0 -0.78672190176E-01  0.87464469202E-01 -0.50942478489E-01  0.12955462996E+00  0.18706126002E-01 0.  0.
         14    1    1    2    0    0 -0.19170761339E-01 -0.13760194607E-01 -0.50338087325E-02  0.24128826666E-01  0.00000000000E+00 0.  1.
     999901    1    3    3    0    0  0.97842951515E-01 -0.73704274595E-01  0.55976287222E-01  0.89024654337E+00  0.88000000000E+00 0.  1.
        -11    1    4    4    0    0 -0.19891023523E-01  0.34641422376E-01 -0.14165481873E-01  0.42386353449E-01  0.51100000000E-03 0. -1.
         11    1    4    4    0    0 -0.58781166652E-01  0.52823046826E-01 -0.36776996616E-01  0.87168276513E-01  0.51100000000E-03 0.  1.
</event>
<event>
 8    1  0.9956970E+004  0.1043930E+01  0.7957747E-01            NaN
         13   -1    0    0    0    0  0.00000000000E+00  0.00000000000E+00  0.74505805969E-08  0.10566000000E+00  0.10566000000E+00 0. -1.
     999900   -1    0    0    0    0 -0.00000000000E+00 -0.00000000000E+00 -0.74505805969E-08  0.93827000000E+00  0.93827000000E+00 0. -1.
     999902    2    1    2    0    0  0.72425589086E-02 -0.11514889006E-02 -0.22527716468E-01  0.10202386810E+01  0.10199635717E+01 0.  0.
     999903    2    3    3    0    0 -0.12396404735E+00  0.28771280507E-01  0.12501403565E-01  0.12931916450E+00  0.19294807493E-01 0.  0.
         14    1    1    2    0    0 -0.72425589086E-02  0.11514889006E-02  0.22527716468E-01  0.23691318991E-01  0.00000000000E+00 0. -1.
     999901    1    3    3    0    0  0.13120660626E+00 -0.29922769408E-01 -0.35029120033E-01  0.89091951651E+00  0.88000000000E+00 0. -1.
        -11    1    4    4    0    0 -0.11104523709E+00  0.26600021273E-01  0.51843436012E-02  0.11430548697E+00  0.51100000000E-03 0.  1.
         11    1    4    4    0    0 -0.12918810267E-01  0.21712592343E-02  0.73170599633E-02  0.15013677527E-01  0.51100000000E-03 0. -1.
</event>
<event>
 8    1  0.9956970E+004  0.1043930E+01  0.7957747E-01            NaN
         13   -1    0    0    0    0  0.00000000000E+00  0.00000000000E+00  0.74505805969E-08  0.10566000000E+00  0.10566000000E+00 0. -1.
     999900   -1    0    0    0    0 -0.00000000000E+00 -0.00000000000E+00 -0.74505805969E-08  0.93827000000E+00  0.93827000000E+00 0. -1.
     999902    2    1    2    0    0 -0.80343161300E-02 -0.14018981747E-01 -0.17781263975E-01  0.10199038594E+01  0.10196208251E+01 0.  0.
     999903    2    3    3    0    0  0.71194395664E-02  0.12479718434E+00  0.19121911641E-01  0.12812955572E+00  0.20652164676E-01 0.  0.
         14    1    1    2    0    0  0.80343161300E-02  0.14018981747E-01  0.17781263975E-01  0.24026140627E-01  0.00000000000E+00 0. -1.
     999901    1    3    3    0    0 -0.15153755696E-01 -0.13881616609E+00 -0.36903175616E-01  0.89177430365E+00  0.88000000000E+00 0. -1.
        -11    1    4    4    0    0  0.10448374269E-01  0.97959244296E-01  0.21955555581E-01  0.10093309472E+00  0.51100000000E-03 0.  1.
         11    1    4    4    0    0 -0.33289347022E-02  0.26837940045E-01 -0.28336439400E-02  0.27196461003E-01  0.51100000000E-03 0. -1.
</event>
<event>
 8    1  0.9956970E+004  0.1043930E+01  0.7957747E-01            NaN
         13   -1    0    0    0    0  0.00000000000E+00  0.00000000000E+00  0.74505805969E-08  0.10566000000E+00  0.10566000000E+00 0.  1.
     999900   -1    0    0    0    0 -0.00000000000E+00 -0.00000000000E+00 -0.74505805969E-08  0.93827000000E+00  0.93827000000E+00 0. -1.
     999902    2    1    2    0    0 -0.13356173666E-01  0.97406880522E-02 -0.17845149575E-01  0.10196047509E+01  0.10193145395E+01 0.  0.
     999903    2    3    3    0    0  0.10657284867E+00  0.14170467314E-01 -0.71007836729E-01  0.12986947309E+00  0.16290885309E-01 0.  0.
         14    1    1    2    0    0  0.13356173666E-01 -0.97406880522E-02  0.17845149575E-01  0.24325249065E-01  0.00000000000E+00 0. -1.
     999901    1    3    3    0    0 -0.11992902234E+00 -0.44297792615E-02  0.53162687154E-01  0.88973527785E+00  0.88000000000E+00 0.  1.
        -11    1    4    4    0    0  0.35457559266E-01 -0.19941129270E-02 -0.18872608479E-01  0.40220038131E-01  0.51100000000E-03 0.  1.
         11    1    4    4    0    0  0.71115289408E-01  0.16164580241E-01 -0.52135228250E-01  0.89649434954E-01  0.51100000000E-03 0. -1.
</event>
<event>
 8    1  0.9956970E+004  0.1043930E+01  0.7957747E-01            NaN
         13   -1    0    0    0    0  0.00000000000E+00  0.00000000000E+00  0.74505805969E-08  0.10566000000E+00  0.10566000000E+00 0.  1.
     999900   -1    0    0    0    0 -0.00000000000E+00 -0.00000000000E+00 -0.74505805969E-08  0.93827000000E+00  0.93827000000E+00 0. -1.
     999902    2    1    2    0    0 -0.22653415878E-01 -0.17391238247E-01  0.55794278608E-02  0.10148308173E+01  0.10144135376E+01 0.  0.
     999903    2    3    3    0    0  0.52110236213E-03 -0.52468551486E-01 -0.11292287790E+00  0.12589309582E+00  0.18554643078E-01 0.  0.
         14    1    1    2    0    0  0.22653415878E-01  0.17391238247E-01 -0.55794278608E-02  0.29099182702E-01  0.00000000000E+00 0. -1.
     999901    1    3    3    0    0 -0.23174518240E-01  0.35077313239E-01  0.11850230576E+00  0.88893772148E+00  0.88000000000E+00 0.  1.
        -11    1    4    4    0    0 -0.76518353117E-02 -0.24444802116E-01 -0.42016156236E-01  0.49210948375E-01  0.51100000000E-03 0.  1.
         11    1    4    4    0    0  0.81729376738E-02 -0.28023749370E-01 -0.70906721660E-01  0.76682147443E-01  0.51100000000E-03 0. -1.
</event>
<event>
 8    1  0.9956970E+004  0.1043930E+01  0.7957747E-01            NaN
         13   -1    0    0    0    0  0.00000000000E+00  0.00000000000E+00  0.74505805969E-08  0.10566000000E+00  0.10566000000E+00 0. -1.
     999900   -1    0    0    0    0 -0.00000000000E+00 -0.00000000000E+00 -0.74505805969E-08  0.93827000000E+00  0.93827000000E+00 0.  1.
     999902    2    1    2    0    0  0.47010684713E-02  0.21004344727E-01 -0.72477447682E-02  0.10212184975E+01  0.10209659188E+01 0.  0.
     999903    2    3    3    0    0  0.10006868399E+00  0.57014423036E-01 -0.64651780542E-01  0.13347589338E+00  0.19276292071E-01 0.  0.
         14    1    1    2    0    0 -0.47010684713E-02 -0.21004344727E-01  0.72477447682E-02  0.22711502513E-01  0.00000000000E+00 0. -1.
     999901    1    3    3    0    0 -0.95367615518E-01 -0.36010078308E-01  0.57404035774E-01  0.88774260411E+00  0.88000000000E+00 0.  1.
        -11    1    4    4    0    0  0.63234946462E-01  0.26514896757E-01 -0.43327312122E-01  0.81112362195E-01  0.51100000000E-03 0. -1.
         11    1    4    4    0    0  0.36833737527E-01  0.30499526278E-01 -0.21324468419E-01  0.52363531181E-01  0.51100000000E-03 0.  1.
</event>
<event>
 8    1  0.9956970E+004  0.1043930E+01  0.7957747E-01            NaN
         13   -1    0    0    0    0  0.00000000000E+00  0.00000000000E+00  0.74505805969E-08  0.10566000000E+00  0.10566000000E+00 0. -1.
     999900   -1    0    0    0    0 -0.00000000000E+00 -0.00000000000E+00 -0.74505805969E-08  0.93827000000E+00  0.93827000000E+00 0.  1.
     999902    2    1    2    0    0 -0.34703283958E-03  0.12329673523E-01  0.21156267732E-01  0.10194406361E+01  0.10191464475E+01 0.  0.
     999903    2    3    3    0    0 -0.88772167620E-01  0.19199321126E-01 -0.88327235495E-01  0.12823199945E+00  0.19814981135E-01 0.  0.
         14    1    1    2    0    0  0.34703283958E-03 -0.12329673523E-01 -0.21156267732E-01  0.24489363922E-01  0.00000000000E+00 0.  1.
     999901    1    3    3    0    0  0.88425134781E-01 -0.68696476033E-02  0.10948350323E+00  0.89120863663E+00  0.88000000000E+00 0. -1.
        -11    1    4    4    0    0 -0.10131857810E-01 -0.29189685197E-02 -0.15723545210E-01  0.18938477099E-01  0.51100000000E-03 0. -1.
         11    1    4    4    0    0 -0.78640309811E-01  0.22118289646E-01 -0.72603690285E-01  0.10929352235E+00  0.51100000000E-03 0.  1.
</event>
<event>
 8    1  0.9956970E+004  0.1043930E+01  0.7957747E-01            NaN
         13   -1    0    0    0    0  0.00000000000E+00  0.00000000000E+00  0.74505805969E-08  0.10566000000E+00  0.10566000000E+00 0.  1.
     999900   -1    0    0    0    0 -0.00000000000E+00 -0.00000000000E+00 -0.74505805969E-08  0.93827000000E+00  0.93827000000E+00 0. -1.
     999902    2    1    2    0    0  0.12435905599E-01 -0.21725182194E-01 -0.57274224456E-02  0.10182504623E+01  0.10179266011E+01 0.  0.
     999903    2    3    3    0    0  0.63475650550E-01 -0.39621130189E-01 -0.10561731621E+00  0.13094932321E+00  0.19842267923E-01 0.  0.
         14    1    1    2    0    0 -0.12435905599E-01  0.21725182194E-01  0.57274224456E-02  0.25679537716E-01  0.00000000000E+00 0.  1.
     999901    1    3    3    0    0 -0.51039744951E-01  0.17895947994E-01  0.99889893766E-01  0.88730113907E+00  0.88000000000E+00 0.  1.
        -11    1    4    4    0    0  0.27102483388E-01 -0.19699828485E-01 -0.31360455468E-01  0.45895175523E-01  0.51100000000E-03 0.  1.
         11    1    4    4    0    0  0.36373167162E-01 -0.19921301704E-01 -0.74256860743E-01  0.85054147691E-01  0.51100000000E-03 0. -1.
</event>
<event>
 8    1  0.9956970E+004  0.1043930E+01  0.7957747E-01            NaN
         13   -1    0    0    0    0  0.00000000000E+00  0.00000000000E+00  0.74505805969E-08  0.10566000000E+00  0.10566000000E+00 0. -1.
     999900   -1    0    0    0    0 -0.00000000000E+00 -0.00000000000E+00 -0.74505805969E-08  0.93827000000E+00  0.93827000000E+00 0.  1.
     999902    2    1    2    0    0 -0.12621932884E-01 -0.17919121252E-01 -0.65355332581E-02  0.10210581551E+01  0.10208019567E+01 0.  0.
     999903    2    3    3    0    0 -0.34862514282E-01  0.12144096446E+00 -0.21374189317E-01  0.12969063116E+00  0.19987523374E-01 0.  0.
         14    1    1    2    0    0  0.12621932884E-01  0.17919121252E-01  0.65355332581E-02  0.22871844944E-01  0.00000000000E+00 0. -1.
     999901    1    3    3    0    0  0.22240581398E-01 -0.13936008571E+00  0.14838656059E-01  0.89136752390E+00  0.88000000000E+00 0.  1.
        -11    1    4    4    0    0 -0.94267383795E-02  0.29777355245E-01 -0.14134181171E-01  0.34286884960E-01  0.51100000000E-03 0.  1.
         11    1    4    4    0    0 -0.25435775902E-01  0.91663609212E-01 -0.72400081460E-02  0.95403746197E-01  0.51100000000E-03 0. -1.
</event>
<event>
 8    1  0.9956970E+004  0.1043930E+01  0.7957747E-01            NaN
         13   -1    0    0    0    0  0.00000000000E+00  0.00000000000E+00  0.74505805969E-08  0.10566000000E+00  0.10566000000E+00 0.  1.
     999900   -1    0    0    0    0 -0.00000000000E+00 -0.00000000000E+00 -0.74505805969E-08  0.93827000000E+00  0.93827000000E+00 0. -1.
     999902    2    1    2    0    0 -0.28001911815E-02 -0.19452482256E-01 -0.23594557407E-02  0.10241358805E+01  0.10239445759E+01 0.  0.
     999903    2    3    3    0    0 -0.10938666268E+00  0.34100987952E-01  0.65578984736E-01  0.13349325754E+00  0.19787046734E-01 0.  0.
         14    1    1    2    0    0  0.28001911815E-02  0.19452482256E-01  0.23594557407E-02  0.19794119530E-01  0.00000000000E+00 0.  1.
     999901    1    3    3    0    0  0.10658647150E+00 -0.53553470208E-01 -0.67938440476E-01  0.89064262293E+00  0.88000000000E+00 0.  1.
        -11    1    4    4    0    0 -0.15466965333E-01  0.11438552138E-01  0.15250954324E-01  0.24554433824E-01  0.51100000000E-03 0.  1.
         11    1    4    4    0    0 -0.93919697349E-01  0.22662435814E-01  0.50328030411E-01  0.10893882372E+00  0.51100000000E-03 0. -1.
</event>
<event>
 8    1  0.9956970E+004  0.1043930E+01  0.7957747E-01            NaN
         13   -1    0    0    0    0  0.00000000000E+00  0.00000000000E+00  0.74505805969E-08  0.10566000000E+00  0.10566000000E+00 0. -1.
     999900   -1    0    0    0    0 -0.00000000000E+00 -0.00000000000E+00 -0.74505805969E-08  0.93827000000E+00  0.93827000000E+00 0. -1.
     999902    2    1    2    0    0 -0.16787318523E-01 -0.12636416810E-01  0.12334359969E-01  0.10195654863E+01  0.10192743258E+01 0.  0.
     999903    2    3    3    0    0  0.86237814306E-01 -0.92678144045E-01 -0.17917134752E-01  0.12943290681E+00  0.20140870110E-01 0.  0.
         14    1    1    2    0    0  0.16787318523E-01  0.12636416810E-01 -0.12334359969E-01  0.24364513721E-01  0.00000000000E+00 0. -1.
     999901    1    3    3    0    0 -0.10302513283E+00  0.80041727235E-01  0.30251494721E-01  0.89013257947E+00  0.88000000000E+00 0.  1.
        -11    1    4    4    0    0  0.42315172871E-01 -0.52752152657E-01 -0.18342601547E-01  0.70071931738E-01  0.51100000000E-03 0.  1.
         11    1    4    4    0    0  0.43922641435E-01 -0.39925991388E-01  0.42546679560E-03  0.59360975076E-01  0.51100000000E-03 0. -1.
</event>
<event>
 8    1  0.9956970E+004  0.1043930E+01  0.7957747E-01            NaN
         13   -1    0    0    0    0  0.00000000000E+00  0.00000000000E+00  0.74505805969E-08  0.10566000000E+00  0.10566000000E+00 0. -1.
     999900   -1    0    0    0    0 -0.00000000000E+00 -0.00000000000E+00 -0.74505805969E-08  0.93827000000E+00  0.93827000000E+00 0.  1.
     999902    2    1    2    0    0  0.16722517228E-01 -0.10994640921E-01  0.11885660424E-01  0.10206535390E+01  0.10203880895E+01 0.  0.
     999903    2    3    3    0    0 -0.47591636341E-02  0.97744322475E-01  0.84389145123E-01  0.13074209396E+00  0.19883790004E-01 0.  0.
         14    1    1    2    0    0 -0.16722517228E-01  0.10994640921E-01 -0.11885660424E-01  0.23276460967E-01  0.00000000000E+00 0.  1.
     999901    1    3    3    0    0  0.21481680863E-01 -0.10873896340E+00 -0.72503484699E-01  0.88991144507E+00  0.88000000000E+00 0.  1.
        -11    1    4    4    0    0  0.36471842171E-03  0.67978028180E-02  0.39899542965E-03  0.68383814630E-02  0.51100000000E-03 0.  1.
         11    1    4    4    0    0 -0.51238820558E-02  0.90946519656E-01  0.83990149693E-01  0.12390371250E+00  0.51100000000E-03 0. -1.
</event>
<event>
 8    1  0.9956970E+004  0.1043930E+01  0.7957747E-01            NaN
         13   -1    0    0    0    0  0.00000000000E+00  0.00000000000E+00  0.74505805969E-08  0.10566000000E+00  0.10566000000E+00 0.  1.
     999900   -1    0    0    0    0 -0.00000000000E+00 -0.00000000000E+00 -0.74505805969E-08  0.93827000000E+00  0.93827000000E+00 0. -1.
     999902    2    1    2    0    0 -0.74094504950E-02 -0.19164612975E-01  0.11807658759E-01  0.10202318323E+01  0.10199565621E+01 0.  0.
     999903    2    3    3    0    0  0.48239585580E-01  0.33975683968E-01 -0.11210038412E+00  0.12822627768E+00  0.19851384093E-01 0.  0.
         14    1    1    2    0    0  0.74094504950E-02  0.19164612975E-01 -0.11807658759E-01  0.23698167703E-01  0.00000000000E+00 0. -1.
     999901    1    3    3    0    0 -0.55649036075E-01 -0.53140296943E-01  0.12390804288E+00  0.89200555462E+00  0.88000000000E+00 0.  1.
        -11    1    4    4    0    0  0.33823419623E-01  0.28059283275E-01 -0.63808550878E-01  0.77479928879E-01  0.51100000000E-03 0.  1.
         11    1    4    4    0    0  0.14416165957E-01  0.59164006935E-02 -0.48291833240E-01  0.50746348802E-01  0.51100000000E-03 0. -1.
</event>
<event>
 8    1  0.9956970E+004  0.1043930E+01  0.7957747E-01            NaN
         13   -1    0    0    0    0  0.00000000000E+00  0.00000000000E+00  0.74505805969E-08  0.10566000000E+00  0.10566000000E+00 0. -1.
     999900   -1    0    0    0    0 -0.00000000000E+00 -0.00000000000E+00 -0.74505805969E-08  0.93827000000E+00  0.93827000000E+00 0.  1.
     999902    2    1    2    0    0 -0.20271586224E-01  0.10734026525E-01 -0.53933747399E-02  0.10203663622E+01  0.10200942447E+01 0.  0.
     999903    2    3    3    0    0 -0.11946908173E+00  0.38966881504E-01  0.39225761494E-01  0.13322031759E+00  0.20438035860E-01 0.  0.
         14    1    1    2    0    0  0.20271586224E-01 -0.10734026525E-01  0.53933747399E-02  0.23563637761E-01  0.00000000000E+00 0.  1.
     999901    1    3    3    0    0  0.99197495510E-01 -0.28232854979E-01 -0.44619136234E-01  0.88714604465E+00  0.88000000000E+00 0.  1.
        -11    1    4    4    0    0 -0.26937790488E-01  0.18020829645E-01  0.87994181332E-02  0.33586987629E-01  0.51100000000E-03 0.  1.
         11    1    4    4    0    0 -0.92531291246E-01  0.20946051858E-01  0.30426343361E-01  0.99633329962E-01  0.51100000000E-03 0. -1.
</event>
<event>
 8    1  0.9956970E+004  0.1043930E+01  0.7957747E-01            NaN
         13   -1    0    0    0    0  0.00000000000E+00  0.00000000000E+00  0.74505805969E-08  0.10566000000E+00  0.10566000000E+00 0. -1.
     999900   -1    0    0    0    0 -0.00000000000E+00 -0.00000000000E+00 -0.74505805969E-08  0.93827000000E+00  0.93827000000E+00 0. -1.
     999902    2    1    2    0    0 -0.18422932197E-01  0.91300498507E-02 -0.19874762589E-01  0.10153333493E+01  0.10149305601E+01 0.  0.
     999903    2    3    3    0    0 -0.10300197175E+00  0.55816562443E-01  0.46224956529E-01  0.12758202309E+00  0.20384581997E-01 0.  0.
         14    1    1    2    0    0  0.18422932197E-01 -0.91300498507E-02  0.19874762589E-01  0.28596650661E-01  0.00000000000E+00 0. -1.
     999901    1    3    3    0    0  0.84579039549E-01 -0.46686512593E-01 -0.66099719118E-01  0.88775132625E+00  0.88000000000E+00 0. -1.
        -11    1    4    4    0    0 -0.34719038008E-01  0.97639952801E-02  0.19431049227E-01  0.40970403941E-01  0.51100000000E-03 0.  1.
         11    1    4    4    0    0 -0.68282933739E-01  0.46052567163E-01  0.26793907302E-01  0.86611619150E-01  0.51100000000E-03 0. -1.
</event>
<event>
 8    1  0.9956970E+004  0.1043930E+01  0.7957747E-01            NaN
         13   -1    0    0    0    0  0.00000000000E+00  0.00000000000E+00  0.74505805969E-08  0.10566000000E+00  0.10566000000E+00 0. -1.
     999900   -1    0    0    0    0 -0.00000000000E+00 -0.00000000000E+00 -0.74505805969E-08  0.93827000000E+00  0.93827000000E+00 0.  1.
     999902    2    1    2    0    0 -0.13514646732E-01  0.14980633532E-01  0.12405853495E-01  0.10202451893E+01  0.10199702329E+01 0.  0.
     999903    2    3    3    0    0 -0.91075124971E-01  0.40885716637E-01  0.86146406035E-01  0.13338309730E+00  0.20087985477E-01 0.  0.
         14    1    1    2    0    0  0.13514646732E-01 -0.14980633532E-01 -0.12405853495E-01  0.23684810708E-01  0.00000000000E+00 0.  1.
     999901    1    3    3    0    0  0.77560478238E-01 -0.25905083104E-01 -0.73740552540E-01  0.88686209199E+00  0.88000000000E+00 0.  1.
        -11    1    4    4    0    0 -0.36073402640E-01  0.24163129522E-01  0.28311834581E-01  0.51835975005E-01  0.51100000000E-03 0. -1.
         11    1    4    4    0    0 -0.55001722330E-01  0.16722587114E-01  0.57834571454E-01  0.81547122300E-01  0.51100000000E-03 0.  1.
</event>
<event>
 8    1  0.9956970E+004  0.1043930E+01  0.7957747E-01            NaN
         13   -1    0    0    0    0  0.00000000000E+00  0.00000000000E+00  0.74505805969E-08  0.10566000000E+00  0.10566000000E+00 0.  1.
     999900   -1    0    0    0    0 -0.00000000000E+00 -0.00000000000E+00 -0.74505805969E-08  0.93827000000E+00  0.93827000000E+00 0.  1.
     999902    2    1    2    0    0  0.82987806967E-02 -0.18937328294E-01  0.11550161114E-01  0.10202467066E+01  0.10199717859E+01 0.  0.
     999903    2    3    3    0    0  0.89385078570E-01  0.83169023874E-01 -0.37106756501E-01  0.12931001386E+00  0.20913859134E-01 0.  0.
         14    1    1    2    0    0 -0.82987806967E-02  0.18937328294E-01 -0.11550161114E-01  0.23683293388E-01  0.00000000000E+00 0. -1.
     999901    1    3    3    0    0 -0.81086297873E-01 -0.10210635217E+00  0.48656917615E-01  0.89093669275E+00  0.88000000000E+00 0.  1.
        -11    1    4    4    0    0  0.31309097189E-01  0.25104354904E-01 -0.25646594651E-02  0.40216001804E-01  0.51100000000E-03 0. -1.
         11    1    4    4    0    0  0.58075981381E-01  0.58064668971E-01 -0.34542097036E-01  0.89094012059E-01  0.51100000000E-03 0.  1.
</event>
<event>
 8    1  0.9956970E+004  0.1043930E+01  0.7957747E-01            NaN
         13   -1    0    0    0    0  0.00000000000E+00  0.00000000000E+00  0.74505805969E-08  0.10566000000E+00  0.10566000000E+00 0.  1.
     999900   -1    0    0    0    0 -0.00000000000E+00 -0.00000000000E+00 -0.74505805969E-08  0.93827000000E+00  0.93827000000E+00 0.  1.
     999902    2    1    2    0    0  0.11998143526E-01 -0.14335860041E-01  0.13794572480E-01  0.10206972094E+01  0.10204327663E+01 0.  0.
     999903    2    3    3    0    0  0.31639216391E-01 -0.84988582073E-01 -0.92734225213E-01  0.13124458914E+00  0.20035133030E-01 0.  0.
         14    1    1    2    0    0 -0.11998143526E-01  0.14335860041E-01 -0.13794572480E-01  0.23232790644E-01  0.00000000000E+00 0. -1.
     999901    1    3    3    0    0 -0.19641072864E-01  0.70652722032E-01  0.10652879769E+00  0.88945262022E+00  0.88000000000E+00 0. -1.
        -11    1    4    4    0    0  0.16989789710E-02 -0.23326208110E-01 -0.32149923486E-01  0.39760246672E-01  0.51100000000E-03 0. -1.
         11    1    4    4    0    0  0.29940237420E-01 -0.61662373964E-01 -0.60584301727E-01  0.91484342466E-01  0.51100000000E-03 0.  1.
</event>
<event>
 8    1  0.9956970E+004  0.1043930E+01  0.7957747E-01            NaN
         13   -1    0    0    0    0  0.00000000000E+00  0.00000000000E+00  0.74505805969E-08  0.10566000000E+00  0.10566000000E+00 0. -1.
     999900   -1    0    0    0    0 -0.00000000000E+00 -0.00000000000E+00 -0.74505805969E-08  0.93827000000E+00  0.93827000000E+00 0. -1.
     999902    2    1    2    0    0  0.11359069616E-01 -0.16608583928E-01 -0.18051925091E-01  0.10168976948E+01  0.10165383299E+01 0.  0.
     999903    2    3    3    0    0 -0.48097918097E-01  0.72886415125E-01  0.86180829887E-01  0.12425613439E+00  0.19662458073E-01 0.  0.
         14    1    1    2    0    0 -0.11359069616E-01  0.16608583928E-01  0.18051925091E-01  0.27032305158E-01  0.00000000000E+00 0.  1.
     999901    1    3    3    0    0  0.59456987713E-01 -0.89494999054E-01 -0.10423275498E+00  0.89264156046E+00  0.88000000000E+00 0. -1.
        -11    1    4    4    0    0 -0.25727187726E-01  0.22459624521E-01  0.29079620984E-01  0.44857645942E-01  0.51100000000E-03 0.  1.
         11    1    4    4    0    0 -0.22370730371E-01  0.50426790604E-01  0.57101208903E-01  0.79398488444E-01  0.51100000000E-03 0. -1.
</event>
<event>
 8    1  0.9956970E+004  0.1043930E+01  0.7957747E-01            NaN
         13   -1    0    0    0    0  0.00000000000E+00  0.00000000000E+00  0.74505805969E-08  0.10566000000E+00  0.10566000000E+00 0. -1.
     999900   -1    0    0    0    0 -0.00000000000E+00 -0.00000000000E+00 -0.74505805969E-08  0.93827000000E+00  0.93827000000E+00 0. -1.
     999902    2    1    2    0    0  0.44365181014E-02 -0.13379842355E-01 -0.20031651973E-01  0.10194357159E+01  0.10191414077E+01 0.  0.
     999903    2    3    3    0    0 -0.30837113020E-01  0.77873028771E-02 -0.12658765978E+00  0.13205391535E+00  0.20055705527E-01 0.  0.
         14    1    1    2    0    0 -0.44365181014E-02  0.13379842355E-01  0.20031651973E-01  0.24494284131E-01  0.00000000000E+00 0. -1.
     999901    1    3    3    0    0  0.35273631122E-01 -0.21167145232E-01  0.10655600781E+00  0.88738180052E+00  0.88000000000E+00 0.  1.
        -11    1    4    4    0    0 -0.33760858171E-01  0.76772598514E-02 -0.11606279614E+00  0.12111799880E+00  0.51100000000E-03 0.  1.
         11    1    4    4    0    0  0.29237451510E-02  0.11004302568E-03 -0.10524863643E-01  0.10935916555E-01  0.51100000000E-03 0. -1.
</event>
<event>
 8    1  0.9956970E+004  0.1043930E+01  0.7957747E-01            NaN
         13   -1    0    0    0    0  0.00000000000E+00  0.00000000000E+00  0.74505805969E-08  0.10566000000E+00  0.10566000000E+00 0.  1.
     999900   -1    0    0    0    0 -0.00000000000E+00 -0.00000000000E+00 -0.74505805969E-08  0.93827000000E+00  0.93827000000E+00 0.  1.
     999902    2    1    2    0    0  0.83155288277E-02 -0.12091913360E-01  0.18653417121E-01  0.10201957977E+01  0.10199196798E+01 0.  0.
     999903    2    3    3    0    0  0.71165909256E-01 -0.92327231040E-01 -0.56535311788E-01  0.13112818414E+00  0.20234993611E-01 0.  0.
         14    1    1    2    0    0 -0.83155288277E-02  0.12091913360E-01 -0.18653417121E-01  0.23734202297E-01  0.00000000000E+00 0. -1.
     999901    1    3    3    0    0 -0.62850380428E-01  0.80235317679E-01  0.75188728909E-01  0.88906761356E+00  0.88000000000E+00 0.  1.
        -11    1    4    4    0    0  0.25246233749E-01 -0.18366107864E-01 -0.16282955021E-01  0.35214797768E-01  0.51100000000E-03 0. -1.
         11    1    4    4    0    0  0.45919675507E-01 -0.73961123175E-01 -0.40252356767E-01  0.95913386377E-01  0.51100000000E-03 0.  1.
</event>
<event>
 8    1  0.9956970E+004  0.1043930E+01  0.7957747E-01            NaN
         13   -1    0    0    0    0  0.00000000000E+00  0.00000000000E+00  0.74505805969E-08  0.10566000000E+00  0.10566000000E+00 0.  1.
     999900   -1    0    0    0    0 -0.00000000000E+00 -0.00000000000E+00 -0.74505805969E-08  0.93827000000E+00  0.93827000000E+00 0. -1.
     999902    2    1    2    0    0  0.74697993902E-02  0.42154274200E-02 -0.21932330276E-01  0.10203801626E+01  0.10201083674E+01 0.  0.
     999903    2    3    3    0    0  0.12308171074E-01  0.85466125592E-01  0.93688318568E-01  0.12909276772E+00  0.20772384136E-01 0.  0.
         14    1    1    2    0    0 -0.74697993902E-02 -0.42154274200E-02  0.21932330276E-01  0.23549837422E-01  0.00000000000E+00 0.  1.
     999901    1    3    3    0    0 -0.48383716833E-02 -0.81250698172E-01 -0.11562064884E+00  0.89128739486E+00  0.88000000000E+00 0. -1.
        -11    1    4    4    0    0  0.10815934025E-02  0.26007625031E-01  0.15775020473E-01  0.30441399377E-01  0.51100000000E-03 0.  1.
         11    1    4    4    0    0  0.11226577671E-01  0.59458500561E-01  0.77913298094E-01  0.98651368344E-01  0.51100000000E-03 0. -1.
</event>
<event>
 8    1  0.9956970E+004  0.1043930E+01  0.7957747E-01            NaN
         13   -1    0    0    0    0  0.00000000000E+00  0.00000000000E+00  0.74505805969E-08  0.10566000000E+00  0.10566000000E+00 0. -1.
     999900   -1    0    0    0    0 -0.00000000000E+00 -0.00000000000E+00 -0.74505805969E-08  0.93827000000E+00  0.93827000000E+00 0. -1.
     999902    2    1    2    0    0 -0.82431604282E-02 -0.14126029004E-01 -0.16244814513E-01  0.10208781370E+01  0.10206178434E+01 0.  0.
     999903    2    3    3    0    0  0.10145983667E+00  0.24200555842E-01 -0.76985168489E-01  0.13116297737E+00  0.19931008613E-01 0.  0.
         14    1    1    2    0    0  0.82431604282E-02  0.14126029004E-01  0.16244814513E-01  0.23051863002E-01  0.00000000000E+00 0. -1.
     999901    1    3    3    0    0 -0.10970299710E+00 -0.38326584846E-01  0.60740353976E-01  0.88971515963E+00  0.88000000000E+00 0.  1.
        -11    1    4    4    0    0  0.56567429645E-01  0.40239949502E-02 -0.45775071200E-01  0.72881306906E-01  0.51100000000E-03 0. -1.
         11    1    4    4    0    0  0.44892407024E-01  0.20176560891E-01 -0.31210097289E-01  0.58281670460E-01  0.51100000000E-03 0.  1.
</event>
<event>
 8    1  0.9956970E+004  0.1043930E+01  0.7957747E-01            NaN
         13   -1    0    0    0    0  0.00000000000E+00  0.00000000000E+00  0.74505805969E-08  0.10566000000E+00  0.10566000000E+00 0. -1.
     999900   -1    0    0    0    0 -0.00000000000E+00 -0.00000000000E+00 -0.74505805969E-08  0.93827000000E+00  0.93827000000E+00 0. -1.
     999902    2    1    2    0    0  0.19977122818E-01 -0.26806451491E-02 -0.20421175412E-02  0.10236706432E+01  0.10234701482E+01 0.  0.
     999903    2    3    3    0    0 -0.95980585329E-01 -0.72959231983E-01 -0.49818446745E-01  0.13200487201E+00  0.20201146199E-01 0.  0.
         14    1    1    2    0    0 -0.19977122818E-01  0.26806451491E-02  0.20421175412E-02  0.20259356815E-01  0.00000000000E+00 0. -1.
     999901    1    3    3    0    0  0.11595770815E+00  0.70278586834E-01  0.47776329204E-01  0.89166577117E+00  0.88000000000E+00 0.  1.
        -11    1    4    4    0    0 -0.38297969902E-01 -0.30404328706E-01 -0.96861966607E-02  0.49852193827E-01  0.51100000000E-03 0. -1.
         11    1    4    4    0    0 -0.57682615427E-01 -0.42554903278E-01 -0.40132250084E-01  0.82152678187E-01  0.51100000000E-03 0.  1.
</event>
<event>
 8    1  0.9956970E+004  0.1043930E+01  0.7957747E-01            NaN
         13   -1    0    0    0    0  0.00000000000E+00  0.00000000000E+00  0.74505805969E-08  0.10566000000E+00  0.10566000000E+00 0. -1.
     999900   -1    0    0    0    0 -0.00000000000E+00 -0.00000000000E+00 -0.74505805969E-08  0.93827000000E+00  0.93827000000E+00 0. -1.
     999902    2    1    2    0    0 -0.15573454266E-02  0.23542072758E-01 -0.60216187031E-02  0.10195801662E+01  0.10192893607E+01 0.  0.
     999903    2    3    3    0    0  0.88663093728E-02  0.10403241061E+00 -0.79633727886E-01  0.13278476156E+00  0.19720760295E-01 0.  0.
         14    1    1    2    0    0  0.15573454266E-02 -0.23542072758E-01  0.60216187031E-02  0.24349833805E-01  0.00000000000E+00 0. -1.
     999901    1    3    3    0    0 -0.10423654799E-01 -0.80490337849E-01  0.73612109182E-01  0.88679540464E+00  0.88000000000E+00 0.  1.
        -11    1    4    4    0    0  0.94280782155E-02  0.35270046991E-01 -0.19282177415E-01  0.41290778152E-01  0.51100000000E-03 0. -1.
         11    1    4    4    0    0 -0.56176884264E-03  0.68762363616E-01 -0.60351550471E-01  0.91493983406E-01  0.51100000000E-03 0.  1.
</event>
<event>
 8    1  0.9956970E+004  0.1043930E+01  0.7957747E-01            NaN
         13   -1    0    0    0    0  0.00000000000E+00  0.00000000000E+00  0.74505805969E-08  0.10566000000E+00  0.10566000000E+00 0. -1.
     999900   -1    0    0    0    0 -0.00000000000E+00 -0.00000000000E+00 -0.74505805969E-08  0.93827000000E+00  0.93827000000E+00 0.  1.
     999902    2    1    2    0    0 -0.15969617783E-01 -0.16862871377E-01 -0.22724650107E-03  0.10207042220E+01  0.10204399404E+01 0.  0.
     999903    2    3    3    0    0  0.12332969900E+00 -0.31452836649E-01 -0.12606613196E-01  0.12954182632E+00  0.20558756816E-01 0.  0.
         14    1    1    2    0    0  0.15969617783E-01  0.16862871377E-01  0.22724650107E-03  0.23225778010E-01  0.00000000000E+00 0. -1.
     999901    1    3    3    0    0 -0.13929931678E+00  0.14589965272E-01  0.12379366695E-01  0.89116239567E+00  0.88000000000E+00 0. -1.
        -11    1    4    4    0    0  0.94149619578E-01 -0.15046525879E-01 -0.70734788287E-02  0.95607761356E-01  0.51100000000E-03 0.  1.
         11    1    4    4    0    0  0.29180079417E-01 -0.16406310771E-01 -0.55331343671E-02  0.33934064962E-01  0.51100000000E-03 0. -1.
</event>
<event>
 8    1  0.9956970E+004  0.1043930E+01  0.7957747E-01            NaN
         13   -1    0    0    0    0  0.00000000000E+00  0.00000000000E+00  0.74505805969E-08  0.10566000000E+00  0.10566000000E+00 0. -1.
     999900   -1    0    0    0    0 -0.00000000000E+00 -0.00000000000E+00 -0.74505805969E-08  0.93827000000E+00  0.93827000000E+00 0.  1.
     999902    2    1    2    0    0  0.32251528044E-02 -0.61840312023E-02 -0.21898866221E-01  0.10209473066E+01  0.10206885905E+01 0.  0.
     999903    2    3    3    0    0 -0.94219046578E-01 -0.97365358395E-02  0.85550060337E-01  0.12906543996E+00  0.19158447242E-01 0.  0.
         14    1    1    2    0    0 -0.32251528044E-02  0.61840312023E-02  0.21898866221E-01  0.22982693364E-01  0.00000000000E+00 0. -1.
     999901    1    3    3    0    0  0.97444199382E-01  0.35525046373E-02 -0.10744892656E+00  0.89188186667E+00  0.88000000000E+00 0.  1.
        -11    1    4    4    0    0 -0.65048090421E-01 -0.13987973721E-01  0.65802103223E-01  0.93579353417E-01  0.51100000000E-03 0.  1.
         11    1    4    4    0    0 -0.29170956157E-01  0.42514378812E-02  0.19747957114E-01  0.35486086546E-01  0.51100000000E-03 0. -1.
</event>
<event>
 8    1  0.9956970E+004  0.1043930E+01  0.7957747E-01            NaN
         13   -1    0    0    0    0  0.00000000000E+00  0.00000000000E+00  0.74505805969E-08  0.10566000000E+00  0.10566000000E+00 0. -1.
     999900   -1    0    0    0    0 -0.00000000000E+00 -0.00000000000E+00 -0.74505805969E-08  0.93827000000E+00  0.93827000000E+00 0. -1.
     999902    2    1    2    0    0  0.14846357036E-01  0.12253561821E-01  0.11743543543E-01  0.10213806118E+01  0.10211316659E+01 0.  0.
     999903    2    3    3    0    0  0.86494043402E-01 -0.86377349497E-01  0.47153578745E-01  0.13227132815E+00  0.18165302416E-01 0.  0.
         14    1    1    2    0    0 -0.14846357036E-01 -0.12253561821E-01 -0.11743543543E-01  0.22549388229E-01  0.00000000000E+00 0.  1.
     999901    1    3    3    0    0 -0.71647686366E-01  0.98630911318E-01 -0.35410035201E-01  0.88910928362E+00  0.88000000000E+00 0. -1.
        -11    1    4    4    0    0  0.14681656811E-01 -0.12155170196E-01  0.84223623298E-03  0.19085850572E-01  0.51100000000E-03 0. -1.
         11    1    4    4    0    0  0.71812386591E-01 -0.74222179301E-01  0.46311342512E-01  0.11318547758E+00  0.51100000000E-03 0.  1.
</event>
<event>
 8    1  0.9956970E+004  0.1043930E+01  0.7957747E-01            NaN
         13   -1    0    0    0    0  0.00000000000E+00  0.00000000000E+00  0.74505805969E-08  0.10566000000E+00  0.10566000000E+00 0. -1.
     999900   -1    0    0    0    0 -0.00000000000E+00 -0.00000000000E+00 -0.74505805969E-08  0.93827000000E+00  0.93827000000E+00 0. -1.
     999902    2    1    2    0    0  0.15724644587E-01  0.22573964028E-01  0.14956311492E-01  0.10126164318E+01  0.10121321546E+01 0.  0.
     999903    2    3    3    0    0  0.49664669352E-01 -0.10005909142E+00 -0.43251034914E-01  0.12156150267E+00  0.20691683172E-01 0.  0.
         14    1    1    2    0    0 -0.15724644587E-01 -0.22573964028E-01 -0.14956311492E-01  0.31313568190E-01  0.00000000000E+00 0.  1.
     999901    1    3    3    0    0 -0.33940024765E-01  0.12263305545E+00  0.58207346407E-01  0.89105492914E+00  0.88000000000E+00 0.  1.
        -11    1    4    4    0    0  0.32545315797E-01 -0.58940711010E-01 -0.15535568697E-01  0.69100072434E-01  0.51100000000E-03 0.  1.
         11    1    4    4    0    0  0.17119353555E-01 -0.41118380411E-01 -0.27715466218E-01  0.52461430236E-01  0.51100000000E-03 0. -1.
</event>
<event>
 8    1  0.9956970E+004  0.1043930E+01  0.7957747E-01            NaN
         13   -1    0    0    0    0  0.00000000000E+00  0.00000000000E+00  0.74505805969E-08  0.10566000000E+00  0.10566000000E+00 0.  1.
     999900   -1    0    0    0    0 -0.00000000000E+00 -0.00000000000E+00 -0.74505805969E-08  0.93827000000E+00  0.93827000000E+00 0. -1.
     999902    2    1    2    0    0  0.76563108902E-02 -0.19329291585E-01 -0.10130449587E-01  0.10208028165E+01  0.10205407995E+01 0.  0.
     999903    2    3    3    0    0 -0.12187316263E+00  0.38269488470E-01  0.52892451131E-02  0.12932467822E+00  0.19474977954E-01 0.  0.
         14    1    1    2    0    0 -0.76563108902E-02  0.19329291585E-01  0.10130449587E-01  0.23127183540E-01  0.00000000000E+00 0.  1.
     999901    1    3    3    0    0  0.12952947352E+00 -0.57598780055E-01 -0.15419694700E-01  0.89147813824E+00  0.88000000000E+00 0.  1.
        -11    1    4    4    0    0 -0.73406141529E-01  0.32560610967E-01  0.74240003705E-03  0.80308575380E-01  0.51100000000E-03 0.  1.
         11    1    4    4    0    0 -0.48467021099E-01  0.57088775031E-02  0.45468450761E-02  0.49016102841E-01  0.51100000000E-03 0. -1.
</event>
<event>
 8    1  0.9956970E+004  0.1043930E+01  0.7957747E-01            NaN
         13   -1    0    0    0    0  0.00000000000E+00  0.00000000000E+00  0.74505805969E-08  0.10566000000E+00  0.10566000000E+00 0.  1.
     999900   -1    0    0    0    0 -0.00000000000E+00 -0.00000000000E+00 -0.74505805969E-08  0.93827000000E+00  0.93827000000E+00 0.  1.
     999902    2    1    2    0    0 -0.94943221645E-03  0.26105775087E-01  0.12296201898E-02  0.10177780425E+01  0.10174419978E+01 0.  0.
     999903    2    3    3    0    0 -0.47043527495E-01 -0.11213936226E+00  0.23154291356E-01  0.12552411295E+00  0.20781041251E-01 0.  0.
         14    1    1    2    0    0  0.94943221645E-03 -0.26105775087E-01 -0.12296201898E-02  0.26151957484E-01  0.00000000000E+00 0. -1.
     999901    1    3    3    0    0  0.46094095278E-01  0.13824513735E+00 -0.21924671166E-01  0.89225392957E+00  0.88000000000E+00 0. -1.
        -11    1    4    4    0    0 -0.14344242897E-02 -0.88173837988E-02  0.71503355911E-02  0.11453918551E-01  0.51100000000E-03 0.  1.
         11    1    4    4    0    0 -0.45609103205E-01 -0.10332197847E+00  0.16003955765E-01  0.11407019440E+00  0.51100000000E-03 0. -1.
</event>
<event>
 8    1  0.9956970E+004  0.1043930E+01  0.7957747E-01            NaN
         13   -1    0    0    0    0  0.00000000000E+00  0.00000000000E+00  0.74505805969E-08  0.10566000000E+00  0.10566000000E+00 0. -1.
     999900   -1    0    0    0    0 -0.00000000000E+00 -0.00000000000E+00 -0.74505805969E-08  0.93827000000E+00  0.93827000000E+00 0.  1.
     999902    2    1    2    0    0 -0.20338607175E-01 -0.10053023171E-01 -0.74549465497E-02  0.10200490778E+01  0.10197694949E+01 0.  0.
     999903    2    3    3    0    0 -0.60536241945E-01  0.22852906658E-01  0.11159079080E+00  0.13051518995E+00  0.19870034883E-01 0.  0.
         14    1    1    2    0    0  0.20338607175E-01  0.10053023171E-01  0.74549465497E-02  0.23880922192E-01  0.00000000000E+00 0.  1.
     999901    1    3    3    0    0  0.40197634770E-01 -0.32905929829E-01 -0.11904573735E+00  0.88953388785E+00  0.88000000000E+00 0.  1.
        -11    1    4    4    0    0 -0.43450235021E-01  0.12189196628E-01  0.59613692762E-01  0.74770000158E-01  0.51100000000E-03 0.  1.
         11    1    4    4    0    0 -0.17086006924E-01  0.10663710030E-01  0.51977098036E-01  0.55745189796E-01  0.51100000000E-03 0. -1.
</event>
<event>
 8    1  0.9956970E+004  0.1043930E+01  0.7957747E-01            NaN
         13   -1    0    0    0    0  0.00000000000E+00  0.00000000000E+00  0.74505805969E-08  0.10566000000E+00  0.10566000000E+00 0.  1.
     999900   -1    0    0    0    0 -0.00000000000E+00 -0.00000000000E+00 -0.74505805969E-08  0.93827000000E+00  0.93827000000E+00 0. -1.
     999902    2    1    2    0    0  0.52401215109E-02 -0.20599602372E-01  0.15386020732E-01  0.10176901043E+01  0.10173517663E+01 0.  0.
     999903    2    3    3    0    0  0.83647589464E-01  0.22633690126E-01 -0.91360828159E-01  0.12672897253E+00  0.14290850394E-01 0.  0.
         14    1    1    2    0    0 -0.52401215109E-02  0.20599602372E-01 -0.15386020732E-01  0.26239895680E-01  0.00000000000E+00 0. -1.
     999901    1    3    3    0    0 -0.78407467953E-01 -0.43233292498E-01  0.10674684889E+00  0.89096113179E+00  0.88000000000E+00 0.  1.
        -11    1    4    4    0    0  0.52952891166E-01  0.95981174143E-02 -0.48728210692E-01  0.72600497099E-01  0.51100000000E-03 0. -1.
         11    1    4    4    0    0  0.30694698298E-01  0.13035572712E-01 -0.42632617467E-01  0.54128475432E-01  0.51100000000E-03 0.  1.
</event>
<event>
 8    1  0.9956970E+004  0.1043930E+01  0.7957747E-01            NaN
         13   -1    0    0    0    0  0.00000000000E+00  0.00000000000E+00  0.74505805969E-08  0.10566000000E+00  0.10566000000E+00 0. -1.
     999900   -1    0    0    0    0 -0.00000000000E+00 -0.00000000000E+00 -0.74505805969E-08  0.93827000000E+00  0.93827000000E+00 0. -1.
     999902    2    1    2    0    0 -0.91804598132E-02  0.16114000594E-01  0.12512966871E-01  0.10215577807E+01  0.10213127744E+01 0.  0.
     999903    2    3    3    0    0  0.36158358947E-01 -0.12276997887E+00 -0.18246928041E-02  0.12939751664E+00  0.18986657803E-01 0.  0.
         14    1    1    2    0    0  0.91804598132E-02 -0.16114000594E-01 -0.12512966871E-01  0.22372219324E-01  0.00000000000E+00 0. -1.
     999901    1    3    3    0    0 -0.45338818760E-01  0.13888397947E+00  0.14337659675E-01  0.89216026404E+00  0.88000000000E+00 0.  1.
        -11    1    4    4    0    0  0.78059269304E-02 -0.50882885637E-01  0.54979639016E-02  0.51773441783E-01  0.51100000000E-03 0.  1.
         11    1    4    4    0    0  0.28352432017E-01 -0.71887093237E-01 -0.73226567056E-02  0.77624074858E-01  0.51100000000E-03 0. -1.
</event>
<event>
 8    1  0.9956970E+004  0.1043930E+01  0.7957747E-01            NaN
         13   -1    0    0    0    0  0.00000000000E+00  0.00000000000E+00  0.74505805969E-08  0.10566000000E+00  0.10566000000E+00 0. -1.
     999900   -1    0    0    0    0 -0.00000000000E+00 -0.00000000000E+00 -0.74505805969E-08  0.93827000000E+00  0.93827000000E+00 0. -1.
     999902    2    1    2    0    0 -0.16010675657E-01  0.17933507597E-01 -0.87088191249E-02  0.10183605659E+01  0.10180395111E+01 0.  0.
     999903    2    3    3    0    0  0.95891476834E-01  0.63601907920E-01  0.52464143775E-01  0.12799557001E+00  0.19748456614E-01 0.  0.
         14    1    1    2    0    0  0.16010675657E-01 -0.17933507597E-01  0.87088191249E-02  0.25569434101E-01  0.00000000000E+00 0.  1.
     999901    1    3    3    0    0 -0.11190215249E+00 -0.45668400323E-01 -0.61172962900E-01  0.89036499589E+00  0.88000000000E+00 0. -1.
        -11    1    4    4    0    0  0.19596664652E-01  0.21140644989E-01  0.75405515717E-02  0.29800623736E-01  0.51100000000E-03 0. -1.
         11    1    4    4    0    0  0.76294812182E-01  0.42461262932E-01  0.44923592204E-01  0.98194946271E-01  0.51100000000E-03 0.  1.
</event>
<event>
 8    1  0.9956970E+004  0.1043930E+01  0.7957747E-01            NaN
         13   -1    0    0    0    0  0.00000000000E+00  0.00000000000E+00  0.74505805969E-08  0.10566000000E+00  0.10566000000E+00 0.  1.
     999900   -1    0    0    0    0 -0.00000000000E+00 -0.00000000000E+00 -0.74505805969E-08  0.93827000000E+00  0.93827000000E+00 0. -1.
     999902    2    1    2    0    0 -0.49522858673E-02 -0.18148254989E-01 -0.19951589375E-01  0.10165082894E+01  0.10161383529E+01 0.  0.
     999903    2    3    3    0    0  0.62541131358E-01  0.25384013340E-01 -0.10732890790E+00  0.12854138936E+00  0.21157813270E-01 0.  0.
         14    1    1    2    0    0  0.49522858673E-02  0.18148254989E-01  0.19951589375E-01  0.27421710615E-01  0.00000000000E+00 0.  1.
     999901    1    3    3    0    0 -0.67493417226E-01 -0.43532268329E-01  0.87377318522E-01  0.88796690003E+00  0.88000000000E+00 0.  1.
        -11    1    4    4    0    0  0.58398571793E-01  0.20812286515E-01 -0.83981704948E-01  0.10438741468E+00  0.51100000000E-03 0. -1.
         11    1    4    4    0    0  0.41425595658E-02  0.45717268255E-02 -0.23347202949E-01  0.24153974673E-01  0.51100000000E-03 0.  1.
</event>
<event>
 8    1  0.9956970E+004  0.1043930E+01  0.7957747E-01            NaN
         13   -1    0    0    0    0  0.00000000000E+00  0.00000000000E+00  0.74505805969E-08  0.10566000000E+00  0.10566000000E+00 0. -1.
     999900   -1    0    0    0    0 -0.00000000000E+00 -0.00000000000E+00 -0.74505805969E-08  0.93827000000E+00  0.93827000000E+00 0. -1.
     999902    2    1    2    0    0  0.89319316900E-02  0.22120809429E-01 -0.13025677034E-02  0.10200384472E+01  0.10197586123E+01 0.  0.
     999903    2    3    3    0    0  0.45807380668E-01  0.12357974858E+00 -0.55505060173E-02  0.13343156696E+00  0.20072482691E-01 0.  0.
         14    1    1    2    0    0 -0.89319316900E-02 -0.22120809429E-01  0.13025677034E-02  0.23891552820E-01  0.00000000000E+00 0. -1.
     999901    1    3    3    0    0 -0.36875448978E-01 -0.10145893915E+00  0.42479383139E-02  0.88660688022E+00  0.88000000000E+00 0.  1.
        -11    1    4    4    0    0  0.35415915010E-01  0.10167173740E+00  0.30249521411E-02  0.10770719882E+00  0.51100000000E-03 0. -1.
         11    1    4    4    0    0  0.10391465658E-01  0.21908011186E-01 -0.85754581584E-02  0.25724368141E-01  0.51100000000E-03 0.  1.
</event>
<event>
 8    1  0.9956970E+004  0.1043930E+01  0.7957747E-01            NaN
         13   -1    0    0    0    0  0.00000000000E+00  0.00000000000E+00  0.74505805969E-08  0.10566000000E+00  0.10566000000E+00 0. -1.
     999900   -1    0    0    0    0 -0.00000000000E+00 -0.00000000000E+00 -0.74505805969E-08  0.93827000000E+00  0.93827000000E+00 0. -1.
     999902    2    1    2    0    0 -0.20706594939E-01  0.10631824673E-01  0.19235755181E-02  0.10205740818E+01  0.10203067958E+01 0.  0.
     999903    2    3    3    0    0 -0.31735361745E-01  0.46342756428E-01 -0.11636352312E+00  0.13187348995E+00  0.26369747414E-01 0.  0.
         14    1    1    2    0    0  0.20706594939E-01 -0.10631824673E-01 -0.19235755181E-02  0.23355918150E-01  0.00000000000E+00 0.  1.
     999901    1    3    3    0    0  0.11028766806E-01 -0.35710931755E-01  0.11828709864E+00  0.88870059190E+00  0.88000000000E+00 0.  1.
        -11    1    4    4    0    0 -0.20308623923E-01  0.31065070516E-01 -0.10023257642E+00  0.10688456067E+00  0.51100000000E-03 0. -1.
         11    1    4    4    0    0 -0.11426737822E-01  0.15277685913E-01 -0.16130946702E-01  0.24988929281E-01  0.51100000000E-03 0.  1.
</event>
<event>
 8    1  0.9956970E+004  0.1043930E+01  0.7957747E-01            NaN
         13   -1    0    0    0    0  0.00000000000E+00  0.00000000000E+00  0.74505805969E-08  0.10566000000E+00  0.10566000000E+00 0.  1.
     999900   -1    0    0    0    0 -0.00000000000E+00 -0.00000000000E+00 -0.74505805969E-08  0.93827000000E+00  0.93827000000E+00 0.  1.
     999902    2    1    2    0    0 -0.18914512531E-02 -0.92162224064E-02  0.22220222764E-01  0.10198000468E+01  0.10195145319E+01 0.  0.
     999903    2    3    3    0    0 -0.29508834693E-01 -0.33812392277E-01  0.12380896169E+00  0.13318402880E+00  0.19881582838E-01 0.  0.
         14    1    1    2    0    0  0.18914512531E-02  0.92162224064E-02 -0.22220222764E-01  0.24129953232E-01  0.00000000000E+00 0. -1.
     999901    1    3    3    0    0  0.27617383440E-01  0.24596169871E-01 -0.10158873893E+00  0.88661601797E+00  0.88000000000E+00 0.  1.
        -11    1    4    4    0    0 -0.18974173518E-01 -0.32603854075E-01  0.85960559026E-01  0.93874966793E-01  0.51100000000E-03 0.  1.
         11    1    4    4    0    0 -0.10534661175E-01 -0.12085382019E-02  0.37848402665E-01  0.39309062008E-01  0.51100000000E-03 0. -1.
</event>
<event>
 8    1  0.9956970E+004  0.1043930E+01  0.7957747E-01            NaN
         13   -1    0    0    0    0  0.00000000000E+00  0.00000000000E+00  0.74505805969E-08  0.10566000000E+00  0.10566000000E+00 0.  1.
     999900   -1    0    0    0    0 -0.00000000000E+00 -0.00000000000E+00 -0.74505805969E-08  0.93827000000E+00  0.93827000000E+00 0. -1.
     999902    2    1    2    0    0 -0.75283506208E-02  0.22245092061E-01 -0.19403567875E-02  0.10203655104E+01  0.10200933730E+01 0.  0.
     999903    2    3    3    0    0  0.14994386436E-01  0.10842317609E+00  0.72279252415E-01  0.13276059481E+00  0.20510203979E-01 0.  0.
         14    1    1    2    0    0  0.75283506208E-02 -0.22245092061E-01  0.19403567875E-02  0.23564489562E-01  0.00000000000E+00 0. -1.
     999901    1    3    3    0    0 -0.22522737057E-01 -0.86178084029E-01 -0.74219609203E-01  0.88760491562E+00  0.88000000000E+00 0.  1.
        -11    1    4    4    0    0  0.83348536134E-02  0.22640912714E-01  0.82290054088E-02  0.25496242160E-01  0.51100000000E-03 0. -1.
         11    1    4    4    0    0  0.66595328224E-02  0.85782263376E-01  0.64050247007E-01  0.10726435265E+00  0.51100000000E-03 0.  1.
</event>
<event>
 8    1  0.9956970E+004  0.1043930E+01  0.7957747E-01            NaN
         13   -1    0    0    0    0  0.00000000000E+00  0.00000000000E+00  0.74505805969E-08  0.10566000000E+00  0.10566000000E+00 0. -1.
     999900   -1    0    0    0    0 -0.00000000000E+00 -0.00000000000E+00 -0.74505805969E-08  0.93827000000E+00  0.93827000000E+00 0. -1.
     999902    2    1    2    0    0  0.46264571408E-02 -0.38934046507E-02 -0.25364155652E-01  0.10178550485E+01  0.10175210055E+01 0.  0.
     999903    2    3    3    0    0 -0.99750146623E-01  0.53251508081E-01  0.53003355529E-01  0.12639473905E+00  0.19505370985E-01 0.  0.
         14    1    1    2    0    0 -0.46264571408E-02  0.38934046507E-02  0.25364155652E-01  0.26074951532E-01  0.00000000000E+00 0. -1.
     999901    1    3    3    0    0  0.10437660376E+00 -0.57144912732E-01 -0.78367511181E-01  0.89146030942E+00  0.88000000000E+00 0. -1.
        -11    1    4    4    0    0 -0.68425240973E-01  0.40179165164E-01  0.27671046067E-01  0.84037651246E-01  0.51100000000E-03 0.  1.
         11    1    4    4    0    0 -0.31324905650E-01  0.13072342917E-01  0.25332309462E-01  0.42357087801E-01  0.51100000000E-03 0. -1.
</event>
<event>
 8    1  0.9956970E+004  0.1043930E+01  0.7957747E-01            NaN
         13   -1    0    0    0    0  0.00000000000E+00  0.00000000000E+00  0.74505805969E-08  0.10566000000E+00  0.10566000000E+00 0. -1.
     999900   -1    0    0    0    0 -0.00000000000E+00 -0.00000000000E+00 -0.74505805969E-08  0.93827000000E+00  0.93827000000E+00 0. -1.
     999902    2    1    2    0    0 -0.97572097144E-02 -0.10966972898E-01  0.18181671116E-01  0.10205622701E+01  0.10202947105E+01 0.  0.
     999903    2    3    3    0    0  0.12049614788E+00  0.11847114345E-01  0.44480892950E-01  0.13029373263E+00  0.18391061766E-01 0.  0.
         14    1    1    2    0    0  0.97572097144E-02  0.10966972898E-01 -0.18181671116E-01  0.23367729897E-01  0.00000000000E+00 0.  1.
     999901    1    3    3    0    0 -0.13025335760E+00 -0.22814087243E-01 -0.26299221834E-01  0.89026853747E+00  0.88000000000E+00 0. -1.
        -11    1    4    4    0    0  0.54736618367E-01  0.33326241085E-02  0.29659750127E-01  0.62347138445E-01  0.51100000000E-03 0. -1.
         11    1    4    4    0    0  0.65759529515E-01  0.85144902366E-02  0.14821142823E-01  0.67946594187E-01  0.51100000000E-03 0.  1.
</event>
<event>
 8    1  0.9956970E+004  0.1043930E+01  0.7957747E-01            NaN
         13   -1    0    0    0    0  0.00000000000E+00  0.00000000000E+00  0.74505805969E-08  0.10566000000E+00  0.10566000000E+00 0. -1.
     999900   -1    0    0    0    0 -0.00000000000E+00 -0.00000000000E+00 -0.74505805969E-08  0.93827000000E+00  0.93827000000E+00 0. -1.
     999902    2    1    2    0    0  0.10298004172E-01 -0.16246416079E-01 -0.14276303363E-01  0.10199757151E+01  0.10196943913E+01 0.  0.
     999903    2    3    3    0    0 -0.11978456660E+00  0.23928489156E-01  0.33646727369E-01  0.12821783595E+00  0.19667135132E-01 0.  0.
         14    1    1    2    0    0 -0.10298004172E-01  0.16246416079E-01  0.14276303363E-01  0.23954284858E-01  0.00000000000E+00 0. -1.
     999901    1    3    3    0    0  0.13008257077E+00 -0.40174905236E-01 -0.47923030732E-01  0.89175787919E+00  0.88000000000E+00 0. -1.
        -11    1    4    4    0    0 -0.44836269486E-01  0.48632746954E-03  0.76057730479E-02  0.45482265560E-01  0.51100000000E-03 0.  1.
         11    1    4    4    0    0 -0.74948297112E-01  0.23442161687E-01  0.26040954321E-01  0.82735570389E-01  0.51100000000E-03 0. -1.
</event>
<event>
 8    1  0.9956970E+004  0.1043930E+01  0.7957747E-01            NaN
         13   -1    0    0    0    0  0.00000000000E+00  0.00000000000E+00  0.74505805969E-08  0.10566000000E+00  0.10566000000E+00 0.  1.
     999900   -1    0    0    0    0 -0.00000000000E+00 -0.00000000000E+00 -0.74505805969E-08  0.93827000000E+00  0.93827000000E+00 0.  1.
     999902    2    1    2    0    0  0.22874755657E-01  0.54533279241E-02  0.12702078284E-03  0.10204138488E+01  0.10201428398E+01 0.  0.
     999903    2    3    3    0    0 -0.63421047096E-01  0.24338699696E-01  0.10834392149E+00  0.12939503845E+00  0.19750167954E-01 0.  0.
         14    1    1    2    0    0 -0.22874755657E-01 -0.54533279241E-02 -0.12702078284E-03  0.23516151175E-01  0.00000000000E+00 0. -1.
     999901    1    3    3    0    0  0.86295802753E-01 -0.18885371772E-01 -0.10821690071E+00  0.89101881037E+00  0.88000000000E+00 0.  1.
        -11    1    4    4    0    0 -0.16707451258E-01  0.36542043497E-02  0.14009207384E-01  0.22113596485E-01  0.51100000000E-03 0.  1.
         11    1    4    4    0    0 -0.46713595838E-01  0.20684495346E-01  0.94334714106E-01  0.10728144197E+00  0.51100000000E-03 0. -1.
</event>
<event>
 8    1  0.9956970E+004  0.1043930E+01  0.7957747E-01            NaN
         13   -1    0    0    0    0  0.00000000000E+00  0.00000000000E+00  0.74505805969E-08  0.10566000000E+00  0.10566000000E+00 0. -1.
     999900   -1    0    0    0    0 -0.00000000000E+00 -0.00000000000E+00 -0.74505805969E-08  0.93827000000E+00  0.93827000000E+00 0.  1.
     999902    2    1    2    0    0 -0.35827022068E-02 -0.28537363541E-02 -0.22451107017E-01  0.10210164282E+01  0.10207592835E+01 0.  0.
     999903    2    3    3    0    0 -0.29631300320E-01  0.11838394214E+00 -0.46333547733E-01  0.13200153793E+00  0.19617254003E-01 0.  0.
         14    1    1    2    0    0  0.35827022068E-02  0.28537363541E-02  0.22451107017E-01  0.22913571798E-01  0.00000000000E+00 0. -1.
     999901    1    3    3    0    0  0.26048598113E-01 -0.12123767850E+00  0.23882440716E-01  0.88901489027E+00  0.88000000000E+00 0. -1.
        -11    1    4    4    0    0 -0.33732501843E-02  0.47774776671E-01 -0.23021250568E-01  0.53141765133E-01  0.51100000000E-03 0.  1.
         11    1    4    4    0    0 -0.26258050136E-01  0.70609165471E-01 -0.23312297166E-01  0.78859772796E-01  0.51100000000E-03 0. -1.
</event>
<event>
 8    1  0.9956970E+004  0.1043930E+01  0.7957747E-01            NaN
         13   -1    0    0    0    0  0.00000000000E+00  0.00000000000E+00  0.74505805969E-08  0.10566000000E+00  0.10566000000E+00 0. -1.
     999900   -1    0    0    0    0 -0.00000000000E+00 -0.00000000000E+00 -0.74505805969E-08  0.93827000000E+00  0.93827000000E+00 0. -1.
     999902    2    1    2    0    0  0.12224026418E-01 -0.15646426433E-01  0.12897054297E-01  0.10202536090E+01  0.10199788503E+01 0.  0.
     999903    2    3    3    0    0  0.83147760118E-01 -0.49237663711E-01 -0.86441613027E-01  0.13119415200E+00  0.20046334234E-01 0.  0.
         14    1    1    2    0    0 -0.12224026418E-01  0.15646426433E-01 -0.12897054297E-01  0.23676391016E-01  0.00000000000E+00 0. -1.
     999901    1    3    3    0    0 -0.70923733700E-01  0.33591237278E-01  0.99338667325E-01  0.88905945698E+00  0.88000000000E+00 0.  1.
        -11    1    4    4    0    0  0.19025656993E-01 -0.46450456050E-02 -0.25331082083E-01  0.32023068454E-01  0.51100000000E-03 0. -1.
         11    1    4    4    0    0  0.64122103125E-01 -0.44592618106E-01 -0.61110530944E-01  0.99171083548E-01  0.51100000000E-03 0.  1.
</event>
<event>
 8    1  0.1339891E+005  0.1043930E+01  0.7957747E-01            NaN
         13   -1    0    0    0    0  0.00000000000E+00  0.00000000000E+00  0.74505805969E-08  0.10566000000E+00  0.10566000000E+00 0.  1.
     999900   -1    0    0    0    0 -0.00000000000E+00 -0.00000000000E+00 -0.74505805969E-08  0.93827000000E+00  0.93827000000E+00 0. -1.
     999902    2    1    2    0    0  0.17207560376E-02  0.11891007257E-01 -0.19057071463E-01  0.10214015951E+01  0.10211531175E+01 0.  0.
     999903    2    3    3    0    0  0.60772126652E-01 -0.11292611841E+00  0.96776322930E-02  0.13017095018E+00  0.20131073179E-01 0.  0.
         14    1    1    2    0    0 -0.17207560376E-02 -0.11891007257E-01  0.19057071463E-01  0.22528404907E-01  0.00000000000E+00 0.  1.
     999901    1    3    3    0    0 -0.59051370614E-01  0.12481712567E+00 -0.28734703756E-01  0.89123064491E+00  0.88000000000E+00 0. -1.
        -11    1    4    4    0    0  0.36439312199E-01 -0.48834189987E-01  0.91146806931E-02  0.61611201176E-01  0.51100000000E-03 0.  1.
         11    1    4    4    0    0  0.24332814453E-01 -0.64091928422E-01  0.56295159993E-03  0.68559749004E-01  0.51100000000E-03 0. -1.
</event>
<event>
 8    1  0.9956970E+004  0.1043930E+01  0.7957747E-01            NaN
         13   -1    0    0    0    0  0.00000000000E+00  0.00000000000E+00  0.74505805969E-08  0.10566000000E+00  0.10566000000E+00 0. -1.
     999900   -1    0    0    0    0 -0.00000000000E+00 -0.00000000000E+00 -0.74505805969E-08  0.93827000000E+00  0.93827000000E+00 0. -1.
     999902    2    1    2    0    0  0.14893883970E-01 -0.20899105012E-01  0.68276114814E-02  0.10173740845E+01  0.10170274387E+01 0.  0.
     999903    2    3    3    0    0 -0.27562997475E-01 -0.87434242846E-01  0.89829571900E-01  0.12995150376E+00  0.20336560451E-01 0.  0.
         14    1    1    2    0    0 -0.14893883970E-01  0.20899105012E-01 -0.68276114814E-02  0.26555915510E-01  0.00000000000E+00 0.  1.
     999901    1    3    3    0    0  0.42456881445E-01  0.66535137834E-01 -0.83001960419E-01  0.88742258073E+00  0.88000000000E+00 0. -1.
        -11    1    4    4    0    0 -0.43267018005E-02 -0.33923422709E-01  0.44192835907E-01  0.55881900676E-01  0.51100000000E-03 0. -1.
         11    1    4    4    0    0 -0.23236295675E-01 -0.53510820137E-01  0.45636735994E-01  0.74069603088E-01  0.51100000000E-03 0.  1.
</event>
<event>
 8    1  0.9956970E+004  0.1043930E+01  0.7957747E-01            NaN
         13   -1    0    0    0    0  0.00000000000E+00  0.00000000000E+00  0.74505805969E-08  0.10566000000E+00  0.10566000000E+00 0.  1.
     999900   -1    0    0    0    0 -0.00000000000E+00 -0.00000000000E+00 -0.74505805969E-08  0.93827000000E+00  0.93827000000E+00 0.  1.
     999902    2    1    2    0    0 -0.22801623182E-01 -0.61165955557E-02 -0.71622605279E-03  0.10203113688E+01  0.10200379647E+01 0.  0.
     999903    2    3    3    0    0 -0.11086544661E+00 -0.55936849582E-01 -0.44813435909E-01  0.13341686625E+00  0.19280502298E-01 0.  0.
         14    1    1    2    0    0  0.22801623182E-01  0.61165955557E-02  0.71622605279E-03  0.23618631220E-01  0.00000000000E+00 0.  1.
     999901    1    3    3    0    0  0.88063823423E-01  0.49820254026E-01  0.44097209856E-01  0.88689450253E+00  0.88000000000E+00 0. -1.
        -11    1    4    4    0    0 -0.25655172713E-01 -0.16829229524E-01 -0.19295040299E-01  0.36248731763E-01  0.51100000000E-03 0.  1.
         11    1    4    4    0    0 -0.85210273892E-01 -0.39107620059E-01 -0.25518395609E-01  0.97168134483E-01  0.51100000000E-03 0. -1.
</event>
<event>
 8    1  0.9956970E+004  0.1043930E+01  0.7957747E-01            NaN
         13   -1    0    0    0    0  0.00000000000E+00  0.00000000000E+00  0.74505805969E-08  0.10566000000E+00  0.10566000000E+00 0.  1.
     999900   -1    0    0    0    0 -0.00000000000E+00 -0.00000000000E+00 -0.74505805969E-08  0.93827000000E+00  0.93827000000E+00 0.  1.
     999902    2    1    2    0    0 -0.15249623078E-01  0.27453482227E-02 -0.17540844440E-01  0.10205255311E+01  0.10202571198E+01 0.  0.
     999903    2    3    3    0    0 -0.15299380397E-01  0.74301671449E-01 -0.10738007929E+00  0.13306206820E+00  0.20499344984E-01 0.  0.
         14    1    1    2    0    0  0.15249623078E-01 -0.27453482227E-02  0.17540844440E-01  0.23404468901E-01  0.00000000000E+00 0. -1.
     999901    1    3    3    0    0  0.49757319057E-04 -0.71556323226E-01  0.89839234846E-01  0.88746346290E+00  0.88000000000E+00 0.  1.
        -11    1    4    4    0    0  0.25547900614E-02  0.26442683665E-01 -0.27457716205E-01  0.38209027361E-01  0.51100000000E-03 0. -1.
         11    1    4    4    0    0 -0.17854170458E-01  0.47858987784E-01 -0.79922363080E-01  0.94853040836E-01  0.51100000000E-03 0.  1.
</event>
<event>
 8    1  0.9956970E+004  0.1043930E+01  0.7957747E-01            NaN
         13   -1    0    0    0    0  0.00000000000E+00  0.00000000000E+00  0.74505805969E-08  0.10566000000E+00  0.10566000000E+00 0.  1.
     999900   -1    0    0    0    0 -0.00000000000E+00 -0.00000000000E+00 -0.74505805969E-08  0.93827000000E+00  0.93827000000E+00 0.  1.
     999902    2    1    2    0    0  0.35109331203E-02 -0.18933850255E-01  0.57533663504E-02  0.10238322747E+01  0.10236349975E+01 0.  0.
     999903    2    3    3    0    0 -0.86897172441E-01 -0.68559731613E-01 -0.73493569892E-01  0.13427259120E+00  0.19397643019E-01 0.  0.
         14    1    1    2    0    0 -0.35109331203E-02  0.18933850255E-01 -0.57533663504E-02  0.20097725275E-01  0.00000000000E+00 0. -1.
     999901    1    3    3    0    0  0.90408105562E-01  0.49625881357E-01  0.79246936242E-01  0.88955968353E+00  0.88000000000E+00 0. -1.
        -11    1    4    4    0    0 -0.40279864637E-01 -0.20381380733E-01 -0.25808767028E-01  0.52002132189E-01  0.51100000000E-03 0. -1.
         11    1    4    4    0    0 -0.46617307804E-01 -0.48178350880E-01 -0.47684802864E-01  0.82270459009E-01  0.51100000000E-03 0.  1.
</event>
<event>
 8    1  0.9956970E+004  0.1043930E+01  0.7957747E-01            NaN
         13   -1    0    0    0    0  0.00000000000E+00  0.00000000000E+00  0.74505805969E-08  0.10566000000E+00  0.10566000000E+00 0.  1.
     999900   -1    0    0    0    0 -0.00000000000E+00 -0.00000000000E+00 -0.74505805969E-08  0.93827000000E+00  0.93827000000E+00 0.  1.
     999902    2    1    2    0    0 -0.69772533284E-02 -0.13069620211E-01  0.19159834883E-01  0.10197102496E+01  0.10194225801E+01 0.  0.
     999903    2    3    3    0    0  0.31526903611E-01 -0.91783195737E-01  0.88089351033E-01  0.13267604774E+00  0.20617934150E-01 0.  0.
         14    1    1    2    0    0  0.69772533284E-02  0.13069620211E-01 -0.19159834883E-01  0.24219750395E-01  0.00000000000E+00 0. -1.
     999901    1    3    3    0    0 -0.38504156940E-01  0.78713575526E-01 -0.68929516149E-01  0.88703420186E+00  0.88000000000E+00 0.  1.
        -11    1    4    4    0    0  0.13175108474E-01 -0.63157774702E-01  0.50082734359E-01  0.81676369841E-01  0.51100000000E-03 0.  1.
         11    1    4    4    0    0  0.18351795138E-01 -0.28625421035E-01  0.38006616673E-01  0.50999677903E-01  0.51100000000E-03 0. -1.
</event>
<event>
 8    1  0.9956970E+004  0.1043930E+01  0.7957747E-01            NaN
         13   -1    0    0    0    0  0.00000000000E+00  0.00000000000E+00  0.74505805969E-08  0.10566000000E+00  0.10566000000E+00 0.  1.
     999900   -1    0    0    0    0 -0.00000000000E+00 -0.00000000000E+00 -0.74505805969E-08  0.93827000000E+00  0.93827000000E+00 0.  1.
     999902    2    1    2    0    0  0.18321656238E-01  0.90737254160E-02 -0.10228672710E-01  0.10210686500E+01  0.10208126893E+01 0.  0.
     999903    2    3    3    0    0  0.10680454968E+00 -0.30020831542E-02 -0.78262253739E-01  0.13393640743E+00  0.19943834646E-01 0.  0.
         14    1    1    2    0    0 -0.18321656238E-01 -0.90737254160E-02  0.10228672710E-01  0.22861350039E-01  0.00000000000E+00 0.  1.
     999901    1    3    3    0    0 -0.88482893441E-01  0.12075808570E-01  0.68033581030E-01  0.88713224253E+00  0.88000000000E+00 0. -1.
        -11    1    4    4    0    0  0.28002441528E-01  0.95949021270E-03 -0.31733265938E-01  0.42335784403E-01  0.51100000000E-03 0.  1.
         11    1    4    4    0    0  0.78802108151E-01 -0.39615733669E-02 -0.46528987802E-01  0.91600623030E-01  0.51100000000E-03 0. -1.
</event>
<event>
 8    1  0.9956970E+004  0.1043930E+01  0.7957747E-01            NaN
         13   -1    0    0    0    0  0.00000000000E+00  0.00000000000E+00  0.74505805969E-08  0.10566000000E+00  0.10566000000E+00 0.  1.
     999900   -1    0    0    0    0 -0.00000000000E+00 -0.00000000000E+00 -0.74505805969E-08  0.93827000000E+00  0.93827000000E+00 0. -1.
     999902    2    1    2    0    0  0.22512597952E-01  0.79718543951E-02 -0.40367964000E-02  0.10197088676E+01  0.10194211649E+01 0.  0.
     999903    2    3    3    0    0 -0.13973014782E-01  0.59964718686E-01  0.11235295075E+00  0.12977570657E+00  0.20676939917E-01 0.  0.
         14    1    1    2    0    0 -0.22512597952E-01 -0.79718543951E-02  0.40367964000E-02  0.24221132389E-01  0.00000000000E+00 0.  1.
     999901    1    3    3    0    0  0.36485612734E-01 -0.51992864291E-01 -0.11638974715E+00  0.88993316104E+00  0.88000000000E+00 0. -1.
        -11    1    4    4    0    0  0.15315094412E-02  0.31796062250E-01  0.44813936390E-01  0.54971675539E-01  0.51100000000E-03 0.  1.
         11    1    4    4    0    0 -0.15504524223E-01  0.28168656436E-01  0.67539014363E-01  0.74804031034E-01  0.51100000000E-03 0. -1.
</event>
<event>
 7    1  0.9956970E+004  0.1043930E+01  0.7957747E-01            NaN
         13   -1    0    0    0    0  0.00000000000E+00  0.00000000000E+00  0.74505805969E-08  0.10566000000E+00  0.10566000000E+00 0. -1.
     999900   -1    0    0    0    0 -0.00000000000E+00 -0.00000000000E+00 -0.74505805969E-08  0.93827000000E+00  0.93827000000E+00 0.  1.
     999903    2    1    2    0    0  0.70640029721E-02  0.85629925025E-01  0.69092751658E-01  0.11166961941E+00  0.17717544118E-01 0.  0.
         14    1    1    2    0    0  0.15960357279E-01 -0.13245998234E-01 -0.43986826022E-01  0.48631577572E-01  0.00000000000E+00 0.  1.
     999901    1    1    2    0    0 -0.23024360251E-01 -0.72383926791E-01 -0.25105925636E-01  0.88362880302E+00  0.88000000000E+00 0.  1.
        -11    1    3    3    0    0 -0.40991591827E-02  0.23319299316E-01  0.25538312005E-01  0.34829001244E-01  0.51100000000E-03 0.  1.
         11    1    3    3    0    0  0.11163162155E-01  0.62310625709E-01  0.43554439653E-01  0.76840618165E-01  0.51100000000E-03 0. -1.
</event>
<event>
 8    1  0.9956970E+004  0.1043930E+01  0.7957747E-01            NaN
         13   -1    0    0    0    0  0.00000000000E+00  0.00000000000E+00  0.74505805969E-08  0.10566000000E+00  0.10566000000E+00 0. -1.
     999900   -1    0    0    0    0 -0.00000000000E+00 -0.00000000000E+00 -0.74505805969E-08  0.93827000000E+00  0.93827000000E+00 0.  1.
     999902    2    1    2    0    0 -0.26021429503E-02  0.14354822995E-01  0.19087260777E-01  0.10199059367E+01  0.10196229520E+01 0.  0.
     999903    2    3    3    0    0 -0.52140025467E-01  0.67799969053E-01 -0.94734986996E-01  0.12958807804E+00  0.22426193400E-01 0.  0.
         14    1    1    2    0    0  0.26021429503E-02 -0.14354822995E-01 -0.19087260777E-01  0.24024063251E-01  0.00000000000E+00 0.  1.
     999901    1    3    3    0    0  0.49537882517E-01 -0.53445146059E-01  0.11382224777E+00  0.89031785871E+00  0.88000000000E+00 0. -1.
        -11    1    4    4    0    0 -0.50020064634E-01  0.65516213326E-01 -0.81263451473E-01  0.11575141788E+00  0.51100000000E-03 0.  1.
         11    1    4    4    0    0 -0.21199608329E-02  0.22837557270E-02 -0.13471535523E-01  0.13836660165E-01  0.51100000000E-03 0. -1.
</event>
<event>
 8    1  0.9956970E+004  0.1043930E+01  0.7957747E-01            NaN
         13   -1    0    0    0    0  0.00000000000E+00  0.00000000000E+00  0.74505805969E-08  0.10566000000E+00  0.10566000000E+00 0. -1.
     999900   -1    0    0    0    0 -0.00000000000E+00 -0.00000000000E+00 -0.74505805969E-08  0.93827000000E+00  0.93827000000E+00 0. -1.
     999902    2    1    2    0    0  0.12052206686E-01 -0.15596257546E-01  0.12489527540E-01  0.10205957498E+01  0.10203289652E+01 0.  0.
     999903    2    3    3    0    0 -0.40982417603E-01 -0.75574252196E-02  0.12359324817E+00  0.13198935157E+00  0.20229303153E-01 0.  0.
         14    1    1    2    0    0 -0.12052206686E-01  0.15596257546E-01 -0.12489527540E-01  0.23334250226E-01  0.00000000000E+00 0.  1.
     999901    1    3    3    0    0  0.53034624289E-01 -0.80388323268E-02 -0.11110372063E+00  0.88860639821E+00  0.88000000000E+00 0. -1.
        -11    1    4    4    0    0 -0.84662090057E-02 -0.80271603661E-02  0.52896623156E-01  0.54170341154E-01  0.51100000000E-03 0. -1.
         11    1    4    4    0    0 -0.32516208597E-01  0.46973514655E-03  0.70696625010E-01  0.77819010411E-01  0.51100000000E-03 0.  1.
</event>
<event>
 8    1  0.9956970E+004  0.1043930E+01  0.7957747E-01            NaN
         13   -1    0    0    0    0  0.00000000000E+00  0.00000000000E+00  0.74505805969E-08  0.10566000000E+00  0.10566000000E+00 0. -1.
     999900   -1    0    0    0    0 -0.00000000000E+00 -0.00000000000E+00 -0.74505805969E-08  0.93827000000E+00  0.93827000000E+00 0. -1.
     999902    2    1    2    0    0 -0.23237057374E-01 -0.38890451522E-02  0.20840487460E-02  0.10202777535E+01  0.10200035615E+01 0.  0.
     999903    2    3    3    0    0  0.30817342655E-01 -0.51145153655E-01  0.11410825077E+00  0.13027525919E+00  0.19631986943E-01 0.  0.
         14    1    1    2    0    0  0.23237057374E-01  0.38890451522E-02 -0.20840487460E-02  0.23652246548E-01  0.00000000000E+00 0. -1.
     999901    1    3    3    0    0 -0.54054400029E-01  0.47256108503E-01 -0.11202420203E+00  0.89000249426E+00  0.88000000000E+00 0. -1.
        -11    1    4    4    0    0 -0.16024200213E-02 -0.97909678349E-02  0.23807088954E-01  0.25796693713E-01  0.51100000000E-03 0.  1.
         11    1    4    4    0    0  0.32419762676E-01 -0.41354185820E-01  0.90301161820E-01  0.10447856548E+00  0.51100000000E-03 0. -1.
</event>
<event>
 8    1  0.1082234E+005  0.1043930E+01  0.7957747E-01            NaN
         13   -1    0    0    0    0  0.00000000000E+00  0.00000000000E+00  0.74505805969E-08  0.10566000000E+00  0.10566000000E+00 0.  1.
     999900   -1    0    0    0    0 -0.00000000000E+00 -0.00000000000E+00 -0.74505805969E-08  0.93827000000E+00  0.93827000000E+00 0.  1.
     999902    2    1    2    0    0  0.31970793512E-02  0.17839019627E-01  0.14995036048E-01  0.10204076055E+01  0.10201364508E+01 0.  0.
     999903    2    3    3    0    0 -0.15762543614E-01 -0.29491595989E-01 -0.12209471182E+00  0.12833515694E+00  0.21085109395E-01 0.  0.
         14    1    1    2    0    0 -0.31970793512E-02 -0.17839019627E-01 -0.14995036048E-01  0.23522394515E-01  0.00000000000E+00 0.  1.
     999901    1    3    3    0    0  0.18959622965E-01  0.47330615616E-01  0.13708974787E+00  0.89207244854E+00  0.88000000000E+00 0. -1.
        -11    1    4    4    0    0 -0.82851066346E-02 -0.22693874745E-01 -0.49990700132E-01  0.55524644651E-01  0.51100000000E-03 0.  1.
         11    1    4    4    0    0 -0.74774369793E-02 -0.67977212439E-02 -0.72104011687E-01  0.72810512292E-01  0.51100000000E-03 0. -1.
</event>
<event>
 8    1  0.9956970E+004  0.1043930E+01  0.7957747E-01            NaN
         13   -1    0    0    0    0  0.00000000000E+00  0.00000000000E+00  0.74505805969E-08  0.10566000000E+00  0.10566000000E+00 0. -1.
     999900   -1    0    0    0    0 -0.00000000000E+00 -0.00000000000E+00 -0.74505805969E-08  0.93827000000E+00  0.93827000000E+00 0. -1.
     999902    2    1    2    0    0 -0.31242521266E-02 -0.50237110899E-02  0.14759469893E-01  0.10280290385E+01  0.10279060577E+01 0.  0.
     999903    2    3    3    0    0  0.45894774546E-01 -0.11943800308E+00 -0.45251918516E-01  0.13724575291E+00  0.20417973740E-01 0.  0.
         14    1    1    2    0    0  0.31242521266E-02  0.50237110899E-02 -0.14759469893E-01  0.15900961480E-01  0.00000000000E+00 0.  1.
     999901    1    3    3    0    0 -0.49019026672E-01  0.11441429199E+00  0.60011388409E-01  0.89078328561E+00  0.88000000000E+00 0.  1.
        -11    1    4    4    0    0  0.30958471968E-01 -0.89859934587E-01 -0.24523202795E-01  0.98157442035E-01  0.51100000000E-03 0.  1.
         11    1    4    4    0    0  0.14936302577E-01 -0.29578068493E-01 -0.20728715721E-01  0.39088310873E-01  0.51100000000E-03 0. -1.
</event>
<event>
 8    1  0.9956970E+004  0.1043930E+01  0.7957747E-01            NaN
         13   -1    0    0    0    0  0.00000000000E+00  0.00000000000E+00  0.74505805969E-08  0.10566000000E+00  0.10566000000E+00 0. -1.
     999900   -1    0    0    0    0 -0.00000000000E+00 -0.00000000000E+00 -0.74505805969E-08  0.93827000000E+00  0.93827000000E+00 0. -1.
     999902    2    1    2    0    0  0.15822200228E-01  0.93922180680E-02  0.15190935248E-01  0.10200695663E+01  0.10197904686E+01 0.  0.
     999903    2    3    3    0    0 -0.83683812874E-01  0.86201510246E-01  0.47012418840E-01  0.13056761535E+00  0.20101088233E-01 0.  0.
         14    1    1    2    0    0 -0.15822200228E-01 -0.93922180680E-02 -0.15190935248E-01  0.23860433650E-01  0.00000000000E+00 0. -1.
     999901    1    3    3    0    0  0.99506013101E-01 -0.76809292178E-01 -0.31821483592E-01  0.88950195100E+00  0.88000000000E+00 0.  1.
        -11    1    4    4    0    0 -0.47047815330E-01  0.41064656962E-01  0.15105554262E-01  0.64251395854E-01  0.51100000000E-03 0.  1.
         11    1    4    4    0    0 -0.36635997544E-01  0.45136853284E-01  0.31906864578E-01  0.66316219499E-01  0.51100000000E-03 0. -1.
</event>
<event>
 8    1  0.9956970E+004  0.1043930E+01  0.7957747E-01            NaN
         13   -1    0    0    0    0  0.00000000000E+00  0.00000000000E+00  0.74505805969E-08  0.10566000000E+00  0.10566000000E+00 0.  1.
     999900   -1    0    0    0    0 -0.00000000000E+00 -0.00000000000E+00 -0.74505805969E-08  0.93827000000E+00  0.93827000000E+00 0.  1.
     999902    2    1    2    0    0 -0.44402121778E-02 -0.17373409069E-02  0.23917249661E-01  0.10195421204E+01  0.10192503945E+01 0.  0.
     999903    2    3    3    0    0 -0.59361783106E-01  0.78648080915E-01  0.85916417342E-01  0.13200502726E+00  0.18285363762E-01 0.  0.
         14    1    1    2    0    0  0.44402121778E-02  0.17373409069E-02 -0.23917249661E-01  0.24387879551E-01  0.00000000000E+00 0. -1.
     999901    1    3    3    0    0  0.54921570928E-01 -0.80385421821E-01 -0.61999167680E-01  0.88753709319E+00  0.88000000000E+00 0.  1.
        -11    1    4    4    0    0 -0.57798133864E-01  0.73422318716E-01  0.75107094447E-01  0.11988660443E+00  0.51100000000E-03 0. -1.
         11    1    4    4    0    0 -0.15636492424E-02  0.52257621982E-02  0.10809322894E-01  0.12118422832E-01  0.51100000000E-03 0.  1.
</event>
<event>
 8    1  0.9956970E+004  0.1043930E+01  0.7957747E-01            NaN
         13   -1    0    0    0    0  0.00000000000E+00  0.00000000000E+00  0.74505805969E-08  0.10566000000E+00  0.10566000000E+00 0. -1.
     999900   -1    0    0    0    0 -0.00000000000E+00 -0.00000000000E+00 -0.74505805969E-08  0.93827000000E+00  0.93827000000E+00 0. -1.
     999902    2    1    2    0    0 -0.17620733116E-01 -0.19453079222E-02 -0.45242303273E-03  0.10261964401E+01  0.10260432031E+01 0.  0.
     999903    2    3    3    0    0  0.30420907327E-01  0.13015960467E+00  0.13072130357E-02  0.13503831531E+00  0.19148981828E-01 0.  0.
         14    1    1    2    0    0  0.17620733116E-01  0.19453079222E-02  0.45242303273E-03  0.17733559853E-01  0.00000000000E+00 0. -1.
     999901    1    3    3    0    0 -0.48041640443E-01 -0.13210491259E+00 -0.17596360684E-02  0.89115812484E+00  0.88000000000E+00 0.  1.
        -11    1    4    4    0    0  0.29201033607E-01  0.86032982913E-01  0.22266010330E-02  0.90882305131E-01  0.51100000000E-03 0. -1.
         11    1    4    4    0    0  0.12198737194E-02  0.44126621756E-01 -0.91938799727E-03  0.44156010177E-01  0.51100000000E-03 0.  1.
</event>
<event>
 8    1  0.9956970E+004  0.1043930E+01  0.7957747E-01            NaN
         13   -1    0    0    0    0  0.00000000000E+00  0.00000000000E+00  0.74505805969E-08  0.10566000000E+00  0.10566000000E+00 0. -1.
     999900   -1    0    0    0    0 -0.00000000000E+00 -0.00000000000E+00 -0.74505805969E-08  0.93827000000E+00  0.93827000000E+00 0. -1.
     999902    2    1    2    0    0 -0.15800164925E-01  0.16986778109E-01  0.35557246873E-02  0.10204600400E+01  0.10201901069E+01 0.  0.
     999903    2    3    3    0    0  0.19676484007E-01  0.10046080103E+00  0.81596413818E-01  0.13236271752E+00  0.19554479643E-01 0.  0.
         14    1    1    2    0    0  0.15800164925E-01 -0.16986778109E-01 -0.35557246873E-02  0.23469959954E-01  0.00000000000E+00 0. -1.
     999901    1    3    3    0    0 -0.35476648932E-01 -0.83474022923E-01 -0.78040689130E-01  0.88809732253E+00  0.88000000000E+00 0.  1.
        -11    1    4    4    0    0  0.16799982083E-01  0.36539033001E-01  0.32496387167E-01  0.51707026897E-01  0.51100000000E-03 0.  1.
         11    1    4    4    0    0  0.28765019240E-02  0.63921768030E-01  0.49100026651E-01  0.80655690621E-01  0.51100000000E-03 0. -1.
</event>
<event>
 8    1  0.9956970E+004  0.1043930E+01  0.7957747E-01            NaN
         13   -1    0    0    0    0  0.00000000000E+00  0.00000000000E+00  0.74505805969E-08  0.10566000000E+00  0.10566000000E+00 0. -1.
     999900   -1    0    0    0    0 -0.00000000000E+00 -0.00000000000E+00 -0.74505805969E-08  0.93827000000E+00  0.93827000000E+00 0.  1.
     999902    2    1    2    0    0 -0.23120398111E-01  0.48725923242E-02 -0.84241750394E-03  0.10202867212E+01  0.10200127395E+01 0.  0.
     999903    2    3    3    0    0 -0.62284368820E-01 -0.26828446643E-01  0.11063410402E+00  0.13182412361E+00  0.23207465325E-01 0.  0.
         14    1    1    2    0    0  0.23120398111E-01 -0.48725923242E-02  0.84241750394E-03  0.23643278791E-01  0.00000000000E+00 0. -1.
     999901    1    3    3    0    0  0.39163970710E-01  0.31701038967E-01 -0.11147652152E+00  0.88846259759E+00  0.88000000000E+00 0.  1.
        -11    1    4    4    0    0 -0.36131382484E-01 -0.12186027784E-01  0.81696439579E-01  0.90158446272E-01  0.51100000000E-03 0. -1.
         11    1    4    4    0    0 -0.26152986337E-01 -0.14642418859E-01  0.28937664437E-01  0.41665677343E-01  0.51100000000E-03 0.  1.
</event>
<event>
 8    1  0.9956970E+004  0.1043930E+01  0.7957747E-01            NaN
         13   -1    0    0    0    0  0.00000000000E+00  0.00000000000E+00  0.74505805969E-08  0.10566000000E+00  0.10566000000E+00 0. -1.
     999900   -1    0    0    0    0 -0.00000000000E+00 -0.00000000000E+00 -0.74505805969E-08  0.93827000000E+00  0.93827000000E+00 0. -1.
     999902    2    1    2    0    0 -0.20398655909E-01  0.10337649832E-02  0.12615826855E-01  0.10199230652E+01  0.10196404886E+01 0.  0.
     999903    2    3    3    0    0 -0.85868658326E-01 -0.93461094864E-01  0.31392341854E-01  0.13224736015E+00  0.19886739406E-01 0.  0.
         14    1    1    2    0    0  0.20398655909E-01 -0.10337649832E-02 -0.12615826855E-01  0.24006934835E-01  0.00000000000E+00 0.  1.
     999901    1    3    3    0    0  0.65470002417E-01  0.94494859848E-01 -0.18776514999E-01  0.88767570501E+00  0.88000000000E+00 0. -1.
        -11    1    4    4    0    0 -0.16439280156E-01 -0.29127530608E-01  0.38752520863E-02  0.33674050411E-01  0.51100000000E-03 0.  1.
         11    1    4    4    0    0 -0.69429378171E-01 -0.64333564256E-01  0.27517089768E-01  0.98573309741E-01  0.51100000000E-03 0. -1.
</event>
<event>
 8    1  0.9956970E+004  0.1043930E+01  0.7957747E-01            NaN
         13   -1    0    0    0    0  0.00000000000E+00  0.00000000000E+00  0.74505805969E-08  0.10566000000E+00  0.10566000000E+00 0. -1.
     999900   -1    0    0    0    0 -0.00000000000E+00 -0.00000000000E+00 -0.74505805969E-08  0.93827000000E+00  0.93827000000E+00 0.  1.
     999902    2    1    2    0    0  0.18875285485E-01  0.93979439259E-02  0.82375654023E-02  0.10212925258E+01  0.10210416094E+01 0.  0.
     999903    2    3    3    0    0 -0.12053823881E+00  0.53369101797E-02 -0.40212541510E-01  0.12899210805E+00  0.21539865783E-01 0.  0.
         14    1    1    2    0    0 -0.18875285485E-01 -0.93979439259E-02 -0.82375654023E-02  0.22637474151E-01  0.00000000000E+00 0.  1.
     999901    1    3    3    0    0  0.13941352429E+00  0.40610337462E-02  0.48450106913E-01  0.89230041780E+00  0.88000000000E+00 0. -1.
        -11    1    4    4    0    0 -0.11197414497E+00  0.39287045763E-02 -0.42769601190E-01  0.11992974513E+00  0.51100000000E-03 0. -1.
         11    1    4    4    0    0 -0.85640938421E-02  0.14082056035E-02  0.25570596799E-02  0.90623629129E-02  0.51100000000E-03 0.  1.
</event>
<event>
 8    1  0.9956970E+004  0.1043930E+01  0.7957747E-01            NaN
         13   -1    0    0    0    0  0.00000000000E+00  0.00000000000E+00  0.74505805969E-08  0.10566000000E+00  0.10566000000E+00 0.  1.
     999900   -1    0    0    0    0 -0.00000000000E+00 -0.00000000000E+00 -0.74505805969E-08  0.93827000000E+00  0.93827000000E+00 0.  1.
     999902    2    1    2    0    0  0.95569808865E-02 -0.38499224074E-02  0.19191698050E-01  0.10221474597E+01  0.10219153343E+01 0.  0.
     999903    2    3    3    0    0  0.15509227024E-01 -0.77230572778E-01  0.10732079908E+00  0.13468653805E+00  0.20435560192E-01 0.  0.
         14    1    1    2    0    0 -0.95569808865E-02  0.38499224074E-02 -0.19191698050E-01  0.21782540262E-01  0.00000000000E+00 0. -1.
     999901    1    3    3    0    0 -0.59522461373E-02  0.73380650371E-01 -0.88129101032E-01  0.88746092169E+00  0.88000000000E+00 0.  1.
        -11    1    4    4    0    0  0.15793126670E-01 -0.66140592048E-01  0.78829517954E-01  0.10410741947E+00  0.51100000000E-03 0. -1.
         11    1    4    4    0    0 -0.28389964647E-03 -0.11089980730E-01  0.28491281128E-01  0.30579118577E-01  0.51100000000E-03 0.  1.
</event>
<event>
 8    1  0.9956970E+004  0.1043930E+01  0.7957747E-01            NaN
         13   -1    0    0    0    0  0.00000000000E+00  0.00000000000E+00  0.74505805969E-08  0.10566000000E+00  0.10566000000E+00 0.  1.
     999900   -1    0    0    0    0 -0.00000000000E+00 -0.00000000000E+00 -0.74505805969E-08  0.93827000000E+00  0.93827000000E+00 0. -1.
     999902    2    1    2    0    0  0.16487185588E-01 -0.13011140697E-01 -0.11429086122E-01  0.10200188921E+01  0.10197385936E+01 0.  0.
     999903    2    3    3    0    0  0.11555420204E+00 -0.45126345375E-01 -0.44407453457E-01  0.13326456715E+00  0.19956509693E-01 0.  0.
         14    1    1    2    0    0 -0.16487185588E-01  0.13011140697E-01  0.11429086122E-01  0.23911107888E-01  0.00000000000E+00 0.  1.
     999901    1    3    3    0    0 -0.99067016456E-01  0.32115204678E-01  0.32978367335E-01  0.88675432496E+00  0.88000000000E+00 0.  1.
        -11    1    4    4    0    0  0.89779947458E-01 -0.38376342675E-01 -0.42680881830E-01  0.10656031831E+00  0.51100000000E-03 0.  1.
         11    1    4    4    0    0  0.25774254586E-01 -0.67500026998E-02 -0.17265716263E-02  0.26704248848E-01  0.51100000000E-03 0. -1.
</event>
<event>
 8    1  0.9956970E+004  0.1043930E+01  0.7957747E-01            NaN
         13   -1    0    0    0    0  0.00000000000E+00  0.00000000000E+00  0.74505805969E-08  0.10566000000E+00  0.10566000000E+00 0. -1.
     999900   -1    0    0    0    0 -0.00000000000E+00 -0.00000000000E+00 -0.74505805969E-08  0.93827000000E+00  0.93827000000E+00 0. -1.
     999902    2    1    2    0    0 -0.17097950955E-01 -0.12183716354E-01  0.12099059629E-01  0.10196984067E+01  0.10194104524E+01 0.  0.
     999903    2    3    3    0    0 -0.20794534469E-01  0.12357772049E+00 -0.19353725915E-01  0.12872472009E+00  0.22172532354E-01 0.  0.
         14    1    1    2    0    0  0.17097950955E-01  0.12183716354E-01 -0.12099059629E-01  0.24231593322E-01  0.00000000000E+00 0.  1.
     999901    1    3    3    0    0  0.36965835137E-02 -0.13576143685E+00  0.31452785544E-01  0.89097368658E+00  0.88000000000E+00 0. -1.
        -11    1    4    4    0    0  0.17580605985E-02  0.54317931123E-01 -0.61327974069E-02  0.54693699305E-01  0.51100000000E-03 0.  1.
         11    1    4    4    0    0 -0.22552595067E-01  0.69259789369E-01 -0.13220928508E-01  0.74031020790E-01  0.51100000000E-03 0. -1.
</event>
<event>
 8    1  0.1014165E+005  0.1043930E+01  0.7957747E-01            NaN
         13   -1    0    0    0    0  0.00000000000E+00  0.00000000000E+00  0.74505805969E-08  0.10566000000E+00  0.10566000000E+00 0.  1.
     999900   -1    0    0    0    0 -0.00000000000E+00 -0.00000000000E+00 -0.74505805969E-08  0.93827000000E+00  0.93827000000E+00 0. -1.
     999902    2    1    2    0    0  0.41915181728E-02 -0.22880701269E-01 -0.25966556331E-02  0.10205240620E+01  0.10202556165E+01 0.  0.
     999903    2    3    3    0    0 -0.12613859294E+00 -0.21753945182E-01 -0.16990657554E-01  0.13080815520E+00  0.20926353297E-01 0.  0.
         14    1    1    2    0    0 -0.41915181728E-02  0.22880701269E-01  0.25966556331E-02  0.23405938042E-01  0.00000000000E+00 0.  1.
     999901    1    3    3    0    0  0.13033011112E+00 -0.11267560871E-02  0.14394001920E-01  0.88971590676E+00  0.88000000000E+00 0.  1.
        -11    1    4    4    0    0 -0.85056975151E-01 -0.13095671971E-01 -0.15587356515E-02  0.86074830375E-01  0.51100000000E-03 0.  1.
         11    1    4    4    0    0 -0.41081617793E-01 -0.86582732104E-02 -0.15431921902E-01  0.44733324827E-01  0.51100000000E-03 0. -1.
</event>
<event>
 8    1  0.9956970E+004  0.1043930E+01  0.7957747E-01            NaN
         13   -1    0    0    0    0  0.00000000000E+00  0.00000000000E+00  0.74505805969E-08  0.10566000000E+00  0.10566000000E+00 0. -1.
     999900   -1    0    0    0    0 -0.00000000000E+00 -0.00000000000E+00 -0.74505805969E-08  0.93827000000E+00  0.93827000000E+00 0.  1.
     999902    2    1    2    0    0 -0.15066169773E-01 -0.68697259880E-02 -0.17673930881E-01  0.10197111966E+01  0.10194235498E+01 0.  0.
     999903    2    3    3    0    0 -0.10890470777E+00  0.70291643238E-01 -0.58450830385E-02  0.13128592129E+00  0.20016934083E-01 0.  0.
         14    1    1    2    0    0  0.15066169773E-01  0.68697259880E-02  0.17673930881E-01  0.24218803430E-01  0.00000000000E+00 0. -1.
     999901    1    3    3    0    0  0.93838537996E-01 -0.77161369226E-01 -0.11828847843E-01  0.88842527528E+00  0.88000000000E+00 0.  1.
        -11    1    4    4    0    0 -0.32375496954E-01  0.30847002935E-01  0.24578075270E-02  0.44788529022E-01  0.51100000000E-03 0. -1.
         11    1    4    4    0    0 -0.76529210815E-01  0.39444640303E-01 -0.83028905655E-02  0.86497392269E-01  0.51100000000E-03 0.  1.
</event>
<event>
 8    1  0.9956970E+004  0.1043930E+01  0.7957747E-01            NaN
         13   -1    0    0    0    0  0.00000000000E+00  0.00000000000E+00  0.74505805969E-08  0.10566000000E+00  0.10566000000E+00 0.  1.
     999900   -1    0    0    0    0 -0.00000000000E+00 -0.00000000000E+00 -0.74505805969E-08  0.93827000000E+00  0.93827000000E+00 0.  1.
     999902    2    1    2    0    0  0.11955351809E-01 -0.70886120647E-02  0.18823022576E-01  0.10205316018E+01  0.10202633314E+01 0.  0.
     999903    2    3    3    0    0  0.55402725744E-01  0.93290962754E-01  0.72637356826E-01  0.13212870004E+00  0.20227259238E-01 0.  0.
         14    1    1    2    0    0 -0.11955351809E-01  0.70886120647E-02 -0.18823022576E-01  0.23398398167E-01  0.00000000000E+00 0. -1.
     999901    1    3    3    0    0 -0.43447373935E-01 -0.10037957482E+00 -0.53814334250E-01  0.88840290179E+00  0.88000000000E+00 0.  1.
        -11    1    4    4    0    0  0.21653911767E-01  0.55765062016E-01  0.41823729032E-01  0.72993968707E-01  0.51100000000E-03 0.  1.
         11    1    4    4    0    0  0.33748813977E-01  0.37525900738E-01  0.30813627794E-01  0.59134731334E-01  0.51100000000E-03 0. -1.
</event>
<event>
 8    1  0.9956970E+004  0.1043930E+01  0.7957747E-01            NaN
         13   -1    0    0    0    0  0.00000000000E+00  0.00000000000E+00  0.74505805969E-08  0.10566000000E+00  0.10566000000E+00 0.  1.
     999900   -1    0    0    0    0 -0.00000000000E+00 -0.00000000000E+00 -0.74505805969E-08  0.93827000000E+00  0.93827000000E+00 0.  1.
     999902    2    1    2    0    0  0.83849317013E-02  0.73704866643E-02 -0.19433858849E-01  0.10215178153E+01  0.10212719231E+01 0.  0.
     999903    2    3    3    0    0  0.47323863479E-01 -0.36812104229E-01 -0.11830416043E+00  0.13402489799E+00  0.19290407774E-01 0.  0.
         14    1    1    2    0    0 -0.83849317013E-02 -0.73704866643E-02  0.19433858849E-01  0.22412184701E-01  0.00000000000E+00 0.  1.
     999901    1    3    3    0    0 -0.38938931777E-01  0.44182590893E-01  0.98870301583E-01  0.88749291731E+00  0.88000000000E+00 0. -1.
        -11    1    4    4    0    0  0.21600260831E-01 -0.12092650813E-01 -0.30746615252E-01  0.39476815248E-01  0.51100000000E-03 0.  1.
         11    1    4    4    0    0  0.25723602648E-01 -0.24719453415E-01 -0.87557545181E-01  0.94548082738E-01  0.51100000000E-03 0. -1.
</event>
<event>
 8    1  0.9956970E+004  0.1043930E+01  0.7957747E-01            NaN
         13   -1    0    0    0    0  0.00000000000E+00  0.00000000000E+00  0.74505805969E-08  0.10566000000E+00  0.10566000000E+00 0.  1.
     999900   -1    0    0    0    0 -0.00000000000E+00 -0.00000000000E+00 -0.74505805969E-08  0.93827000000E+00  0.93827000000E+00 0.  1.
     999902    2    1    2    0    0  0.16645836216E-01 -0.75169572861E-02  0.16303757610E-01  0.10194473322E+01  0.10191533065E+01 0.  0.
     999903    2    3    3    0    0  0.92011433884E-01  0.20776531388E-02 -0.89400984092E-01  0.12987129707E+00  0.20089729686E-01 0.  0.
         14    1    1    2    0    0 -0.16645836216E-01  0.75169572861E-02 -0.16303757610E-01  0.24482667796E-01  0.00000000000E+00 0. -1.
     999901    1    3    3    0    0 -0.75365597668E-01 -0.95946104250E-02  0.10570474170E+00  0.88957603513E+00  0.88000000000E+00 0. -1.
        -11    1    4    4    0    0  0.19373515307E-01 -0.59626334485E-02 -0.12693590762E-01  0.23922258682E-01  0.51100000000E-03 0.  1.
         11    1    4    4    0    0  0.72637918577E-01  0.80402865873E-02 -0.76707393330E-01  0.10594903839E+00  0.51100000000E-03 0. -1.
</event>
<event>
 8    1  0.9956970E+004  0.1043930E+01  0.7957747E-01            NaN
         13   -1    0    0    0    0  0.00000000000E+00  0.00000000000E+00  0.74505805969E-08  0.10566000000E+00  0.10566000000E+00 0. -1.
     999900   -1    0    0    0    0 -0.00000000000E+00 -0.00000000000E+00 -0.74505805969E-08  0.93827000000E+00  0.93827000000E+00 0.  1.
     999902    2    1    2    0    0 -0.52435643572E-02  0.20985292069E-01 -0.10559159219E-01  0.10198598256E+01  0.10195757405E+01 0.  0.
     999903    2    3    3    0    0 -0.51908524945E-01  0.66678593915E-01  0.97937717136E-01  0.13079454763E+00  0.19362009289E-01 0.  0.
         14    1    1    2    0    0  0.52435643572E-02 -0.20985292069E-01  0.10559159219E-01  0.24070174362E-01  0.00000000000E+00 0. -1.
     999901    1    3    3    0    0  0.46664960588E-01 -0.45693301845E-01 -0.10849687635E+00  0.88906527801E+00  0.88000000000E+00 0.  1.
        -11    1    4    4    0    0 -0.10603051271E-01  0.15849591634E-01  0.35519658700E-01  0.40318004990E-01  0.51100000000E-03 0. -1.
         11    1    4    4    0    0 -0.41305473674E-01  0.50829002281E-01  0.62418058436E-01  0.90476542640E-01  0.51100000000E-03 0.  1.
</event>
<event>
 8    1  0.9956970E+004  0.1043930E+01  0.7957747E-01            NaN
         13   -1    0    0    0    0  0.00000000000E+00  0.00000000000E+00  0.74505805969E-08  0.10566000000E+00  0.10566000000E+00 0. -1.
     999900   -1    0    0    0    0 -0.00000000000E+00 -0.00000000000E+00 -0.74505805969E-08  0.93827000000E+00  0.93827000000E+00 0.  1.
     999902    2    1    2    0    0  0.13610790742E-01 -0.11082331078E-01 -0.16305289551E-01  0.10199730771E+01  0.10196916906E+01 0.  0.
     999903    2    3    3    0    0 -0.85961278589E-01 -0.23364719845E-01 -0.93981900813E-01  0.13087290841E+00  0.18970211489E-01 0.  0.
         14    1    1    2    0    0 -0.13610790742E-01  0.11082331078E-01  0.16305289551E-01  0.23956922884E-01  0.00000000000E+00 0. -1.
     999901    1    3    3    0    0  0.99572069331E-01  0.12282388768E-01  0.77676611262E-01  0.88910016871E+00  0.88000000000E+00 0. -1.
        -11    1    4    4    0    0 -0.60196824460E-01 -0.19897472757E-01 -0.77318618244E-01  0.99989984225E-01  0.51100000000E-03 0.  1.
         11    1    4    4    0    0 -0.25764454129E-01 -0.34672470880E-02 -0.16663282569E-01  0.30882924180E-01  0.51100000000E-03 0. -1.
</event>
<event>
 8    1  0.9956970E+004  0.1043930E+01  0.7957747E-01            NaN
         13   -1    0    0    0    0  0.00000000000E+00  0.00000000000E+00  0.74505805969E-08  0.10566000000E+00  0.10566000000E+00 0.  1.
     999900   -1    0    0    0    0 -0.00000000000E+00 -0.00000000000E+00 -0.74505805969E-08  0.93827000000E+00  0.93827000000E+00 0.  1.
     999902    2    1    2    0    0  0.16920465493E-01 -0.18958504777E-01 -0.50576987455E-02  0.10180204000E+01  0.10176906344E+01 0.  0.
     999903    2    3    3    0    0 -0.10178791363E-01 -0.64012994390E-01 -0.11094423214E+00  0.13011486746E+00  0.20493531731E-01 0.  0.
         14    1    1    2    0    0 -0.16920465493E-01  0.18958504777E-01  0.50576987455E-02  0.25909600006E-01  0.00000000000E+00 0. -1.
     999901    1    3    3    0    0  0.27099256856E-01  0.45054489613E-01  0.10588653340E+00  0.88790553254E+00  0.88000000000E+00 0. -1.
        -11    1    4    4    0    0 -0.89519253538E-02 -0.49275463676E-01 -0.66359808140E-01  0.83139001349E-01  0.51100000000E-03 0. -1.
         11    1    4    4    0    0 -0.12268660093E-02 -0.14737530715E-01 -0.44584424003E-01  0.46975866107E-01  0.51100000000E-03 0.  1.
</event>
<event>
 8    1  0.9956970E+004  0.1043930E+01  0.7957747E-01            NaN
         13   -1    0    0    0    0  0.00000000000E+00  0.00000000000E+00  0.74505805969E-08  0.10566000000E+00  0.10566000000E+00 0.  1.
     999900   -1    0    0    0    0 -0.00000000000E+00 -0.00000000000E+00 -0.74505805969E-08  0.93827000000E+00  0.93827000000E+00 0. -1.
     999902    2    1    2    0    0  0.83602020872E-02 -0.14367111865E-01  0.18915614485E-01  0.10187485117E+01  0.10184372453E+01 0.  0.
     999903    2    3    3    0    0 -0.89578369583E-01 -0.43239904400E-01  0.82179690242E-01  0.13058864700E+00  0.20147446642E-01 0.  0.
         14    1    1    2    0    0 -0.83602020872E-02  0.14367111865E-01 -0.18915614485E-01  0.25181488312E-01  0.00000000000E+00 0. -1.
     999901    1    3    3    0    0  0.97938571670E-01  0.28872792535E-01 -0.63264075757E-01  0.88815986469E+00  0.88000000000E+00 0. -1.
        -11    1    4    4    0    0 -0.57663131813E-01 -0.37106594893E-01  0.50136394680E-01  0.84946190895E-01  0.51100000000E-03 0.  1.
         11    1    4    4    0    0 -0.31915237770E-01 -0.61333095069E-02  0.32043295562E-01  0.45642456100E-01  0.51100000000E-03 0. -1.
</event>
<event>
 8    1  0.9956970E+004  0.1043930E+01  0.7957747E-01            NaN
         13   -1    0    0    0    0  0.00000000000E+00  0.00000000000E+00  0.74505805969E-08  0.10566000000E+00  0.10566000000E+00 0.  1.
     999900   -1    0    0    0    0 -0.00000000000E+00 -0.00000000000E+00 -0.74505805969E-08  0.93827000000E+00  0.93827000000E+00 0.  1.
     999902    2    1    2    0    0 -0.16803083615E-01 -0.32940443608E-02  0.43352468873E-02  0.10262667978E+01  0.10261147848E+01 0.  0.
     999903    2    3    3    0    0 -0.61587785046E-02 -0.68198752415E-01 -0.11527756515E+00  0.13574271210E+00  0.21169942834E-01 0.  0.
         14    1    1    2    0    0  0.16803083615E-01  0.32940443608E-02 -0.43352468873E-02  0.17663202224E-01  0.00000000000E+00 0.  1.
     999901    1    3    3    0    0 -0.10644305111E-01  0.64904708054E-01  0.11961281203E+00  0.89052408567E+00  0.88000000000E+00 0. -1.
        -11    1    4    4    0    0  0.51694417497E-02 -0.37821082589E-01 -0.73855102002E-01  0.83138406461E-01  0.51100000000E-03 0. -1.
         11    1    4    4    0    0 -0.11328220254E-01 -0.30377669826E-01 -0.41422463145E-01  0.52604305643E-01  0.51100000000E-03 0.  1.
</event>
<event>
 8    1  0.9956970E+004  0.1043930E+01  0.7957747E-01            NaN
         13   -1    0    0    0    0  0.00000000000E+00  0.00000000000E+00  0.74505805969E-08  0.10566000000E+00  0.10566000000E+00 0. -1.
     999900   -1    0    0    0    0 -0.00000000000E+00 -0.00000000000E+00 -0.74505805969E-08  0.93827000000E+00  0.93827000000E+00 0.  1.
     999902    2    1    2    0    0 -0.95615984529E-02 -0.18008665576E-01 -0.10713677264E-01  0.10208970002E+01  0.10206371372E+01 0.  0.
     999903    2    3    3    0    0  0.57494687805E-01  0.31098268747E-02 -0.11670925909E+00  0.13175269263E+00  0.20552632680E-01 0.  0.
         14    1    1    2    0    0  0.95615984529E-02  0.18008665576E-01  0.10713677264E-01  0.23032999834E-01  0.00000000000E+00 0.  1.
     999901    1    3    3    0    0 -0.67056286258E-01 -0.21118492451E-01  0.10599558183E+00  0.88914430753E+00  0.88000000000E+00 0. -1.
        -11    1    4    4    0    0  0.19787570318E-01 -0.76328748919E-02 -0.31802533277E-01  0.38229189921E-01  0.51100000000E-03 0. -1.
         11    1    4    4    0    0  0.37707117487E-01  0.10742701767E-01 -0.84906725813E-01  0.93523502713E-01  0.51100000000E-03 0.  1.
</event>
<event>
 7    1  0.9956970E+004  0.1043930E+01  0.7957747E-01            NaN
         13   -1    0    0    0    0  0.00000000000E+00  0.00000000000E+00  0.74505805969E-08  0.10566000000E+00  0.10566000000E+00 0. -1.
     999900   -1    0    0    0    0 -0.00000000000E+00 -0.00000000000E+00 -0.74505805969E-08  0.93827000000E+00  0.93827000000E+00 0. -1.
     999902    2    1    2    0    0  0.18999728899E-01  0.11812758861E-01  0.52764963803E-02  0.10209436479E+01  0.10206848484E+01 0.  0.
         14    1    1    2    0    0 -0.18999728899E-01 -0.11812758861E-01 -0.52764963803E-02  0.22986352129E-01  0.00000000000E+00 0.  1.
     999901    1    3    3    0    0  0.58141708581E-01 -0.21930122288E-02  0.12222424501E+00  0.89035051168E+00  0.88000000000E+00 0.  1.
        -11    1    3    3    0    0  0.21673462648E-02 -0.10040158943E-01 -0.22448211453E-01  0.24691810380E-01  0.51100000000E-03 0.  1.
         11    1    3    3    0    0 -0.41309325946E-01  0.24045930033E-01 -0.94499537175E-01  0.10590132581E+00  0.51100000000E-03 0. -1.
</event>
<event>
 8    1  0.9956970E+004  0.1043930E+01  0.7957747E-01            NaN
         13   -1    0    0    0    0  0.00000000000E+00  0.00000000000E+00  0.74505805969E-08  0.10566000000E+00  0.10566000000E+00 0. -1.
     999900   -1    0    0    0    0 -0.00000000000E+00 -0.00000000000E+00 -0.74505805969E-08  0.93827000000E+00  0.93827000000E+00 0. -1.
     999902    2    1    2    0    0 -0.29650585668E-02 -0.63419975634E-02  0.23797420008E-01  0.10191241599E+01  0.10188222237E+01 0.  0.
     999903    2    3    3    0    0  0.11412597903E+00  0.56449982069E-01  0.19824477029E-02  0.12888316059E+00  0.19889681225E-01 0.  0.
         14    1    1    2    0    0  0.29650585668E-02  0.63419975634E-02 -0.23797420008E-01  0.24805840127E-01  0.00000000000E+00 0.  1.
     999901    1    3    3    0    0 -0.11709103760E+00 -0.62791979632E-01  0.21814972305E-01  0.89024099929E+00  0.88000000000E+00 0. -1.
        -11    1    4    4    0    0  0.82589018457E-01  0.49782177923E-01 -0.15960053865E-02  0.96446977986E-01  0.51100000000E-03 0.  1.
         11    1    4    4    0    0  0.31536960572E-01  0.66678041461E-02  0.35784530895E-02  0.32436182602E-01  0.51100000000E-03 0. -1.
</event>
<event>
 8    1  0.9956970E+004  0.1043930E+01  0.7957747E-01            NaN
         13   -1    0    0    0    0  0.00000000000E+00  0.00000000000E+00  0.74505805969E-08  0.10566000000E+00  0.10566000000E+00 0. -1.
     999900   -1    0    0    0    0 -0.00000000000E+00 -0.00000000000E+00 -0.74505805969E-08  0.93827000000E+00  0.93827000000E+00 0. -1.
     999902    2    1    2    0    0 -0.98155894290E-02 -0.21302931915E-01 -0.26056961785E-02  0.10203302043E+01  0.10200572413E+01 0.  0.
     999903    2    3    3    0    0 -0.33798672253E-01 -0.11320811350E+00  0.58089113844E-01  0.13314047791E+00  0.19839720313E-01 0.  0.
         14    1    1    2    0    0  0.98155894290E-02  0.21302931915E-01  0.26056961785E-02  0.23599795690E-01  0.00000000000E+00 0.  1.
     999901    1    3    3    0    0  0.23983082824E-01  0.91905181588E-01 -0.60694810023E-01  0.88718972640E+00  0.88000000000E+00 0. -1.
        -11    1    4    4    0    0 -0.11649062420E-01 -0.61504507789E-01  0.22219353533E-01  0.66426394799E-01  0.51100000000E-03 0. -1.
         11    1    4    4    0    0 -0.22149609833E-01 -0.51703605715E-01  0.35869760311E-01  0.66714083112E-01  0.51100000000E-03 0.  1.
</event>
<event>
 8    1  0.9956970E+004  0.1043930E+01  0.7957747E-01            NaN
         13   -1    0    0    0    0  0.00000000000E+00  0.00000000000E+00  0.74505805969E-08  0.10566000000E+00  0.10566000000E+00 0.  1.
     999900   -1    0    0    0    0 -0.00000000000E+00 -0.00000000000E+00 -0.74505805969E-08  0.93827000000E+00  0.93827000000E+00 0.  1.
     999902    2    1    2    0    0 -0.91222010010E-02  0.74694122383E-02 -0.19942825019E-01  0.10207627183E+01  0.10204997816E+01 0.  0.
     999903    2    3    3    0    0 -0.10986223675E+00 -0.67813145035E-01  0.12334387145E-01  0.13123596963E+00  0.20060132444E-01 0.  0.
         14    1    1    2    0    0  0.91222010010E-02 -0.74694122383E-02  0.19942825019E-01  0.23167281671E-01  0.00000000000E+00 0.  1.
     999901    1    3    3    0    0  0.10074003575E+00  0.75282557274E-01 -0.32277212164E-01  0.88952674870E+00  0.88000000000E+00 0. -1.
        -11    1    4    4    0    0 -0.75021099869E-01 -0.35154836089E-01  0.95191607293E-02  0.83396063864E-01  0.51100000000E-03 0.  1.
         11    1    4    4    0    0 -0.34841136882E-01 -0.32658308946E-01  0.28152264158E-02  0.47839905762E-01  0.51100000000E-03 0. -1.
</event>
<event>
 8    1  0.9956970E+004  0.1043930E+01  0.7957747E-01            NaN
         13   -1    0    0    0    0  0.00000000000E+00  0.00000000000E+00  0.74505805969E-08  0.10566000000E+00  0.10566000000E+00 0.  1.
     999900   -1    0    0    0    0 -0.00000000000E+00 -0.00000000000E+00 -0.74505805969E-08  0.93827000000E+00  0.93827000000E+00 0.  1.
     999902    2    1    2    0    0 -0.52546758675E-02 -0.20192467146E-01 -0.12433624860E-01  0.10196412706E+01  0.10193519404E+01 0.  0.
     999903    2    3    3    0    0  0.44556394085E-01  0.89595518507E-01 -0.78929578896E-01  0.12893578821E+00  0.19543026034E-01 0.  0.
         14    1    1    2    0    0  0.52546758675E-02  0.20192467146E-01  0.12433624860E-01  0.24288729383E-01  0.00000000000E+00 0.  1.
     999901    1    3    3    0    0 -0.49811069953E-01 -0.10978798565E+00  0.66495954036E-01  0.89070548241E+00  0.88000000000E+00 0. -1.
        -11    1    4    4    0    0  0.29817310969E-01  0.41711594498E-01 -0.33082316524E-01  0.61021553049E-01  0.51100000000E-03 0.  1.
         11    1    4    4    0    0  0.14739083117E-01  0.47883924009E-01 -0.45847262372E-01  0.67914235162E-01  0.51100000000E-03 0. -1.
</event>
<event>
 8    1  0.9956970E+004  0.1043930E+01  0.7957747E-01            NaN
         13   -1    0    0    0    0  0.00000000000E+00  0.00000000000E+00  0.74505805969E-08  0.10566000000E+00  0.10566000000E+00 0.  1.
     999900   -1    0    0    0    0 -0.00000000000E+00 -0.00000000000E+00 -0.74505805969E-08  0.93827000000E+00  0.93827000000E+00 0. -1.
     999902    2    1    2    0    0  0.14680941831E-01  0.18882443589E-01  0.36428354008E-02  0.10197360549E+01  0.10194490055E+01 0.  0.
     999903    2    3    3    0    0 -0.63700222143E-01 -0.10147658588E+00 -0.37241394981E-01  0.12715472913E+00  0.20644317833E-01 0.  0.
         14    1    1    2    0    0 -0.14680941831E-01 -0.18882443589E-01 -0.36428354008E-02  0.24193945084E-01  0.00000000000E+00 0. -1.
     999901    1    3    3    0    0  0.78381163975E-01  0.12035902947E+00  0.40884230382E-01  0.89258132578E+00  0.88000000000E+00 0. -1.
        -11    1    4    4    0    0 -0.39061713419E-01 -0.65693791315E-01 -0.13405921917E-01  0.77598141319E-01  0.51100000000E-03 0.  1.
         11    1    4    4    0    0 -0.24638508724E-01 -0.35782794561E-01 -0.23835473064E-01  0.49556587816E-01  0.51100000000E-03 0. -1.
</event>
<event>
 8    1  0.9956970E+004  0.1043930E+01  0.7957747E-01            NaN
         13   -1    0    0    0    0  0.00000000000E+00  0.00000000000E+00  0.74505805969E-08  0.10566000000E+00  0.10566000000E+00 0. -1.
     999900   -1    0    0    0    0 -0.00000000000E+00 -0.00000000000E+00 -0.74505805969E-08  0.93827000000E+00  0.93827000000E+00 0.  1.
     999902    2    1    2    0    0 -0.19444229006E-01  0.23213249726E-02  0.13560886940E-02  0.10243007981E+01  0.10241126986E+01 0.  0.
     999903    2    3    3    0    0  0.72072304160E-01  0.96045510674E-01  0.53696614533E-01  0.13306624452E+00  0.20103280087E-01 0.  0.
         14    1    1    2    0    0  0.19444229006E-01 -0.23213249726E-02 -0.13560886940E-02  0.19629201914E-01  0.00000000000E+00 0. -1.
     999901    1    3    3    0    0 -0.91516533165E-01 -0.93724185701E-01 -0.52340525839E-01  0.89123455357E+00  0.88000000000E+00 0.  1.
        -11    1    4    4    0    0  0.39323285486E-01  0.39609966717E-01  0.17764528517E-01  0.58575676173E-01  0.51100000000E-03 0. -1.
         11    1    4    4    0    0  0.32749018673E-01  0.56435543957E-01  0.35932086016E-01  0.74490568344E-01  0.51100000000E-03 0.  1.
</event>
<event>
 8    1  0.9956970E+004  0.1043930E+01  0.7957747E-01            NaN
         13   -1    0    0    0    0  0.00000000000E+00  0.00000000000E+00  0.74505805969E-08  0.10566000000E+00  0.10566000000E+00 0. -1.
     999900   -1    0    0    0    0 -0.00000000000E+00 -0.00000000000E+00 -0.74505805969E-08  0.93827000000E+00  0.93827000000E+00 0.  1.
     999902    2    1    2    0    0  0.80822444992E-02  0.21033654856E-01 -0.27093382943E-01  0.10086909774E+01  0.10080752448E+01 0.  0.
     999903    2    3    3    0    0 -0.87150621463E-01  0.81113128977E-01 -0.12753520285E-01  0.12140045362E+00  0.20021172447E-01 0.  0.
         14    1    1    2    0    0 -0.80822444992E-02 -0.21033654856E-01  0.27093382943E-01  0.35239022574E-01  0.00000000000E+00 0. -1.
     999901    1    3    3    0    0  0.95232865962E-01 -0.60079474122E-01 -0.14339862658E-01  0.88729052380E+00  0.88000000000E+00 0. -1.
        -11    1    4    4    0    0 -0.38764910239E-01  0.26263312528E-01 -0.11626486237E-01  0.48248483437E-01  0.51100000000E-03 0. -1.
         11    1    4    4    0    0 -0.48385711224E-01  0.54849816449E-01 -0.11270340476E-02  0.73151970185E-01  0.51100000000E-03 0.  1.
</event>
<event>
 8    1  0.9956970E+004  0.1043930E+01  0.7957747E-01            NaN
         13   -1    0    0    0    0  0.00000000000E+00  0.00000000000E+00  0.74505805969E-08  0.10566000000E+00  0.10566000000E+00 0.  1.
     999900   -1    0    0    0    0 -0.00000000000E+00 -0.00000000000E+00 -0.74505805969E-08  0.93827000000E+00  0.93827000000E+00 0. -1.
     999902    2    1    2    0    0  0.16290140889E-01 -0.16951376170E-01 -0.15061041990E-02  0.10203718550E+01  0.10200998659E+01 0.  0.
     999903    2    3    3    0    0 -0.44251060859E-01  0.44660934535E-01 -0.11150191875E+00  0.12932730331E+00  0.18442289346E-01 0.  0.
         14    1    1    2    0    0 -0.16290140889E-01  0.16951376170E-01  0.15061041990E-02  0.23558144963E-01  0.00000000000E+00 0. -1.
     999901    1    3    3    0    0  0.60541201748E-01 -0.61612310705E-01  0.10999581455E+00  0.89104455172E+00  0.88000000000E+00 0.  1.
        -11    1    4    4    0    0 -0.31542962815E-01  0.29952764862E-01 -0.58723866076E-01  0.73081325891E-01  0.51100000000E-03 0.  1.
         11    1    4    4    0    0 -0.12708098044E-01  0.14708169674E-01 -0.52778052674E-01  0.56245977422E-01  0.51100000000E-03 0. -1.
</event>
<event>
 8    1  0.9956970E+004  0.1043930E+01  0.7957747E-01            NaN
         13   -1    0    0    0    0  0.00000000000E+00  0.00000000000E+00  0.74505805969E-08  0.10566000000E+00  0.10566000000E+00 0.  1.
     999900   -1    0    0    0    0 -0.00000000000E+00 -0.00000000000E+00 -0.74505805969E-08  0.93827000000E+00  0.93827000000E+00 0.  1.
     999902    2    1    2    0    0 -0.65730897499E-02  0.15913868734E-01 -0.16718433257E-01  0.10199307763E+01  0.10196483834E+01 0.  0.
     999903    2    3    3    0    0  0.10448790216E+00  0.72954137335E-01  0.19375273504E-01  0.13038544760E+00  0.19619782613E-01 0.  0.
         14    1    1    2    0    0  0.65730897499E-02 -0.15913868734E-01  0.16718433257E-01  0.23999223686E-01  0.00000000000E+00 0.  1.
     999901    1    3    3    0    0 -0.11106099191E+00 -0.57040268601E-01 -0.36093706762E-01  0.88954532871E+00  0.88000000000E+00 0.  1.
        -11    1    4    4    0    0  0.47557555289E-01  0.24716483227E-01  0.14896254063E-01  0.55630792861E-01  0.51100000000E-03 0. -1.
         11    1    4    4    0    0  0.56930346875E-01  0.48237654109E-01  0.44790194409E-02  0.74754654740E-01  0.51100000000E-03 0.  1.
</event>
<event>
 7    1  0.9956970E+004  0.1043930E+01  0.7957747E-01            NaN
         13   -1    0    0    0    0  0.00000000000E+00  0.00000000000E+00  0.74505805969E-08  0.10566000000E+00  0.10566000000E+00 0.  1.
     999900   -1    0    0    0    0 -0.00000000000E+00 -0.00000000000E+00 -0.74505805969E-08  0.93827000000E+00  0.93827000000E+00 0.  1.
     999903    2    1    2    0    0 -0.30973425226E-01  0.10024804961E+00  0.24656474837E-02  0.10678787903E+00  0.19711599888E-01 0.  0.
         14    1    1    2    0    0 -0.66930245823E-02  0.43058798855E-01 -0.10060775000E-01  0.44722208471E-01  0.00000000000E+00 0. -1.
     999901    1    1    2    0    0  0.37666449808E-01 -0.14330684846E+00  0.75951275167E-02  0.89241991250E+00  0.88000000000E+00 0. -1.
        -11    1    3    3    0    0 -0.11407926894E-01  0.44353298627E-01 -0.84366981628E-02  0.46570322009E-01  0.51100000000E-03 0. -1.
         11    1    3    3    0    0 -0.19565498332E-01  0.55894750983E-01  0.10902345647E-01  0.60217557024E-01  0.51100000000E-03 0.  1.
</event>
<event>
 8    1  0.9956970E+004  0.1043930E+01  0.7957747E-01            NaN
         13   -1    0    0    0    0  0.00000000000E+00  0.00000000000E+00  0.74505805969E-08  0.10566000000E+00  0.10566000000E+00 0.  1.
     999900   -1    0    0    0    0 -0.00000000000E+00 -0.00000000000E+00 -0.74505805969E-08  0.93827000000E+00  0.93827000000E+00 0. -1.
     999902    2    1    2    0    0  0.10064860673E-01 -0.40081807471E-02 -0.21658364750E-01  0.10197132352E+01  0.10194256375E+01 0.  0.
     999903    2    3    3    0    0 -0.11055643883E+00 -0.59542981107E-01  0.21597921772E-01  0.12869992539E+00  0.18141328651E-01 0.  0.
         14    1    1    2    0    0 -0.10064860673E-01  0.40081807471E-02  0.21658364750E-01  0.24216764791E-01  0.00000000000E+00 0.  1.
     999901    1    3    3    0    0  0.12062129950E+00  0.55534800360E-01 -0.43256286522E-01  0.89101330982E+00  0.88000000000E+00 0. -1.
        -11    1    4    4    0    0 -0.20800728527E-01 -0.39863456813E-02  0.57949872442E-02  0.21963703178E-01  0.51100000000E-03 0. -1.
         11    1    4    4    0    0 -0.89755710305E-01 -0.55556635426E-01  0.15802934528E-01  0.10673622222E+00  0.51100000000E-03 0.  1.
</event>
<event>
 8    1  0.9956970E+004  0.1043930E+01  0.7957747E-01            NaN
         13   -1    0    0    0    0  0.00000000000E+00  0.00000000000E+00  0.74505805969E-08  0.10566000000E+00  0.10566000000E+00 0. -1.
     999900   -1    0    0    0    0 -0.00000000000E+00 -0.00000000000E+00 -0.74505805969E-08  0.93827000000E+00  0.93827000000E+00 0. -1.
     999902    2    1    2    0    0 -0.20363325624E-01 -0.11732092728E-01 -0.39082761310E-02  0.10201060278E+01  0.10198277924E+01 0.  0.
     999903    2    3    3    0    0 -0.81236504448E-01  0.54101841700E-01  0.85105066780E-01  0.13108239140E+00  0.20330814359E-01 0.  0.
         14    1    1    2    0    0  0.20363325624E-01  0.11732092728E-01  0.39082761310E-02  0.23823972225E-01  0.00000000000E+00 0.  1.
     999901    1    3    3    0    0  0.60873178824E-01 -0.65833934428E-01 -0.89013342911E-01  0.88902363638E+00  0.88000000000E+00 0. -1.
        -11    1    4    4    0    0 -0.19288384272E-01  0.23183210199E-01  0.30588309010E-01  0.42958221239E-01  0.51100000000E-03 0.  1.
         11    1    4    4    0    0 -0.61948120177E-01  0.30918631501E-01  0.54516757770E-01  0.88124170158E-01  0.51100000000E-03 0. -1.
</event>
<event>
 8    1  0.9956970E+004  0.1043930E+01  0.7957747E-01            NaN
         13   -1    0    0    0    0  0.00000000000E+00  0.00000000000E+00  0.74505805969E-08  0.10566000000E+00  0.10566000000E+00 0.  1.
     999900   -1    0    0    0    0 -0.00000000000E+00 -0.00000000000E+00 -0.74505805969E-08  0.93827000000E+00  0.93827000000E+00 0. -1.
     999902    2    1    2    0    0 -0.59226937674E-02 -0.22817585094E-01 -0.40944446152E-02  0.10200033419E+01  0.10197226743E+01 0.  0.
     999903    2    3    3    0    0 -0.33549280383E-01  0.23068871690E-01 -0.12198854172E+00  0.13052719645E+00  0.22325269216E-01 0.  0.
         14    1    1    2    0    0  0.59226937674E-02  0.22817585094E-01  0.40944446152E-02  0.23926658097E-01  0.00000000000E+00 0.  1.
     999901    1    3    3    0    0  0.27626586615E-01 -0.45886456784E-01  0.11789409711E+00  0.88947614546E+00  0.88000000000E+00 0.  1.
        -11    1    4    4    0    0 -0.27550529431E-01  0.73557898319E-02 -0.62407218903E-01  0.68615314677E-01  0.51100000000E-03 0.  1.
         11    1    4    4    0    0 -0.59987509518E-02  0.15713081858E-01 -0.59581322818E-01  0.61911881769E-01  0.51100000000E-03 0. -1.
</event>
<event>
 8    1  0.9956970E+004  0.1043930E+01  0.7957747E-01            NaN
         13   -1    0    0    0    0  0.00000000000E+00  0.00000000000E+00  0.74505805969E-08  0.10566000000E+00  0.10566000000E+00 0.  1.
     999900   -1    0    0    0    0 -0.00000000000E+00 -0.00000000000E+00 -0.74505805969E-08  0.93827000000E+00  0.93827000000E+00 0.  1.
     999902    2    1    2    0    0 -0.19812976840E-01 -0.11239851541E-01 -0.57400465404E-02  0.10204388006E+01  0.10201683730E+01 0.  0.
     999903    2    3    3    0    0  0.71652287418E-01  0.15213344479E-01 -0.10505478757E+00  0.12974857168E+00  0.20801137484E-01 0.  0.
         14    1    1    2    0    0  0.19812976840E-01  0.11239851541E-01  0.57400465404E-02  0.23491199378E-01  0.00000000000E+00 0.  1.
     999901    1    3    3    0    0 -0.91465264257E-01 -0.26453196020E-01  0.99314741025E-01  0.89069022894E+00  0.88000000000E+00 0. -1.
        -11    1    4    4    0    0  0.42209530912E-01 -0.37365550859E-03 -0.50452614991E-01  0.65783824750E-01  0.51100000000E-03 0. -1.
         11    1    4    4    0    0  0.29442756506E-01  0.15586999988E-01 -0.54602172574E-01  0.63964746932E-01  0.51100000000E-03 0.  1.
</event>
<event>
 8    1  0.9956970E+004  0.1043930E+01  0.7957747E-01            NaN
         13   -1    0    0    0    0  0.00000000000E+00  0.00000000000E+00  0.74505805969E-08  0.10566000000E+00  0.10566000000E+00 0. -1.
     999900   -1    0    0    0    0 -0.00000000000E+00 -0.00000000000E+00 -0.74505805969E-08  0.93827000000E+00  0.93827000000E+00 0. -1.
     999902    2    1    2    0    0 -0.22589069222E-01 -0.32724517909E-02  0.55797922991E-02  0.10204329987E+01  0.10201624359E+01 0.  0.
     999903    2    3    3    0    0 -0.53980888942E-01  0.11530748806E+00 -0.25424458696E-01  0.13138411810E+00  0.20140263553E-01 0.  0.
         14    1    1    2    0    0  0.22589069222E-01  0.32724517909E-02 -0.55797922991E-02  0.23497001323E-01  0.00000000000E+00 0. -1.
     999901    1    3    3    0    0  0.31391819719E-01 -0.11857993985E+00  0.31004250995E-01  0.88904888058E+00  0.88000000000E+00 0. -1.
        -11    1    4    4    0    0 -0.19331238506E-01  0.25623046031E-01 -0.69800345691E-03  0.32108964479E-01  0.51100000000E-03 0. -1.
         11    1    4    4    0    0 -0.34649650436E-01  0.89684442024E-01 -0.24726455239E-01  0.99275153619E-01  0.51100000000E-03 0.  1.
</event>
<event>
 8    1  0.9956970E+004  0.1043930E+01  0.7957747E-01            NaN
         13   -1    0    0    0    0  0.00000000000E+00  0.00000000000E+00  0.74505805969E-08  0.10566000000E+00  0.10566000000E+00 0.  1.
     999900   -1    0    0    0    0 -0.00000000000E+00 -0.00000000000E+00 -0.74505805969E-08  0.93827000000E+00  0.93827000000E+00 0.  1.
     999902    2    1    2    0    0 -0.19673357297E-01 -0.57307096122E-02 -0.11516899572E-01  0.10204242348E+01  0.10201534679E+01 0.  0.
     999903    2    3    3    0    0  0.89076192080E-01  0.91903434314E-01  0.32325548201E-02  0.12824911921E+00  0.75218304012E-02 0.  0.
         14    1    1    2    0    0  0.19673357297E-01  0.57307096122E-02  0.11516899572E-01  0.23505765160E-01  0.00000000000E+00 0.  1.
     999901    1    3    3    0    0 -0.10874954938E+00 -0.97634143927E-01 -0.14749454392E-01  0.89217511563E+00  0.88000000000E+00 0.  1.
        -11    1    4    4    0    0  0.82118341289E-01  0.83460877400E-01  0.11057229791E-02  0.11709237284E+00  0.51100000000E-03 0.  1.
         11    1    4    4    0    0  0.69578507907E-02  0.84425569141E-02  0.21268318409E-02  0.11156746369E-01  0.51100000000E-03 0. -1.
</event>
<event>
 8    1  0.9956970E+004  0.1043930E+01  0.7957747E-01            NaN
         13   -1    0    0    0    0  0.00000000000E+00  0.00000000000E+00  0.74505805969E-08  0.10566000000E+00  0.10566000000E+00 0.  1.
     999900   -1    0    0    0    0 -0.00000000000E+00 -0.00000000000E+00 -0.74505805969E-08  0.93827000000E+00  0.93827000000E+00 0. -1.
     999902    2    1    2    0    0 -0.18309849287E-01  0.12631820155E-01  0.37716533844E-02  0.10213681111E+01  0.10211188861E+01 0.  0.
     999903    2    3    3    0    0 -0.11688244047E+00 -0.18858841593E-01  0.58237606540E-01  0.13363236351E+00  0.21185583879E-01 0.  0.
         14    1    1    2    0    0  0.18309849287E-01 -0.12631820155E-01 -0.37716533844E-02  0.22561888897E-01  0.00000000000E+00 0. -1.
     999901    1    3    3    0    0  0.98572591182E-01  0.31490661748E-01 -0.54465953156E-01  0.88773574760E+00  0.88000000000E+00 0. -1.
        -11    1    4    4    0    0 -0.54034795106E-01 -0.60516185204E-04  0.19500432723E-01  0.57448156992E-01  0.51100000000E-03 0.  1.
         11    1    4    4    0    0 -0.62847645363E-01 -0.18798325407E-01  0.38737173817E-01  0.76184206514E-01  0.51100000000E-03 0. -1.
</event>
<event>
 8    1  0.9956970E+004  0.1043930E+01  0.7957747E-01            NaN
         13   -1    0    0    0    0  0.00000000000E+00  0.00000000000E+00  0.74505805969E-08  0.10566000000E+00  0.10566000000E+00 0.  1.
     999900   -1    0    0    0    0 -0.00000000000E+00 -0.00000000000E+00 -0.74505805969E-08  0.93827000000E+00  0.93827000000E+00 0.  1.
     999902    2    1    2    0    0 -0.10852296056E-02  0.23752399661E-01 -0.30018349687E-02  0.10199640820E+01  0.10196824816E+01 0.  0.
     999903    2    3    3    0    0  0.77325892680E-01  0.64709279433E-01 -0.82772066957E-01  0.13193871072E+00  0.19749020116E-01 0.  0.
         14    1    1    2    0    0  0.10852296056E-02 -0.23752399661E-01  0.30018349687E-02  0.23965918012E-01  0.00000000000E+00 0. -1.
     999901    1    3    3    0    0 -0.78411122286E-01 -0.40956879771E-01  0.79770231988E-01  0.88802537126E+00  0.88000000000E+00 0. -1.
        -11    1    4    4    0    0  0.65350239442E-01  0.46852961956E-01 -0.58079240813E-01  0.99193312141E-01  0.51100000000E-03 0. -1.
         11    1    4    4    0    0  0.11975653238E-01  0.17856317477E-01 -0.24692826144E-01  0.32745398582E-01  0.51100000000E-03 0.  1.
</event>
<event>
 8    1  0.9956970E+004  0.1043930E+01  0.7957747E-01            NaN
         13   -1    0    0    0    0  0.00000000000E+00  0.00000000000E+00  0.74505805969E-08  0.10566000000E+00  0.10566000000E+00 0. -1.
     999900   -1    0    0    0    0 -0.00000000000E+00 -0.00000000000E+00 -0.74505805969E-08  0.93827000000E+00  0.93827000000E+00 0.  1.
     999902    2    1    2    0    0  0.16311150893E-01 -0.14348409736E-01 -0.10401602088E-01  0.10198442401E+01  0.10195597825E+01 0.  0.
     999903    2    3    3    0    0  0.85922098493E-02 -0.13035393156E+00  0.16163280688E-02  0.13211607571E+00  0.19648699770E-01 0.  0.
         14    1    1    2    0    0 -0.16311150893E-01  0.14348409736E-01  0.10401602088E-01  0.24085759930E-01  0.00000000000E+00 0. -1.
     999901    1    3    3    0    0  0.77189410440E-02  0.11600552182E+00 -0.12017930156E-01  0.88772816436E+00  0.88000000000E+00 0.  1.
        -11    1    4    4    0    0  0.12230018798E-01 -0.78708583818E-01  0.74998983985E-02  0.80007025463E-01  0.51100000000E-03 0. -1.
         11    1    4    4    0    0 -0.36378089490E-02 -0.51645347742E-01 -0.58835703296E-02  0.52109050252E-01  0.51100000000E-03 0.  1.
</event>
<event>
 8    1  0.9956970E+004  0.1043930E+01  0.7957747E-01            NaN
         13   -1    0    0    0    0  0.00000000000E+00  0.00000000000E+00  0.74505805969E-08  0.10566000000E+00  0.10566000000E+00 0.  1.
     999900   -1    0    0    0    0 -0.00000000000E+00 -0.00000000000E+00 -0.74505805969E-08  0.93827000000E+00  0.93827000000E+00 0. -1.
     999902    2    1    2    0    0 -0.16701759353E-01  0.33019508543E-04  0.16159338246E-01  0.10206905063E+01  0.10204259089E+01 0.  0.
     999903    2    3    3    0    0  0.50151377658E-01  0.48095272521E-01  0.11161865808E+00  0.13170692722E+00  0.77248900365E-02 0.  0.
         14    1    1    2    0    0  0.16701759353E-01 -0.33019508543E-04 -0.16159338246E-01  0.23239493719E-01  0.00000000000E+00 0.  1.
     999901    1    3    3    0    0 -0.66853137011E-01 -0.48062253013E-01 -0.95459319837E-01  0.88898357906E+00  0.88000000000E+00 0. -1.
        -11    1    4    4    0    0  0.20855930877E-01  0.20654624887E-01  0.40181668877E-01  0.49763551086E-01  0.51100000000E-03 0. -1.
         11    1    4    4    0    0  0.29295446781E-01  0.27440647634E-01  0.71436989206E-01  0.81943376136E-01  0.51100000000E-03 0.  1.
</event>
<event>
 8    1  0.9956970E+004  0.1043930E+01  0.7957747E-01            NaN
         13   -1    0    0    0    0  0.00000000000E+00  0.00000000000E+00  0.74505805969E-08  0.10566000000E+00  0.10566000000E+00 0. -1.
     999900   -1    0    0    0    0 -0.00000000000E+00 -0.00000000000E+00 -0.74505805969E-08  0.93827000000E+00  0.93827000000E+00 0. -1.
     999902    2    1    2    0    0  0.52799793540E-02  0.15066394451E-01 -0.17897784919E-01  0.10199465655E+01  0.10196645485E+01 0.  0.
     999903    2    3    3    0    0  0.65464335432E-01 -0.58713531485E-01  0.89666851937E-01  0.12829877336E+00  0.26221611633E-01 0.  0.
         14    1    1    2    0    0 -0.52799793540E-02 -0.15066394451E-01  0.17897784919E-01  0.23983434465E-01  0.00000000000E+00 0. -1.
     999901    1    3    3    0    0 -0.60184356078E-01  0.73779925936E-01 -0.10756463686E+00  0.89164779217E+00  0.88000000000E+00 0. -1.
        -11    1    4    4    0    0  0.39293340706E-01 -0.44019445166E-01  0.43821454550E-01  0.73500062425E-01  0.51100000000E-03 0. -1.
         11    1    4    4    0    0  0.26170994725E-01 -0.14694086319E-01  0.45845397386E-01  0.54798710935E-01  0.51100000000E-03 0.  1.
</event>
<event>
 8    1  0.9956970E+004  0.1043930E+01  0.7957747E-01            NaN
         13   -1    0    0    0    0  0.00000000000E+00  0.00000000000E+00  0.74505805969E-08  0.10566000000E+00  0.10566000000E+00 0.  1.
     999900   -1    0    0    0    0 -0.00000000000E+00 -0.00000000000E+00 -0.74505805969E-08  0.93827000000E+00  0.93827000000E+00 0. -1.
     999902    2    1    2    0    0  0.20850261999E-01 -0.76223723285E-02 -0.94018522163E-02  0.10198213126E+01  0.10195363067E+01 0.  0.
     999903    2    3    3    0    0 -0.33885186629E-01  0.87731770373E-01  0.84696153767E-01  0.12800136627E+00  0.19126993941E-01 0.  0.
         14    1    1    2    0    0 -0.20850261999E-01  0.76223723285E-02  0.94018522163E-02  0.24108687447E-01  0.00000000000E+00 0.  1.
     999901    1    3    3    0    0  0.54735448627E-01 -0.95354142702E-01 -0.94098005983E-01  0.89181994629E+00  0.88000000000E+00 0. -1.
        -11    1    4    4    0    0 -0.12898050286E-01  0.52518958538E-01  0.39426834992E-01  0.66927850298E-01  0.51100000000E-03 0.  1.
         11    1    4    4    0    0 -0.20987136342E-01  0.35212811835E-01  0.45269318775E-01  0.61073515967E-01  0.51100000000E-03 0. -1.
</event>
<event>
 8    1  0.9956970E+004  0.1043930E+01  0.7957747E-01            NaN
         13   -1    0    0    0    0  0.00000000000E+00  0.00000000000E+00  0.74505805969E-08  0.10566000000E+00  0.10566000000E+00 0. -1.
     999900   -1    0    0    0    0 -0.00000000000E+00 -0.00000000000E+00 -0.74505805969E-08  0.93827000000E+00  0.93827000000E+00 0. -1.
     999902    2    1    2    0    0 -0.92371092438E-04 -0.23327400230E-01 -0.69447136554E-02  0.10195906249E+01  0.10193000722E+01 0.  0.
     999903    2    3    3    0    0  0.10883957488E+00 -0.19819498446E-02 -0.69194235140E-01  0.13043552027E+00  0.19380443444E-01 0.  0.
         14    1    1    2    0    0  0.92371092438E-04  0.23327400230E-01  0.69447136554E-02  0.24339375129E-01  0.00000000000E+00 0.  1.
     999901    1    3    3    0    0 -0.10893194597E+00 -0.21345450386E-01  0.62249521485E-01  0.88915510460E+00  0.88000000000E+00 0.  1.
        -11    1    4    4    0    0  0.35392225236E-01 -0.45217563137E-02 -0.13218794194E-01  0.38053298520E-01  0.51100000000E-03 0.  1.
         11    1    4    4    0    0  0.73447349641E-01  0.25398064690E-02 -0.55975440946E-01  0.92382221755E-01  0.51100000000E-03 0. -1.
</event>
<event>
 8    1  0.9956970E+004  0.1043930E+01  0.7957747E-01            NaN
         13   -1    0    0    0    0  0.00000000000E+00  0.00000000000E+00  0.74505805969E-08  0.10566000000E+00  0.10566000000E+00 0.  1.
     999900   -1    0    0    0    0 -0.00000000000E+00 -0.00000000000E+00 -0.74505805969E-08  0.93827000000E+00  0.93827000000E+00 0.  1.
     999902    2    1    2    0    0 -0.82139707504E-02  0.21877096133E-01 -0.45065159172E-02  0.10201311484E+01  0.10198535065E+01 0.  0.
     999903    2    3    3    0    0 -0.12305727547E+00 -0.11835734874E-01 -0.39729364342E-01  0.13133072726E+00  0.19650950750E-01 0.  0.
         14    1    1    2    0    0  0.82139707504E-02 -0.21877096133E-01  0.45065159172E-02  0.23798851578E-01  0.00000000000E+00 0.  1.
     999901    1    3    3    0    0  0.11484330472E+00  0.33712831007E-01  0.35222848424E-01  0.88880042117E+00  0.88000000000E+00 0.  1.
        -11    1    4    4    0    0 -0.85513066126E-01 -0.77046343236E-02 -0.36888418821E-01  0.93449785620E-01  0.51100000000E-03 0.  1.
         11    1    4    4    0    0 -0.37544209342E-01 -0.41311005505E-02 -0.28409455201E-02  0.37880941637E-01  0.51100000000E-03 0. -1.
</event>
<event>
 8    1  0.9956970E+004  0.1043930E+01  0.7957747E-01            NaN
         13   -1    0    0    0    0  0.00000000000E+00  0.00000000000E+00  0.74505805969E-08  0.10566000000E+00  0.10566000000E+00 0. -1.
     999900   -1    0    0    0    0 -0.00000000000E+00 -0.00000000000E+00 -0.74505805969E-08  0.93827000000E+00  0.93827000000E+00 0. -1.
     999902    2    1    2    0    0  0.18828357709E-01  0.83216214906E-02  0.11728346674E-01  0.10202380065E+01  0.10199628814E+01 0.  0.
     999903    2    3    3    0    0  0.10794716108E+00 -0.57330733068E-01  0.46989715673E-01  0.13260308332E+00  0.20884007953E-01 0.  0.
         14    1    1    2    0    0 -0.18828357709E-01 -0.83216214906E-02 -0.11728346674E-01  0.23691993457E-01  0.00000000000E+00 0.  1.
     999901    1    3    3    0    0 -0.89118803373E-01  0.65652354558E-01 -0.35261368999E-01  0.88763492322E+00  0.88000000000E+00 0.  1.
        -11    1    4    4    0    0  0.21154452031E-01 -0.11003329613E-01  0.66880642946E-03  0.23859851767E-01  0.51100000000E-03 0.  1.
         11    1    4    4    0    0  0.86792709052E-01 -0.46327403455E-01  0.46320909244E-01  0.10874323156E+00  0.51100000000E-03 0. -1.
</event>
<event>
 8    1  0.1068857E+005  0.1043930E+01  0.7957747E-01            NaN
         13   -1    0    0    0    0  0.00000000000E+00  0.00000000000E+00  0.74505805969E-08  0.10566000000E+00  0.10566000000E+00 0. -1.
     999900   -1    0    0    0    0 -0.00000000000E+00 -0.00000000000E+00 -0.74505805969E-08  0.93827000000E+00  0.93827000000E+00 0. -1.
     999902    2    1    2    0    0 -0.58027292297E-02  0.13512904841E-01  0.18520157519E-01  0.10202811840E+01  0.10200070725E+01 0.  0.
     999903    2    3    3    0    0 -0.85773854024E-01  0.98704610487E-01  0.42073580988E-02  0.13244231138E+00  0.20579354096E-01 0.  0.
         14    1    1    2    0    0  0.58027292297E-02 -0.13512904841E-01 -0.18520157519E-01  0.23648816001E-01  0.00000000000E+00 0. -1.
     999901    1    3    3    0    0  0.79971124795E-01 -0.85191705646E-01  0.14312799420E-01  0.88783887262E+00  0.88000000000E+00 0.  1.
        -11    1    4    4    0    0 -0.43046041444E-01  0.45291509465E-01  0.11897783129E-01  0.63608968534E-01  0.51100000000E-03 0.  1.
         11    1    4    4    0    0 -0.42727812580E-01  0.53413101022E-01 -0.76904250300E-02  0.68833342842E-01  0.51100000000E-03 0. -1.
</event>
<event>
 8    1  0.9956970E+004  0.1043930E+01  0.7957747E-01            NaN
         13   -1    0    0    0    0  0.00000000000E+00  0.00000000000E+00  0.74505805969E-08  0.10566000000E+00  0.10566000000E+00 0.  1.
     999900   -1    0    0    0    0 -0.00000000000E+00 -0.00000000000E+00 -0.74505805969E-08  0.93827000000E+00  0.93827000000E+00 0.  1.
     999902    2    1    2    0    0  0.14565820500E-01  0.76489821341E-03  0.18631762948E-01  0.10202679885E+01  0.10199935674E+01 0.  0.
     999903    2    3    3    0    0  0.10854085391E+00  0.50816855684E-01 -0.49725453324E-01  0.13121837554E+00  0.19549209254E-01 0.  0.
         14    1    1    2    0    0 -0.14565820500E-01 -0.76489821341E-03 -0.18631762948E-01  0.23662011467E-01  0.00000000000E+00 0. -1.
     999901    1    3    3    0    0 -0.93975033406E-01 -0.50051957470E-01  0.68357216271E-01  0.88904961300E+00  0.88000000000E+00 0.  1.
        -11    1    4    4    0    0  0.95123643039E-01  0.43425747634E-01 -0.49958772073E-01  0.11588978838E+00  0.51100000000E-03 0. -1.
         11    1    4    4    0    0  0.13417210867E-01  0.73911080499E-02  0.23331874915E-03  0.15328587159E-01  0.51100000000E-03 0.  1.
</event>
<event>
 8    1  0.9956970E+004  0.1043930E+01  0.7957747E-01            NaN
         13   -1    0    0    0    0  0.00000000000E+00  0.00000000000E+00  0.74505805969E-08  0.10566000000E+00  0.10566000000E+00 0. -1.
     999900   -1    0    0    0    0 -0.00000000000E+00 -0.00000000000E+00 -0.74505805969E-08  0.93827000000E+00  0.93827000000E+00 0. -1.
     999902    2    1    2    0    0  0.10352463769E-01  0.15107463276E-01 -0.15232176021E-01  0.10201092498E+01  0.10198310906E+01 0.  0.
     999903    2    3    3    0    0 -0.99409744108E-01 -0.20082802345E-01  0.74790445373E-01  0.12803852985E+00  0.22685639353E-01 0.  0.
         14    1    1    2    0    0 -0.10352463769E-01 -0.15107463276E-01  0.15232176021E-01  0.23820750178E-01  0.00000000000E+00 0. -1.
     999901    1    3    3    0    0  0.10976220788E+00  0.35190265621E-01 -0.90022621394E-01  0.89207071997E+00  0.88000000000E+00 0. -1.
        -11    1    4    4    0    0 -0.57007684914E-01 -0.34332868076E-02  0.31648098087E-01  0.65295687692E-01  0.51100000000E-03 0.  1.
         11    1    4    4    0    0 -0.42402059194E-01 -0.16649515537E-01  0.43142347286E-01  0.62742842156E-01  0.51100000000E-03 0. -1.
</event>
<event>
 8    1  0.9956970E+004  0.1043930E+01  0.7957747E-01            NaN
         13   -1    0    0    0    0  0.00000000000E+00  0.00000000000E+00  0.74505805969E-08  0.10566000000E+00  0.10566000000E+00 0.  1.
     999900   -1    0    0    0    0 -0.00000000000E+00 -0.00000000000E+00 -0.74505805969E-08  0.93827000000E+00  0.93827000000E+00 0.  1.
     999902    2    1    2    0    0  0.22183241928E-01  0.38628940029E-02 -0.91438743010E-02  0.10196271481E+01  0.10193374773E+01 0.  0.
     999903    2    3    3    0    0  0.59415530964E-01 -0.69055839583E-01  0.91107228207E-01  0.13015895385E+00  0.18490860866E-01 0.  0.
         14    1    1    2    0    0 -0.22183241928E-01 -0.38628940029E-02  0.91438743010E-02  0.24302851885E-01  0.00000000000E+00 0.  1.
     999901    1    3    3    0    0 -0.37232289036E-01  0.72918733586E-01 -0.10025110251E+00  0.88946819426E+00  0.88000000000E+00 0.  1.
        -11    1    4    4    0    0  0.55290161308E-02 -0.17117901960E-01  0.15152979720E-01  0.23525868790E-01  0.51100000000E-03 0. -1.
         11    1    4    4    0    0  0.53886514833E-01 -0.51937937623E-01  0.75954248487E-01  0.10663308506E+00  0.51100000000E-03 0.  1.
</event>
<event>
 8    1  0.9956970E+004  0.1043930E+01  0.7957747E-01            NaN
         13   -1    0    0    0    0  0.00000000000E+00  0.00000000000E+00  0.74505805969E-08  0.10566000000E+00  0.10566000000E+00 0. -1.
     999900   -1    0    0    0    0 -0.00000000000E+00 -0.00000000000E+00 -0.74505805969E-08  0.93827000000E+00  0.93827000000E+00 0.  1.
     999902    2    1    2    0    0  0.21812500717E-01  0.55535909438E-04  0.83273414210E-02  0.10205819190E+01  0.10203148144E+01 0.  0.
     999903    2    3    3    0    0  0.80361467093E-01 -0.10973504165E-01  0.10389876355E+00  0.13340464363E+00  0.20578209043E-01 0.  0.
         14    1    1    2    0    0 -0.21812500717E-01 -0.55535909438E-04 -0.83273414210E-02  0.23348081011E-01  0.00000000000E+00 0.  1.
     999901    1    3    3    0    0 -0.58548966376E-01  0.11029040075E-01 -0.95571422128E-01  0.88717727536E+00  0.88000000000E+00 0.  1.
        -11    1    4    4    0    0  0.33373881667E-01 -0.89969304846E-02  0.29802850169E-01  0.45642433490E-01  0.51100000000E-03 0.  1.
         11    1    4    4    0    0  0.46987585426E-01 -0.19765736808E-02  0.74095913380E-01  0.87762210138E-01  0.51100000000E-03 0. -1.
</event>
<event>
 8    1  0.9956970E+004  0.1043930E+01  0.7957747E-01            NaN
         13   -1    0    0    0    0  0.00000000000E+00  0.00000000000E+00  0.74505805969E-08  0.10566000000E+00  0.10566000000E+00 0.  1.
     999900   -1    0    0    0    0 -0.00000000000E+00 -0.00000000000E+00 -0.74505805969E-08  0.93827000000E+00  0.93827000000E+00 0. -1.
     999902    2    1    2    0    0 -0.13699978734E-02  0.22763413517E-01 -0.95609879497E-02  0.10192022346E+01  0.10189022194E+01 0.  0.
     999903    2    3    3    0    0  0.34389455371E-01  0.41855605744E-01 -0.11829168753E+00  0.13158429018E+00  0.19671698186E-01 0.  0.
         14    1    1    2    0    0  0.13699978734E-02 -0.22763413517E-01  0.95609879497E-02  0.24727765360E-01  0.00000000000E+00 0.  1.
     999901    1    3    3    0    0 -0.35759453244E-01 -0.19092192227E-01  0.10873069958E+00  0.88761794446E+00  0.88000000000E+00 0.  1.
        -11    1    4    4    0    0  0.17380135260E-01  0.31317137877E-01 -0.90532709587E-01  0.97361516281E-01  0.51100000000E-03 0.  1.
         11    1    4    4    0    0  0.17009320111E-01  0.10538467868E-01 -0.27758977945E-01  0.34222773896E-01  0.51100000000E-03 0. -1.
</event>
<event>
 8    1  0.9956970E+004  0.1043930E+01  0.7957747E-01            NaN
         13   -1    0    0    0    0  0.00000000000E+00  0.00000000000E+00  0.74505805969E-08  0.10566000000E+00  0.10566000000E+00 0. -1.
     999900   -1    0    0    0    0 -0.00000000000E+00 -0.00000000000E+00 -0.74505805969E-08  0.93827000000E+00  0.93827000000E+00 0.  1.
     999902    2    1    2    0    0  0.14966654931E-02  0.20842821452E-01  0.79273421065E-02  0.10215803699E+01  0.10213358635E+01 0.  0.
     999903    2    3    3    0    0 -0.90462725070E-01  0.94866681846E-01 -0.12623530194E-01  0.13345965749E+00  0.21654900402E-01 0.  0.
         14    1    1    2    0    0 -0.14966654931E-02 -0.20842821452E-01 -0.79273421065E-02  0.22349630121E-01  0.00000000000E+00 0. -1.
     999901    1    3    3    0    0  0.91959390563E-01 -0.74023860394E-01  0.20550872301E-01  0.88812071239E+00  0.88000000000E+00 0.  1.
        -11    1    4    4    0    0 -0.23869845779E-01  0.13445729663E-01  0.84550585445E-03  0.27414105581E-01  0.51100000000E-03 0. -1.
         11    1    4    4    0    0 -0.66592879291E-01  0.81420952183E-01 -0.13469036049E-01  0.10604555191E+00  0.51100000000E-03 0.  1.
</event>
<event>
 8    1  0.9956970E+004  0.1043930E+01  0.7957747E-01            NaN
         13   -1    0    0    0    0  0.00000000000E+00  0.00000000000E+00  0.74505805969E-08  0.10566000000E+00  0.10566000000E+00 0.  1.
     999900   -1    0    0    0    0 -0.00000000000E+00 -0.00000000000E+00 -0.74505805969E-08  0.93827000000E+00  0.93827000000E+00 0. -1.
     999902    2    1    2    0    0  0.22829987059E-02 -0.27065149403E-02  0.17873807238E-01  0.10257088504E+01  0.10255469934E+01 0.  0.
     999903    2    3    3    0    0 -0.66059506469E-01 -0.10057174072E+00  0.61056522989E-01  0.13660084385E+00  0.21292207840E-01 0.  0.
         14    1    1    2    0    0 -0.22829987059E-02  0.27065149403E-02 -0.17873807238E-01  0.18221149563E-01  0.00000000000E+00 0. -1.
     999901    1    3    3    0    0  0.68342505175E-01  0.97865225784E-01 -0.43182715751E-01  0.88910800658E+00  0.88000000000E+00 0.  1.
        -11    1    4    4    0    0 -0.33576384965E-01 -0.47458545573E-01  0.41179571219E-01  0.71243984882E-01  0.51100000000E-03 0.  1.
         11    1    4    4    0    0 -0.32483121504E-01 -0.53113195152E-01  0.19876951771E-01  0.65356858971E-01  0.51100000000E-03 0. -1.
</event>
<event>
 8    1  0.9956970E+004  0.1043930E+01  0.7957747E-01            NaN
         13   -1    0    0    0    0  0.00000000000E+00  0.00000000000E+00  0.74505805969E-08  0.10566000000E+00  0.10566000000E+00 0. -1.
     999900   -1    0    0    0    0 -0.00000000000E+00 -0.00000000000E+00 -0.74505805969E-08  0.93827000000E+00  0.93827000000E+00 0.  1.
     999902    2    1    2    0    0 -0.11204451659E-01  0.24651547351E-02  0.22513262271E-01  0.10186621607E+01  0.10183487290E+01 0.  0.
     999903    2    3    3    0    0  0.91726386711E-01 -0.55780096902E-01  0.69309666976E-01  0.12951809458E+00  0.21117709565E-01 0.  0.
         14    1    1    2    0    0  0.11204451659E-01 -0.24651547351E-02 -0.22513262271E-01  0.25267839301E-01  0.00000000000E+00 0.  1.
     999901    1    3    3    0    0 -0.10293083837E+00  0.58245251637E-01 -0.46796404704E-01  0.88914406612E+00  0.88000000000E+00 0.  1.
        -11    1    4    4    0    0  0.51941668147E-01 -0.23634022984E-01  0.26984602523E-01  0.63126332276E-01  0.51100000000E-03 0. -1.
         11    1    4    4    0    0  0.39784718564E-01 -0.32146073918E-01  0.42325064453E-01  0.66391762301E-01  0.51100000000E-03 0.  1.
</event>
<event>
 8    1  0.9956970E+004  0.1043930E+01  0.7957747E-01            NaN
         13   -1    0    0    0    0  0.00000000000E+00  0.00000000000E+00  0.74505805969E-08  0.10566000000E+00  0.10566000000E+00 0. -1.
     999900   -1    0    0    0    0 -0.00000000000E+00 -0.00000000000E+00 -0.74505805969E-08  0.93827000000E+00  0.93827000000E+00 0. -1.
     999902    2    1    2    0    0 -0.86331315535E-02  0.38385020772E-02  0.21131018133E-01  0.10207829703E+01  0.10205204983E+01 0.  0.
     999903    2    3    3    0    0  0.25812068400E-01  0.10697521358E+00  0.71312256374E-01  0.13267159789E+00  0.20158268299E-01 0.  0.
         14    1    1    2    0    0  0.86331315535E-02 -0.38385020772E-02 -0.21131018133E-01  0.23147029743E-01  0.00000000000E+00 0.  1.
     999901    1    3    3    0    0 -0.34445199954E-01 -0.10313671151E+00 -0.50181238241E-01  0.88811137237E+00  0.88000000000E+00 0. -1.
        -11    1    4    4    0    0  0.17800118030E-01  0.40727234795E-01  0.35825747100E-01  0.57090254266E-01  0.51100000000E-03 0. -1.
         11    1    4    4    0    0  0.80119503704E-02  0.66247978787E-01  0.35486509274E-01  0.75581343621E-01  0.51100000000E-03 0.  1.
</event>
<event>
 8    1  0.9956970E+004  0.1043930E+01  0.7957747E-01            NaN
         13   -1    0    0    0    0  0.00000000000E+00  0.00000000000E+00  0.74505805969E-08  0.10566000000E+00  0.10566000000E+00 0. -1.
     999900   -1    0    0    0    0 -0.00000000000E+00 -0.00000000000E+00 -0.74505805969E-08  0.93827000000E+00  0.93827000000E+00 0.  1.
     999902    2    1    2    0    0 -0.63557362694E-02  0.21764877895E-01 -0.80851439378E-02  0.10198577162E+01  0.10195735807E+01 0.  0.
     999903    2    3    3    0    0 -0.53063694779E-01  0.11131737233E+00  0.44300736512E-01  0.13253276836E+00  0.19876275968E-01 0.  0.
         14    1    1    2    0    0  0.63557362694E-02 -0.21764877895E-01  0.80851439378E-02  0.24072283768E-01  0.00000000000E+00 0. -1.
     999901    1    3    3    0    0  0.46707958509E-01 -0.89552494439E-01 -0.52385880450E-01  0.88732494787E+00  0.88000000000E+00 0.  1.
        -11    1    4    4    0    0 -0.20758297398E-01  0.64522453000E-01  0.19802261066E-01  0.70614761321E-01  0.51100000000E-03 0. -1.
         11    1    4    4    0    0 -0.32305397381E-01  0.46794919334E-01  0.24498475446E-01  0.61918007038E-01  0.51100000000E-03 0.  1.
</event>
<event>
 8    1  0.9956970E+004  0.1043930E+01  0.7957747E-01            NaN
         13   -1    0    0    0    0  0.00000000000E+00  0.00000000000E+00  0.74505805969E-08  0.10566000000E+00  0.10566000000E+00 0.  1.
     999900   -1    0    0    0    0 -0.00000000000E+00 -0.00000000000E+00 -0.74505805969E-08  0.93827000000E+00  0.93827000000E+00 0.  1.
     999902    2    1    2    0    0 -0.16336671986E-01  0.15562393901E-01  0.65882532225E-02  0.10204251061E+01  0.10201543595E+01 0.  0.
     999903    2    3    3    0    0 -0.56938319084E-01 -0.11516372232E+00  0.10285351937E-02  0.12982490308E+00  0.18675986084E-01 0.  0.
         14    1    1    2    0    0  0.16336671986E-01 -0.15562393901E-01 -0.65882532225E-02  0.23504893874E-01  0.00000000000E+00 0. -1.
     999901    1    3    3    0    0  0.40601647098E-01  0.13072611622E+00  0.55597180289E-02  0.89060020305E+00  0.88000000000E+00 0. -1.
        -11    1    4    4    0    0 -0.27581866264E-01 -0.63501833909E-01 -0.80931079791E-02  0.69706540398E-01  0.51100000000E-03 0.  1.
         11    1    4    4    0    0 -0.29356452820E-01 -0.51661888407E-01  0.91216431728E-02  0.60118362678E-01  0.51100000000E-03 0. -1.
</event>
<event>
 8    1  0.9956970E+004  0.1043930E+01  0.7957747E-01            NaN
         13   -1    0    0    0    0  0.00000000000E+00  0.00000000000E+00  0.74505805969E-08  0.10566000000E+00  0.10566000000E+00 0. -1.
     999900   -1    0    0    0    0 -0.00000000000E+00 -0.00000000000E+00 -0.74505805969E-08  0.93827000000E+00  0.93827000000E+00 0. -1.
     999902    2    1    2    0    0 -0.90272664773E-02  0.17459280270E-01  0.13254152448E-01  0.10202236598E+01  0.10199481975E+01 0.  0.
     999903    2    3    3    0    0  0.62644242236E-01 -0.13239167399E-01  0.11278692820E+00  0.13118711766E+00  0.19738085743E-01 0.  0.
         14    1    1    2    0    0  0.90272664773E-02 -0.17459280270E-01 -0.13254152448E-01  0.23706340180E-01  0.00000000000E+00 0.  1.
     999901    1    3    3    0    0 -0.71671508713E-01  0.30698447669E-01 -0.99532775749E-01  0.88903654216E+00  0.88000000000E+00 0. -1.
        -11    1    4    4    0    0  0.14532438645E-01  0.50379276240E-02  0.29698088156E-01  0.33448618041E-01  0.51100000000E-03 0. -1.
         11    1    4    4    0    0  0.48111803591E-01 -0.18277095023E-01  0.83088840040E-01  0.97738499617E-01  0.51100000000E-03 0.  1.
</event>
<event>
 8    1  0.9956970E+004  0.1043930E+01  0.7957747E-01            NaN
         13   -1    0    0    0    0  0.00000000000E+00  0.00000000000E+00  0.74505805969E-08  0.10566000000E+00  0.10566000000E+00 0.  1.
     999900   -1    0    0    0    0 -0.00000000000E+00 -0.00000000000E+00 -0.74505805969E-08  0.93827000000E+00  0.93827000000E+00 0.  1.
     999902    2    1    2    0    0  0.21303500687E-01  0.57678952904E-02  0.70201069164E-02  0.10207699124E+01  0.10205071408E+01 0.  0.
     999903    2    3    3    0    0  0.46668126043E-01  0.30710636974E-01  0.11901533153E+00  0.13295887678E+00  0.19807992426E-01 0.  0.
         14    1    1    2    0    0 -0.21303500687E-01 -0.57678952904E-02 -0.70201069164E-02  0.23160087623E-01  0.00000000000E+00 0. -1.
     999901    1    3    3    0    0 -0.25364625356E-01 -0.24942741684E-01 -0.11199522462E+00  0.88781103559E+00  0.88000000000E+00 0.  1.
        -11    1    4    4    0    0  0.27718881605E-01  0.66228094854E-02  0.61547930619E-01  0.67827773717E-01  0.51100000000E-03 0. -1.
         11    1    4    4    0    0  0.18949244438E-01  0.24087827489E-01  0.57467400915E-01  0.65131103068E-01  0.51100000000E-03 0.  1.
</event>
<event>
 8    1  0.9956970E+004  0.1043930E+01  0.7957747E-01            NaN
         13   -1    0    0    0    0  0.00000000000E+00  0.00000000000E+00  0.74505805969E-08  0.10566000000E+00  0.10566000000E+00 0.  1.
     999900   -1    0    0    0    0 -0.00000000000E+00 -0.00000000000E+00 -0.74505805969E-08  0.93827000000E+00  0.93827000000E+00 0. -1.
     999902    2    1    2    0    0 -0.21481447765E-01 -0.90412405413E-03 -0.86760561326E-02  0.10207450051E+01  0.10204816615E+01 0.  0.
     999903    2    3    3    0    0 -0.11861918135E+00  0.49410807083E-01  0.27813236105E-01  0.13322103358E+00  0.21501852099E-01 0.  0.
         14    1    1    2    0    0  0.21481447765E-01  0.90412405413E-03  0.86760561326E-02  0.23184994897E-01  0.00000000000E+00 0. -1.
     999901    1    3    3    0    0  0.97137733588E-01 -0.50314931137E-01 -0.36489292237E-01  0.88752397152E+00  0.88000000000E+00 0. -1.
        -11    1    4    4    0    0 -0.38607052487E-01  0.81521945497E-02  0.17550564321E-02  0.39500685080E-01  0.51100000000E-03 0. -1.
         11    1    4    4    0    0 -0.80012128866E-01  0.41258612533E-01  0.26058179672E-01  0.93720348498E-01  0.51100000000E-03 0.  1.
</event>
<event>
 8    1  0.9956970E+004  0.1043930E+01  0.7957747E-01            NaN
         13   -1    0    0    0    0  0.00000000000E+00  0.00000000000E+00  0.74505805969E-08  0.10566000000E+00  0.10566000000E+00 0. -1.
     999900   -1    0    0    0    0 -0.00000000000E+00 -0.00000000000E+00 -0.74505805969E-08  0.93827000000E+00  0.93827000000E+00 0.  1.
     999902    2    1    2    0    0  0.99460869604E-02 -0.19850513993E-01 -0.85407399400E-02  0.10201410994E+01  0.10198636923E+01 0.  0.
     999903    2    3    3    0    0 -0.75179005301E-01  0.27100216299E-01 -0.10092996960E+00  0.12998020264E+00  0.17935711689E-01 0.  0.
         14    1    1    2    0    0 -0.99460869604E-02  0.19850513993E-01  0.85407399400E-02  0.23788900570E-01  0.00000000000E+00 0. -1.
     999901    1    3    3    0    0  0.85125092261E-01 -0.46950730292E-01  0.92389229665E-01  0.89016089679E+00  0.88000000000E+00 0. -1.
        -11    1    4    4    0    0 -0.38941820358E-01  0.10253525071E-01 -0.63687941975E-01  0.75352605949E-01  0.51100000000E-03 0.  1.
         11    1    4    4    0    0 -0.36237184942E-01  0.16846691228E-01 -0.37242027629E-01  0.54627596696E-01  0.51100000000E-03 0. -1.
</event>
<event>
 8    1  0.9956970E+004  0.1043930E+01  0.7957747E-01            NaN
         13   -1    0    0    0    0  0.00000000000E+00  0.00000000000E+00  0.74505805969E-08  0.10566000000E+00  0.10566000000E+00 0.  1.
     999900   -1    0    0    0    0 -0.00000000000E+00 -0.00000000000E+00 -0.74505805969E-08  0.93827000000E+00  0.93827000000E+00 0.  1.
     999902    2    1    2    0    0  0.12330706544E-01 -0.21116661985E-01 -0.19342932785E-03  0.10194760197E+01  0.10191826910E+01 0.  0.
     999903    2    3    3    0    0  0.54220343129E-01 -0.11571805480E+00  0.27456602481E-01  0.13298366811E+00  0.24500554060E-01 0.  0.
         14    1    1    2    0    0 -0.12330706544E-01  0.21116661985E-01  0.19342932785E-03  0.24453980293E-01  0.00000000000E+00 0. -1.
     999901    1    3    3    0    0 -0.41889636585E-01  0.94601392815E-01 -0.27650031809E-01  0.88649235159E+00  0.88000000000E+00 0.  1.
        -11    1    4    4    0    0  0.49991863551E-01 -0.96109968368E-01  0.15007142522E-01  0.10936995880E+00  0.51100000000E-03 0. -1.
         11    1    4    4    0    0  0.42284795772E-02 -0.19608086433E-01  0.12449459959E-01  0.23613709310E-01  0.51100000000E-03 0.  1.
</event>
<event>
 8    1  0.9956970E+004  0.1043930E+01  0.7957747E-01            NaN
         13   -1    0    0    0    0  0.00000000000E+00  0.00000000000E+00  0.74505805969E-08  0.10566000000E+00  0.10566000000E+00 0. -1.
     999900   -1    0    0    0    0 -0.00000000000E+00 -0.00000000000E+00 -0.74505805969E-08  0.93827000000E+00  0.93827000000E+00 0.  1.
     999902    2    1    2    0    0 -0.10719286427E-01  0.89899608177E-02  0.19240804700E-01  0.10201406944E+01  0.10198632777E+01 0.  0.
     999903    2    3    3    0    0 -0.12024543965E+00  0.32634118666E-01 -0.37038629729E-01  0.13125240038E+00  0.18203874780E-01 0.  0.
         14    1    1    2    0    0  0.10719286427E-01 -0.89899608177E-02 -0.19240804700E-01  0.23789305633E-01  0.00000000000E+00 0.  1.
     999901    1    3    3    0    0  0.10952615322E+00 -0.23644157848E-01  0.56279434430E-01  0.88888829398E+00  0.88000000000E+00 0. -1.
        -11    1    4    4    0    0 -0.20776673573E-01  0.20712437686E-02 -0.26917287832E-03  0.20887646841E-01  0.51100000000E-03 0.  1.
         11    1    4    4    0    0 -0.99468766075E-01  0.30562874897E-01 -0.36769456851E-01  0.11036475354E+00  0.51100000000E-03 0. -1.
</event>
<event>
 8    1  0.9956970E+004  0.1043930E+01  0.7957747E-01            NaN
         13   -1    0    0    0    0  0.00000000000E+00  0.00000000000E+00  0.74505805969E-08  0.10566000000E+00  0.10566000000E+00 0.  1.
     999900   -1    0    0    0    0 -0.00000000000E+00 -0.00000000000E+00 -0.74505805969E-08  0.93827000000E+00  0.93827000000E+00 0.  1.
     999902    2    1    2    0    0 -0.22048945614E-01 -0.16717361524E-01 -0.68072906522E-02  0.10154349937E+01  0.10150351033E+01 0.  0.
     999903    2    3    3    0    0 -0.15979495194E-01  0.10091539938E+00 -0.69336464253E-01  0.12538769032E+00  0.21800585112E-01 0.  0.
         14    1    1    2    0    0  0.22048945614E-01  0.16717361524E-01  0.68072906522E-02  0.28495006318E-01  0.00000000000E+00 0.  1.
     999901    1    3    3    0    0 -0.60694504204E-02 -0.11763276090E+00  0.62529173600E-01  0.89004730336E+00  0.88000000000E+00 0. -1.
        -11    1    4    4    0    0 -0.50766570911E-02  0.55802159082E-02 -0.10106378318E-01  0.12621856460E-01  0.51100000000E-03 0.  1.
         11    1    4    4    0    0 -0.10902838102E-01  0.95335183470E-01 -0.59230085935E-01  0.11276583386E+00  0.51100000000E-03 0. -1.
</event>
<event>
 8    1  0.9956970E+004  0.1043930E+01  0.7957747E-01            NaN
         13   -1    0    0    0    0  0.00000000000E+00  0.00000000000E+00  0.74505805969E-08  0.10566000000E+00  0.10566000000E+00 0.  1.
     999900   -1    0    0    0    0 -0.00000000000E+00 -0.00000000000E+00 -0.74505805969E-08  0.93827000000E+00  0.93827000000E+00 0. -1.
     999902    2    1    2    0    0 -0.14933459435E-01 -0.62712074372E-02  0.18187011759E-01  0.10195762806E+01  0.10192853812E+01 0.  0.
     999903    2    3    3    0    0  0.35865584861E-01  0.29278176963E-01 -0.11666630036E+00  0.12714716998E+00  0.20293480980E-01 0.  0.
         14    1    1    2    0    0  0.14933459435E-01  0.62712074372E-02 -0.18187011759E-01  0.24353719431E-01  0.00000000000E+00 0. -1.
     999901    1    3    3    0    0 -0.50799044297E-01 -0.35549384400E-01  0.13485331212E+00  0.89242911059E+00  0.88000000000E+00 0.  1.
        -11    1    4    4    0    0  0.19326572663E-01  0.26870079762E-01 -0.87127759734E-01  0.93204212537E-01  0.51100000000E-03 0. -1.
         11    1    4    4    0    0  0.16539012198E-01  0.24080972007E-02 -0.29538540628E-01  0.33942957445E-01  0.51100000000E-03 0.  1.
</event>
<event>
 8    1  0.9956970E+004  0.1043930E+01  0.7957747E-01            NaN
         13   -1    0    0    0    0  0.00000000000E+00  0.00000000000E+00  0.74505805969E-08  0.10566000000E+00  0.10566000000E+00 0.  1.
     999900   -1    0    0    0    0 -0.00000000000E+00 -0.00000000000E+00 -0.74505805969E-08  0.93827000000E+00  0.93827000000E+00 0. -1.
     999902    2    1    2    0    0  0.60943650726E-03  0.17464263756E-01 -0.15641227370E-01  0.10204774966E+01  0.10202079696E+01 0.  0.
     999903    2    3    3    0    0  0.73907446844E-01  0.75296921126E-01 -0.79102597236E-01  0.13326581948E+00  0.19251512209E-01 0.  0.
         14    1    1    2    0    0 -0.60943650726E-03 -0.17464263756E-01  0.15641227370E-01  0.23452503385E-01  0.00000000000E+00 0.  1.
     999901    1    3    3    0    0 -0.73298010336E-01 -0.57832657370E-01  0.63461369866E-01  0.88721167713E+00  0.88000000000E+00 0.  1.
        -11    1    4    4    0    0  0.35185961592E-01  0.39458242651E-01 -0.51112853915E-01  0.73537675803E-01  0.51100000000E-03 0.  1.
         11    1    4    4    0    0  0.38721485252E-01  0.35838678475E-01 -0.27989743321E-01  0.59728143677E-01  0.51100000000E-03 0. -1.
</event>
<event>
 8    1  0.9956970E+004  0.1043930E+01  0.7957747E-01            NaN
         13   -1    0    0    0    0  0.00000000000E+00  0.00000000000E+00  0.74505805969E-08  0.10566000000E+00  0.10566000000E+00 0.  1.
     999900   -1    0    0    0    0 -0.00000000000E+00 -0.00000000000E+00 -0.74505805969E-08  0.93827000000E+00  0.93827000000E+00 0. -1.
     999902    2    1    2    0    0 -0.14675968484E-01 -0.17944431488E-01  0.21686976477E-02  0.10206471754E+01  0.10203815790E+01 0.  0.
     999903    2    3    3    0    0  0.10109012563E+00  0.70715368634E-01 -0.27921495850E-01  0.12814072250E+00  0.20507510127E-01 0.  0.
         14    1    1    2    0    0  0.14675968484E-01  0.17944431488E-01 -0.21686976477E-02  0.23282824611E-01  0.00000000000E+00 0.  1.
     999901    1    3    3    0    0 -0.11576609411E+00 -0.88659800122E-01  0.30090193498E-01  0.89250645289E+00  0.88000000000E+00 0.  1.
        -11    1    4    4    0    0  0.94942333126E-01  0.60648103931E-01 -0.28852922300E-01  0.11629699642E+00  0.51100000000E-03 0.  1.
         11    1    4    4    0    0  0.61477925035E-02  0.10067264703E-01  0.93142644971E-03  0.11843726081E-01  0.51100000000E-03 0. -1.
</event>
<event>
 8    1  0.9956970E+004  0.1043930E+01  0.7957747E-01            NaN
         13   -1    0    0    0    0  0.00000000000E+00  0.00000000000E+00  0.74505805969E-08  0.10566000000E+00  0.10566000000E+00 0. -1.
     999900   -1    0    0    0    0 -0.00000000000E+00 -0.00000000000E+00 -0.74505805969E-08  0.93827000000E+00  0.93827000000E+00 0.  1.
     999902    2    1    2    0    0 -0.14805191516E-01  0.68195866476E-02  0.19306463720E-01  0.10186626298E+01  0.10183492099E+01 0.  0.
     999903    2    3    3    0    0 -0.12251240823E+00 -0.39468313630E-01 -0.87770401466E-02  0.13044413330E+00  0.19276865084E-01 0.  0.
         14    1    1    2    0    0  0.14805191516E-01 -0.68195866476E-02 -0.19306463720E-01  0.25267370248E-01  0.00000000000E+00 0.  1.
     999901    1    3    3    0    0  0.10770721672E+00  0.46287900277E-01  0.28083503867E-01  0.88821849645E+00  0.88000000000E+00 0. -1.
        -11    1    4    4    0    0 -0.43627458018E-01 -0.22792144103E-01 -0.75808668847E-02  0.49805296803E-01  0.51100000000E-03 0. -1.
         11    1    4    4    0    0 -0.78884950215E-01 -0.16676169527E-01 -0.11961732619E-02  0.80638836500E-01  0.51100000000E-03 0.  1.
</event>
<event>
 8    1  0.9956970E+004  0.1043930E+01  0.7957747E-01            NaN
         13   -1    0    0    0    0  0.00000000000E+00  0.00000000000E+00  0.74505805969E-08  0.10566000000E+00  0.10566000000E+00 0. -1.
     999900   -1    0    0    0    0 -0.00000000000E+00 -0.00000000000E+00 -0.74505805969E-08  0.93827000000E+00  0.93827000000E+00 0. -1.
     999902    2    1    2    0    0  0.83087248682E-02  0.30490888042E-02  0.24023364987E-01  0.10183281658E+01  0.10180062864E+01 0.  0.
     999903    2    3    3    0    0 -0.83965039154E-01  0.30153470191E-01 -0.86970250607E-01  0.12615739862E+00  0.19811743298E-01 0.  0.
         14    1    1    2    0    0 -0.83087248682E-02 -0.30490888042E-02 -0.24023364987E-01  0.25601834246E-01  0.00000000000E+00 0.  1.
     999901    1    3    3    0    0  0.92273764022E-01 -0.27104381387E-01  0.11099361559E+00  0.89217076713E+00  0.88000000000E+00 0.  1.
        -11    1    4    4    0    0 -0.49266579354E-01  0.24695884853E-01 -0.62598563895E-01  0.83402181582E-01  0.51100000000E-03 0. -1.
         11    1    4    4    0    0 -0.34698459800E-01  0.54575853385E-02 -0.24371686712E-01  0.42755217043E-01  0.51100000000E-03 0.  1.
</event>
<event>
 8    1  0.9956970E+004  0.1043930E+01  0.7957747E-01            NaN
         13   -1    0    0    0    0  0.00000000000E+00  0.00000000000E+00  0.74505805969E-08  0.10566000000E+00  0.10566000000E+00 0.  1.
     999900   -1    0    0    0    0 -0.00000000000E+00 -0.00000000000E+00 -0.74505805969E-08  0.93827000000E+00  0.93827000000E+00 0. -1.
     999902    2    1    2    0    0  0.11854802646E-03 -0.68070412451E-02  0.19810194642E-01  0.10229825974E+01  0.10227681071E+01 0.  0.
     999903    2    3    3    0    0  0.11929138799E+00 -0.24262726185E-01  0.52634639050E-01  0.13417198153E+00  0.20312564341E-01 0.  0.
         14    1    1    2    0    0 -0.11854802646E-03  0.68070412451E-02 -0.19810194642E-01  0.20947402605E-01  0.00000000000E+00 0. -1.
     999901    1    3    3    0    0 -0.11917283996E+00  0.17455684940E-01 -0.32824444408E-01  0.88881061586E+00  0.88000000000E+00 0.  1.
        -11    1    4    4    0    0  0.63205398987E-01 -0.23158590562E-01  0.29004653074E-01  0.73299207355E-01  0.51100000000E-03 0.  1.
         11    1    4    4    0    0  0.56085989001E-01 -0.11041356226E-02  0.23629985975E-01  0.60872774176E-01  0.51100000000E-03 0. -1.
</event>
<event>
 8    1  0.9956970E+004  0.1043930E+01  0.7957747E-01            NaN
         13   -1    0    0    0    0  0.00000000000E+00  0.00000000000E+00  0.74505805969E-08  0.10566000000E+00  0.10566000000E+00 0.  1.
     999900   -1    0    0    0    0 -0.00000000000E+00 -0.00000000000E+00 -0.74505805969E-08  0.93827000000E+00  0.93827000000E+00 0.  1.
     999902    2    1    2    0    0 -0.53623952220E-03 -0.10940992754E-01  0.19039672263E-01  0.10219640719E+01  0.10217279787E+01 0.  0.
     999903    2    3    3    0    0  0.10204878773E+00 -0.80279773885E-01 -0.17442217372E-01  0.13254713785E+00  0.20142383996E-01 0.  0.
         14    1    1    2    0    0  0.53623952220E-03  0.10940992754E-01 -0.19039672263E-01  0.21965928051E-01  0.00000000000E+00 0. -1.
     999901    1    3    3    0    0 -0.10258502726E+00  0.69338781131E-01  0.36481889635E-01  0.88941693410E+00  0.88000000000E+00 0. -1.
        -11    1    4    4    0    0  0.85260619856E-01 -0.56509606950E-01 -0.13437950848E-01  0.10316757543E+00  0.51100000000E-03 0.  1.
         11    1    4    4    0    0  0.16788167878E-01 -0.23770166935E-01 -0.40042665237E-02  0.29379562423E-01  0.51100000000E-03 0. -1.
</event>
<event>
 8    1  0.9956970E+004  0.1043930E+01  0.7957747E-01            NaN
         13   -1    0    0    0    0  0.00000000000E+00  0.00000000000E+00  0.74505805969E-08  0.10566000000E+00  0.10566000000E+00 0. -1.
     999900   -1    0    0    0    0 -0.00000000000E+00 -0.00000000000E+00 -0.74505805969E-08  0.93827000000E+00  0.93827000000E+00 0. -1.
     999902    2    1    2    0    0 -0.10464264661E-01 -0.20017596412E-01  0.72539380945E-02  0.10202060750E+01  0.10199301990E+01 0.  0.
     999903    2    3    3    0    0 -0.71398472139E-01 -0.64407872833E-01  0.89268115995E-01  0.13318307659E+00  0.22865245445E-01 0.  0.
         14    1    1    2    0    0  0.10464264661E-01  0.20017596412E-01 -0.72539380945E-02  0.23723925031E-01  0.00000000000E+00 0.  1.
     999901    1    3    3    0    0  0.60934207478E-01  0.44390276421E-01 -0.82014177900E-01  0.88702299838E+00  0.88000000000E+00 0. -1.
        -11    1    4    4    0    0 -0.45344812110E-01 -0.26602804668E-01  0.42067965736E-01  0.67333766148E-01  0.51100000000E-03 0. -1.
         11    1    4    4    0    0 -0.26053660029E-01 -0.37805068164E-01  0.47200150259E-01  0.65849310439E-01  0.51100000000E-03 0.  1.
</event>
<event>
 8    1  0.9956970E+004  0.1043930E+01  0.7957747E-01            NaN
         13   -1    0    0    0    0  0.00000000000E+00  0.00000000000E+00  0.74505805969E-08  0.10566000000E+00  0.10566000000E+00 0.  1.
     999900   -1    0    0    0    0 -0.00000000000E+00 -0.00000000000E+00 -0.74505805969E-08  0.93827000000E+00  0.93827000000E+00 0. -1.
     999902    2    1    2    0    0 -0.19811443941E-01 -0.13278934951E-01  0.14371340639E-02  0.10200367211E+01  0.10197568453E+01 0.  0.
     999903    2    3    3    0    0  0.80788050370E-01 -0.96928711731E-01 -0.24131131321E-01  0.12999667723E+00  0.19873106261E-01 0.  0.
         14    1    1    2    0    0  0.19811443941E-01  0.13278934951E-01 -0.14371340639E-02  0.23893278945E-01  0.00000000000E+00 0.  1.
     999901    1    3    3    0    0 -0.10059949431E+00  0.83649776780E-01  0.25568265385E-01  0.89004004382E+00  0.88000000000E+00 0.  1.
        -11    1    4    4    0    0  0.65492924764E-01 -0.65795980473E-01 -0.20863116915E-01  0.95152325295E-01  0.51100000000E-03 0.  1.
         11    1    4    4    0    0  0.15295125606E-01 -0.31132731258E-01 -0.32680144063E-02  0.34844351939E-01  0.51100000000E-03 0. -1.
</event>
<event>
 8    1  0.9956970E+004  0.1043930E+01  0.7957747E-01            NaN
         13   -1    0    0    0    0  0.00000000000E+00  0.00000000000E+00  0.74505805969E-08  0.10566000000E+00  0.10566000000E+00 0. -1.
     999900   -1    0    0    0    0 -0.00000000000E+00 -0.00000000000E+00 -0.74505805969E-08  0.93827000000E+00  0.93827000000E+00 0. -1.
     999902    2    1    2    0    0  0.83165941869E-02  0.10653713118E-01  0.20183797672E-01  0.10196389928E+01  0.10193496077E+01 0.  0.
     999903    2    3    3    0    0  0.31450742601E-01 -0.10042686581E+00  0.74897506235E-01  0.13066898558E+00  0.19749500400E-01 0.  0.
         14    1    1    2    0    0 -0.83165941869E-02 -0.10653713118E-01 -0.20183797672E-01  0.24291007195E-01  0.00000000000E+00 0.  1.
     999901    1    3    3    0    0 -0.23134148415E-01  0.11108057893E+00 -0.54713708563E-01  0.88897000722E+00  0.88000000000E+00 0. -1.
        -11    1    4    4    0    0  0.11114989756E-01 -0.35572853466E-01  0.38424199231E-01  0.53531776624E-01  0.51100000000E-03 0. -1.
         11    1    4    4    0    0  0.20335752845E-01 -0.64854012345E-01  0.36473307004E-01  0.77137208958E-01  0.51100000000E-03 0.  1.
</event>
<event>
 8    1  0.1736714E+005  0.1043930E+01  0.7957747E-01            NaN
         13   -1    0    0    0    0  0.00000000000E+00  0.00000000000E+00  0.74505805969E-08  0.10566000000E+00  0.10566000000E+00 0. -1.
     999900   -1    0    0    0    0 -0.00000000000E+00 -0.00000000000E+00 -0.74505805969E-08  0.93827000000E+00  0.93827000000E+00 0. -1.
     999902    2    1    2    0    0 -0.94886558950E-02  0.23928455909E-01  0.40787107940E-02  0.10178677385E+01  0.10175340248E+01 0.  0.
     999903    2    3    3    0    0  0.89745341156E-01 -0.54525931938E-01 -0.66793418551E-01  0.12600152888E+00  0.19690632416E-01 0.  0.
         14    1    1    2    0    0  0.94886558950E-02 -0.23928455909E-01 -0.40787107940E-02  0.26062261503E-01  0.00000000000E+00 0. -1.
     999901    1    3    3    0    0 -0.99233997051E-01  0.78454387847E-01  0.70872129345E-01  0.89186620962E+00  0.88000000000E+00 0. -1.
        -11    1    4    4    0    0  0.47935918255E-01 -0.25967136165E-01 -0.23449731520E-01  0.59348929636E-01  0.51100000000E-03 0.  1.
         11    1    4    4    0    0  0.41809422902E-01 -0.28558795773E-01 -0.43343687030E-01  0.66652599242E-01  0.51100000000E-03 0. -1.
</event>
<event>
 8    1  0.9956970E+004  0.1043930E+01  0.7957747E-01            NaN
         13   -1    0    0    0    0  0.00000000000E+00  0.00000000000E+00  0.74505805969E-08  0.10566000000E+00  0.10566000000E+00 0. -1.
     999900   -1    0    0    0    0 -0.00000000000E+00 -0.00000000000E+00 -0.74505805969E-08  0.93827000000E+00  0.93827000000E+00 0.  1.
     999902    2    1    2    0    0 -0.17723664207E-01 -0.65468533745E-02  0.14697016976E-01  0.10199927514E+01  0.10197118324E+01 0.  0.
     999903    2    3    3    0    0  0.45898954224E-01  0.11669337070E+00  0.23301324765E-01  0.12908870241E+00  0.19921962509E-01 0.  0.
         14    1    1    2    0    0  0.17723664207E-01  0.65468533745E-02 -0.14697016976E-01  0.23937248589E-01  0.00000000000E+00 0. -1.
     999901    1    3    3    0    0 -0.63622618431E-01 -0.12324022408E+00 -0.86043077892E-02  0.89090404900E+00  0.88000000000E+00 0.  1.
        -11    1    4    4    0    0  0.34042368535E-01  0.89127175435E-01  0.26189536452E-01  0.98937804691E-01  0.51100000000E-03 0. -1.
         11    1    4    4    0    0  0.11856585688E-01  0.27566195269E-01 -0.28882116870E-02  0.30150897723E-01  0.51100000000E-03 0.  1.
</event>
<event>
 8    1  0.9956970E+004  0.1043930E+01  0.7957747E-01            NaN
         13   -1    0    0    0    0  0.00000000000E+00  0.00000000000E+00  0.74505805969E-08  0.10566000000E+00  0.10566000000E+00 0. -1.
     999900   -1    0    0    0    0 -0.00000000000E+00 -0.00000000000E+00 -0.74505805969E-08  0.93827000000E+00  0.93827000000E+00 0. -1.
     999902    2    1    2    0    0 -0.20058062023E-01  0.78313422463E-02  0.10380436092E-01  0.10200258324E+01  0.10197456985E+01 0.  0.
     999903    2    3    3    0    0 -0.12425675806E+00  0.36163102677E-01 -0.22327921403E-01  0.13282242084E+00  0.19893403038E-01 0.  0.
         14    1    1    2    0    0  0.20058062023E-01 -0.78313422463E-02 -0.10380436092E-01  0.23904167565E-01  0.00000000000E+00 0. -1.
     999901    1    3    3    0    0  0.10419869603E+00 -0.28331760430E-01  0.32708357496E-01  0.88720341160E+00  0.88000000000E+00 0. -1.
        -11    1    4    4    0    0 -0.19361271704E-01 -0.16120089670E-02 -0.37712935987E-02  0.19797504674E-01  0.51100000000E-03 0. -1.
         11    1    4    4    0    0 -0.10489548635E+00  0.37775111644E-01 -0.18556627805E-01  0.11302491616E+00  0.51100000000E-03 0.  1.
</event>
<event>
 8    1  0.9956970E+004  0.1043930E+01  0.7957747E-01            NaN
         13   -1    0    0    0    0  0.00000000000E+00  0.00000000000E+00  0.74505805969E-08  0.10566000000E+00  0.10566000000E+00 0.  1.
     999900   -1    0    0    0    0 -0.00000000000E+00 -0.00000000000E+00 -0.74505805969E-08  0.93827000000E+00  0.93827000000E+00 0.  1.
     999902    2    1    2    0    0 -0.18192452428E-01 -0.66086622331E-02 -0.13518538207E-01  0.10203208785E+01  0.10200476972E+01 0.  0.
     999903    2    3    3    0    0 -0.57817155063E-01 -0.67302367702E-01  0.93987845544E-01  0.13082019528E+00  0.20193470828E-01 0.  0.
         14    1    1    2    0    0  0.18192452428E-01  0.66086622331E-02  0.13518538207E-01  0.23609121481E-01  0.00000000000E+00 0.  1.
     999901    1    3    3    0    0  0.39624702635E-01  0.60693705469E-01 -0.10750638375E+00  0.88950068324E+00  0.88000000000E+00 0.  1.
        -11    1    4    4    0    0 -0.41627884048E-01 -0.49292141617E-01  0.54320396537E-01  0.84341938301E-01  0.51100000000E-03 0. -1.
         11    1    4    4    0    0 -0.16189271015E-01 -0.18010226085E-01  0.39667449007E-01  0.46478256974E-01  0.51100000000E-03 0.  1.
</event>
<event>
 8    1  0.9956970E+004  0.1043930E+01  0.7957747E-01            NaN
         13   -1    0    0    0    0  0.00000000000E+00  0.00000000000E+00  0.74505805969E-08  0.10566000000E+00  0.10566000000E+00 0. -1.
     999900   -1    0    0    0    0 -0.00000000000E+00 -0.00000000000E+00 -0.74505805969E-08  0.93827000000E+00  0.93827000000E+00 0. -1.
     999902    2    1    2    0    0  0.12314761630E-02  0.19327816679E-03  0.23817776454E-01  0.10200796255E+01  0.10198007658E+01 0.  0.
     999903    2    3    3    0    0 -0.10612490197E+00  0.65199129390E-01 -0.30410585030E-01  0.12952257070E+00  0.18381277074E-01 0.  0.
         14    1    1    2    0    0 -0.12314761630E-02 -0.19327816679E-03 -0.23817776454E-01  0.23850374530E-01  0.00000000000E+00 0.  1.
     999901    1    3    3    0    0  0.10735637813E+00 -0.65005851224E-01  0.54228361484E-01  0.89055705477E+00  0.88000000000E+00 0.  1.
        -11    1    4    4    0    0 -0.24095684655E-01  0.97390978074E-02 -0.12702441252E-01  0.28932078734E-01  0.51100000000E-03 0.  1.
         11    1    4    4    0    0 -0.82029217313E-01  0.55460031583E-01 -0.17708143778E-01  0.10059049196E+00  0.51100000000E-03 0. -1.
</event>
<event>
 8    1  0.9956970E+004  0.1043930E+01  0.7957747E-01            NaN
         13   -1    0    0    0    0  0.00000000000E+00  0.00000000000E+00  0.74505805969E-08  0.10566000000E+00  0.10566000000E+00 0. -1.
     999900   -1    0    0    0    0 -0.00000000000E+00 -0.00000000000E+00 -0.74505805969E-08  0.93827000000E+00  0.93827000000E+00 0.  1.
     999902    2    1    2    0    0  0.35392987469E-02 -0.13991342253E-01 -0.19451728457E-01  0.10197090580E+01  0.10194213598E+01 0.  0.
     999903    2    3    3    0    0 -0.97268385330E-01  0.83151403492E-02  0.80218536618E-01  0.12808473680E+00  0.20985848558E-01 0.  0.
         14    1    1    2    0    0 -0.35392987469E-02  0.13991342253E-01  0.19451728457E-01  0.24220942047E-01  0.00000000000E+00 0. -1.
     999901    1    3    3    0    0  0.10080768408E+00 -0.22306482602E-01 -0.99670265076E-01  0.89162432116E+00  0.88000000000E+00 0.  1.
        -11    1    4    4    0    0 -0.45550600401E-01  0.10554009083E-02  0.24575062492E-01  0.51770318576E-01  0.51100000000E-03 0. -1.
         11    1    4    4    0    0 -0.51717784929E-01  0.72597394409E-02  0.55643474127E-01  0.76314418222E-01  0.51100000000E-03 0.  1.
</event>
<event>
 7    1  0.9956970E+004  0.1043930E+01  0.7957747E-01            NaN
         13   -1    0    0    0    0  0.00000000000E+00  0.00000000000E+00  0.74505805969E-08  0.10566000000E+00  0.10566000000E+00 0. -1.
     999900   -1    0    0    0    0 -0.00000000000E+00 -0.00000000000E+00 -0.74505805969E-08  0.93827000000E+00  0.93827000000E+00 0.  1.
     999903    2    1    2    0    0  0.70833762392E-01 -0.33362843172E-01  0.76247438572E-01  0.11113661223E+00  0.20178540328E-01 0.  0.
         14    1    1    2    0    0 -0.20151346689E-01 -0.28871970121E-01 -0.32726626289E-01  0.48069735804E-01  0.00000000000E+00 0.  1.
     999901    1    1    2    0    0 -0.50682415703E-01  0.62234813292E-01 -0.43520812283E-01  0.88472365197E+00  0.88000000000E+00 0. -1.
        -11    1    3    3    0    0  0.38267005391E-01 -0.17685691326E-01  0.27063944293E-01  0.50098558672E-01  0.51100000000E-03 0. -1.
         11    1    3    3    0    0  0.32566757001E-01 -0.15677151845E-01  0.49183494279E-01  0.61038053557E-01  0.51100000000E-03 0.  1.
</event>
<event>
 8    1  0.9956970E+004  0.1043930E+01  0.7957747E-01            NaN
         13   -1    0    0    0    0  0.00000000000E+00  0.00000000000E+00  0.74505805969E-08  0.10566000000E+00  0.10566000000E+00 0.  1.
     999900   -1    0    0    0    0 -0.00000000000E+00 -0.00000000000E+00 -0.74505805969E-08  0.93827000000E+00  0.93827000000E+00 0. -1.
     999902    2    1    2    0    0 -0.32097020739E-03 -0.15796858013E-01 -0.17805707313E-01  0.10201248124E+01  0.10198470208E+01 0.  0.
     999903    2    3    3    0    0 -0.50459908466E-01 -0.36155035841E-01 -0.11605993488E+00  0.13300460532E+00  0.19155353592E-01 0.  0.
         14    1    1    2    0    0  0.32097020739E-03  0.15796858013E-01  0.17805707313E-01  0.23805187625E-01  0.00000000000E+00 0.  1.
     999901    1    3    3    0    0  0.50138938258E-01  0.20358177828E-01  0.98254227571E-01  0.88712020706E+00  0.88000000000E+00 0.  1.
        -11    1    4    4    0    0 -0.29098747423E-01 -0.26008223623E-01 -0.54320931319E-01  0.66889382551E-01  0.51100000000E-03 0.  1.
         11    1    4    4    0    0 -0.21361161042E-01 -0.10146812218E-01 -0.61739003565E-01  0.66115222766E-01  0.51100000000E-03 0. -1.
</event>
<event>
 8    1  0.9956970E+004  0.1043930E+01  0.7957747E-01            NaN
         13   -1    0    0    0    0  0.00000000000E+00  0.00000000000E+00  0.74505805969E-08  0.10566000000E+00  0.10566000000E+00 0. -1.
     999900   -1    0    0    0    0 -0.00000000000E+00 -0.00000000000E+00 -0.74505805969E-08  0.93827000000E+00  0.93827000000E+00 0. -1.
     999902    2    1    2    0    0 -0.14877181741E-01 -0.15939621442E-01  0.44152380068E-02  0.10216837330E+01  0.10214415078E+01 0.  0.
     999903    2    3    3    0    0 -0.60654087227E-01 -0.42701447115E-01 -0.10847529343E+00  0.13288904779E+00  0.19755451259E-01 0.  0.
         14    1    1    2    0    0  0.14877181741E-01  0.15939621442E-01 -0.44152380068E-02  0.22246266988E-01  0.00000000000E+00 0.  1.
     999901    1    3    3    0    0  0.45776905486E-01  0.26761825672E-01  0.11289053144E+00  0.88879468522E+00  0.88000000000E+00 0.  1.
        -11    1    4    4    0    0 -0.44440664633E-01 -0.21144028206E-01 -0.62114726928E-01  0.79249877124E-01  0.51100000000E-03 0. -1.
         11    1    4    4    0    0 -0.16213422594E-01 -0.21557418909E-01 -0.46360566504E-01  0.53639170666E-01  0.51100000000E-03 0.  1.
</event>
<event>
 8    1  0.9956970E+004  0.1043930E+01  0.7957747E-01            NaN
         13   -1    0    0    0    0  0.00000000000E+00  0.00000000000E+00  0.74505805969E-08  0.10566000000E+00  0.10566000000E+00 0.  1.
     999900   -1    0    0    0    0 -0.00000000000E+00 -0.00000000000E+00 -0.74505805969E-08  0.93827000000E+00  0.93827000000E+00 0. -1.
     999902    2    1    2    0    0 -0.22471786033E-01  0.67821696171E-02 -0.43790502034E-02  0.10200520798E+01  0.10197725680E+01 0.  0.
     999903    2    3    3    0    0  0.23113986367E-01 -0.64583475047E-01 -0.10846465144E+00  0.12988078715E+00  0.19978904949E-01 0.  0.
         14    1    1    2    0    0  0.22471786033E-01 -0.67821696171E-02  0.43790502034E-02  0.23877920197E-01  0.00000000000E+00 0.  1.
     999901    1    3    3    0    0 -0.45585772400E-01  0.71365644664E-01  0.10408560124E+00  0.89017129266E+00  0.88000000000E+00 0.  1.
        -11    1    4    4    0    0  0.10775384824E-01 -0.26730893776E-01 -0.64016623713E-01  0.70207113833E-01  0.51100000000E-03 0.  1.
         11    1    4    4    0    0  0.12338601543E-01 -0.37852581271E-01 -0.44448027727E-01  0.59673673314E-01  0.51100000000E-03 0. -1.
</event>
<event>
 8    1  0.9956970E+004  0.1043930E+01  0.7957747E-01            NaN
         13   -1    0    0    0    0  0.00000000000E+00  0.00000000000E+00  0.74505805969E-08  0.10566000000E+00  0.10566000000E+00 0.  1.
     999900   -1    0    0    0    0 -0.00000000000E+00 -0.00000000000E+00 -0.74505805969E-08  0.93827000000E+00  0.93827000000E+00 0. -1.
     999902    2    1    2    0    0  0.58670229463E-02 -0.11875109096E-01  0.19097359141E-01  0.10206888877E+01  0.10204242530E+01 0.  0.
     999903    2    3    3    0    0 -0.59693482058E-01  0.43876386789E-01 -0.10262373918E+00  0.12815181011E+00  0.20070014308E-01 0.  0.
         14    1    1    2    0    0 -0.58670229463E-02  0.11875109096E-01 -0.19097359141E-01  0.23241112290E-01  0.00000000000E+00 0. -1.
     999901    1    3    3    0    0  0.65560505004E-01 -0.55751495885E-01  0.12172109832E+00  0.89253707760E+00  0.88000000000E+00 0.  1.
        -11    1    4    4    0    0 -0.16837011301E-01  0.24307454189E-01 -0.37022423623E-01  0.47384156114E-01  0.51100000000E-03 0. -1.
         11    1    4    4    0    0 -0.42856470757E-01  0.19568932599E-01 -0.65601315556E-01  0.80767653999E-01  0.51100000000E-03 0.  1.
</event>
<event>
 8    1  0.9956970E+004  0.1043930E+01  0.7957747E-01            NaN
         13   -1    0    0    0    0  0.00000000000E+00  0.00000000000E+00  0.74505805969E-08  0.10566000000E+00  0.10566000000E+00 0. -1.
     999900   -1    0    0    0    0 -0.00000000000E+00 -0.00000000000E+00 -0.74505805969E-08  0.93827000000E+00  0.93827000000E+00 0.  1.
     999902    2    1    2    0    0 -0.22042277635E-01  0.94857320273E-02 -0.69242634359E-03  0.10199233224E+01  0.10196407519E+01 0.  0.
     999903    2    3    3    0    0  0.10113917545E-01 -0.32803296825E-01  0.12341230930E+00  0.12962878222E+00  0.19866441134E-01 0.  0.
         14    1    1    2    0    0  0.22042277635E-01 -0.94857320273E-02  0.69242634359E-03  0.24006677606E-01  0.00000000000E+00 0. -1.
     999901    1    3    3    0    0 -0.32156195180E-01  0.42289028852E-01 -0.12410473564E+00  0.89029454017E+00  0.88000000000E+00 0.  1.
        -11    1    4    4    0    0  0.50948098468E-02 -0.79335673129E-02  0.68363890892E-01  0.69012906594E-01  0.51100000000E-03 0. -1.
         11    1    4    4    0    0  0.50191076981E-02 -0.24869729512E-01  0.55048418407E-01  0.60615875628E-01  0.51100000000E-03 0.  1.
</event>
<event>
 8    1  0.9956970E+004  0.1043930E+01  0.7957747E-01            NaN
         13   -1    0    0    0    0  0.00000000000E+00  0.00000000000E+00  0.74505805969E-08  0.10566000000E+00  0.10566000000E+00 0.  1.
     999900   -1    0    0    0    0 -0.00000000000E+00 -0.00000000000E+00 -0.74505805969E-08  0.93827000000E+00  0.93827000000E+00 0. -1.
     999902    2    1    2    0    0 -0.16692319879E-01  0.18343790996E-01 -0.12220061097E-02  0.10190981352E+01  0.10187955573E+01 0.  0.
     999903    2    3    3    0    0  0.10947958148E+00 -0.44127452014E-01 -0.45195458094E-01  0.12682257833E+00  0.10407985303E-01 0.  0.
         14    1    1    2    0    0  0.16692319879E-01 -0.18343790996E-01  0.12220061097E-02  0.24831864811E-01  0.00000000000E+00 0. -1.
     999901    1    3    3    0    0 -0.12617190136E+00  0.62471243011E-01  0.43973451984E-01  0.89227555686E+00  0.88000000000E+00 0. -1.
        -11    1    4    4    0    0  0.60448000137E-01 -0.26087690627E-01 -0.30414088727E-01  0.72524521625E-01  0.51100000000E-03 0.  1.
         11    1    4    4    0    0  0.49031581345E-01 -0.18039761387E-01 -0.14781369366E-01  0.54298056701E-01  0.51100000000E-03 0. -1.
</event>
<event>
 8    1  0.9956970E+004  0.1043930E+01  0.7957747E-01            NaN
         13   -1    0    0    0    0  0.00000000000E+00  0.00000000000E+00  0.74505805969E-08  0.10566000000E+00  0.10566000000E+00 0. -1.
     999900   -1    0    0    0    0 -0.00000000000E+00 -0.00000000000E+00 -0.74505805969E-08  0.93827000000E+00  0.93827000000E+00 0.  1.
     999902    2    1    2    0    0  0.21216515830E-01 -0.55207936601E-02  0.65864738206E-02  0.10210389244E+01  0.10207822901E+01 0.  0.
     999903    2    3    3    0    0 -0.31286201490E-02  0.11278055972E+00 -0.62042033709E-01  0.13014175414E+00  0.18931965272E-01 0.  0.
         14    1    1    2    0    0 -0.21216515830E-01  0.55207936601E-02 -0.65864738206E-02  0.22891075640E-01  0.00000000000E+00 0. -1.
     999901    1    3    3    0    0  0.24345135979E-01 -0.11830135338E+00  0.68628507530E-01  0.89089717022E+00  0.88000000000E+00 0. -1.
        -11    1    4    4    0    0  0.81038116986E-03  0.53582395488E-01 -0.19067951744E-01  0.56882138924E-01  0.51100000000E-03 0. -1.
         11    1    4    4    0    0 -0.39390013189E-02  0.59198164234E-01 -0.42974081965E-01  0.73259615217E-01  0.51100000000E-03 0.  1.
</event>
<event>
 8    1  0.9956970E+004  0.1043930E+01  0.7957747E-01            NaN
         13   -1    0    0    0    0  0.00000000000E+00  0.00000000000E+00  0.74505805969E-08  0.10566000000E+00  0.10566000000E+00 0. -1.
     999900   -1    0    0    0    0 -0.00000000000E+00 -0.00000000000E+00 -0.74505805969E-08  0.93827000000E+00  0.93827000000E+00 0. -1.
     999902    2    1    2    0    0 -0.39027092160E-02 -0.65305557632E-02 -0.22620392866E-01  0.10200645130E+01  0.10197852956E+01 0.  0.
     999903    2    3    3    0    0 -0.30289640657E-01  0.10762346694E+00 -0.66023948869E-01  0.13123872592E+00  0.19083196547E-01 0.  0.
         14    1    1    2    0    0  0.39027092160E-02  0.65305557632E-02  0.22620392866E-01  0.23865487031E-01  0.00000000000E+00 0. -1.
     999901    1    3    3    0    0  0.26386931441E-01 -0.11415402270E+00  0.43403556003E-01  0.88882578705E+00  0.88000000000E+00 0.  1.
        -11    1    4    4    0    0 -0.23735160898E-01  0.55955464177E-01 -0.41986854392E-01  0.73875089826E-01  0.51100000000E-03 0.  1.
         11    1    4    4    0    0 -0.65544797590E-02  0.51668002759E-01 -0.24037094477E-01  0.57363636094E-01  0.51100000000E-03 0. -1.
</event>
<event>
 8    1  0.9956970E+004  0.1043930E+01  0.7957747E-01            NaN
         13   -1    0    0    0    0  0.00000000000E+00  0.00000000000E+00  0.74505805969E-08  0.10566000000E+00  0.10566000000E+00 0.  1.
     999900   -1    0    0    0    0 -0.00000000000E+00 -0.00000000000E+00 -0.74505805969E-08  0.93827000000E+00  0.93827000000E+00 0.  1.
     999902    2    1    2    0    0  0.14197841465E-01 -0.13819308662E-01 -0.13909759526E-01  0.10197218732E+01  0.10194344831E+01 0.  0.
     999903    2    3    3    0    0 -0.79934914965E-01  0.20585838344E-01 -0.98448601188E-01  0.13000758998E+00  0.19911780595E-01 0.  0.
         14    1    1    2    0    0 -0.14197841465E-01  0.13819308662E-01  0.13909759526E-01  0.24208126822E-01  0.00000000000E+00 0.  1.
     999901    1    3    3    0    0  0.94132756429E-01 -0.34405147005E-01  0.84538841661E-01  0.88971428320E+00  0.88000000000E+00 0. -1.
        -11    1    4    4    0    0 -0.29642932846E-02  0.57843101565E-02 -0.80605140045E-02  0.10367173466E-01  0.51100000000E-03 0. -1.
         11    1    4    4    0    0 -0.76970621680E-01  0.14801528187E-01 -0.90388087183E-01  0.11964041652E+00  0.51100000000E-03 0.  1.
</event>
<event>
 8    1  0.9956970E+004  0.1043930E+01  0.7957747E-01            NaN
         13   -1    0    0    0    0  0.00000000000E+00  0.00000000000E+00  0.74505805969E-08  0.10566000000E+00  0.10566000000E+00 0. -1.
     999900   -1    0    0    0    0 -0.00000000000E+00 -0.00000000000E+00 -0.74505805969E-08  0.93827000000E+00  0.93827000000E+00 0. -1.
     999902    2    1    2    0    0  0.17264135330E-01  0.37805062543E-02  0.16624342601E-01  0.10196666251E+01  0.10193779058E+01 0.  0.
     999903    2    3    3    0    0  0.89459320481E-01  0.61622615036E-01 -0.69856572178E-01  0.13060149645E+00  0.19403440229E-01 0.  0.
         14    1    1    2    0    0 -0.17264135330E-01 -0.37805062543E-02 -0.16624342601E-01  0.24263374934E-01  0.00000000000E+00 0.  1.
     999901    1    3    3    0    0 -0.72195185151E-01 -0.57842108782E-01  0.86480914780E-01  0.88906512862E+00  0.88000000000E+00 0.  1.
        -11    1    4    4    0    0  0.33796394473E-01  0.24479625853E-01 -0.38180153232E-01  0.56563535808E-01  0.51100000000E-03 0. -1.
         11    1    4    4    0    0  0.55662926008E-01  0.37142989183E-01 -0.31676418946E-01  0.74037960638E-01  0.51100000000E-03 0.  1.
</event>
<event>
 8    1  0.9956970E+004  0.1043930E+01  0.7957747E-01            NaN
         13   -1    0    0    0    0  0.00000000000E+00  0.00000000000E+00  0.74505805969E-08  0.10566000000E+00  0.10566000000E+00 0. -1.
     999900   -1    0    0    0    0 -0.00000000000E+00 -0.00000000000E+00 -0.74505805969E-08  0.93827000000E+00  0.93827000000E+00 0. -1.
     999902    2    1    2    0    0 -0.20598244528E-01  0.76328037092E-03  0.10939230468E-01  0.10205946826E+01  0.10203278733E+01 0.  0.
     999903    2    3    3    0    0  0.50862902140E-01  0.11573836896E+00  0.22569802707E-01  0.13016712425E+00  0.21252749882E-01 0.  0.
         14    1    1    2    0    0  0.20598244528E-01 -0.76328037092E-03 -0.10939230468E-01  0.23335317392E-01  0.00000000000E+00 0. -1.
     999901    1    3    3    0    0 -0.71461146668E-01 -0.11497508859E+00 -0.11630572239E-01  0.89042755836E+00  0.88000000000E+00 0.  1.
        -11    1    4    4    0    0  0.26157174102E-01  0.49192584868E-01  0.12331153363E-03  0.55717003596E-01  0.51100000000E-03 0.  1.
         11    1    4    4    0    0  0.24705728038E-01  0.66545784089E-01  0.22446491174E-01  0.74450120651E-01  0.51100000000E-03 0. -1.
</event>
<event>
 8    1  0.9956970E+004  0.1043930E+01  0.7957747E-01            NaN
         13   -1    0    0    0    0  0.00000000000E+00  0.00000000000E+00  0.74505805969E-08  0.10566000000E+00  0.10566000000E+00 0. -1.
     999900   -1    0    0    0    0 -0.00000000000E+00 -0.00000000000E+00 -0.74505805969E-08  0.93827000000E+00  0.93827000000E+00 0.  1.
     999902    2    1    2    0    0 -0.16545881837E-01  0.50846727483E-02  0.15656540787E-01  0.10205901763E+01  0.10203232628E+01 0.  0.
     999903    2    3    3    0    0  0.11266782894E-01 -0.74550115290E-01  0.10679299335E+00  0.13187138116E+00  0.17339482463E-01 0.  0.
         14    1    1    2    0    0  0.16545881837E-01 -0.50846727483E-02 -0.15656540787E-01  0.23339823739E-01  0.00000000000E+00 0.  1.
     999901    1    3    3    0    0 -0.27812664731E-01  0.79634788039E-01 -0.91136452567E-01  0.88871879510E+00  0.88000000000E+00 0.  1.
        -11    1    4    4    0    0 -0.35536919607E-03 -0.44617858178E-01  0.70241136512E-01  0.83216332142E-01  0.51100000000E-03 0.  1.
         11    1    4    4    0    0  0.11622152090E-01 -0.29932257112E-01  0.36551856842E-01  0.48655049015E-01  0.51100000000E-03 0. -1.
</event>
<event>
 8    1  0.9956970E+004  0.1043930E+01  0.7957747E-01            NaN
         13   -1    0    0    0    0  0.00000000000E+00  0.00000000000E+00  0.74505805969E-08  0.10566000000E+00  0.10566000000E+00 0.  1.
     999900   -1    0    0    0    0 -0.00000000000E+00 -0.00000000000E+00 -0.74505805969E-08  0.93827000000E+00  0.93827000000E+00 0. -1.
     999902    2    1    2    0    0  0.10921497299E-01  0.50169175617E-02  0.20747165736E-01  0.10199530642E+01  0.10196712018E+01 0.  0.
     999903    2    3    3    0    0 -0.25262192481E-01 -0.72663501789E-01 -0.10035502950E+00  0.12753542168E+00  0.16612915931E-01 0.  0.
         14    1    1    2    0    0 -0.10921497299E-01 -0.50169175617E-02 -0.20747165736E-01  0.23976935817E-01  0.00000000000E+00 0. -1.
     999901    1    3    3    0    0  0.36183689780E-01  0.77680419351E-01  0.12110219524E+00  0.89241764250E+00  0.88000000000E+00 0.  1.
        -11    1    4    4    0    0 -0.23245418763E-01 -0.44140309964E-01 -0.68241916674E-01  0.84533642827E-01  0.51100000000E-03 0. -1.
         11    1    4    4    0    0 -0.20167737178E-02 -0.28523191825E-01 -0.32113112829E-01  0.43001778855E-01  0.51100000000E-03 0.  1.
</event>
<event>
 8    1  0.9956970E+004  0.1043930E+01  0.7957747E-01            NaN
         13   -1    0    0    0    0  0.00000000000E+00  0.00000000000E+00  0.74505805969E-08  0.10566000000E+00  0.10566000000E+00 0. -1.
     999900   -1    0    0    0    0 -0.00000000000E+00 -0.00000000000E+00 -0.74505805969E-08  0.93827000000E+00  0.93827000000E+00 0. -1.
     999902    2    1    2    0    0 -0.16281754869E-01  0.13178761035E-01 -0.13288500580E-01  0.10191235587E+01  0.10188216077E+01 0.  0.
     999903    2    3    3    0    0 -0.50997822217E-01  0.52522576848E-02 -0.11991420671E+00  0.13197245767E+00  0.20222475902E-01 0.  0.
         14    1    1    2    0    0  0.16281754869E-01 -0.13178761035E-01  0.13288500580E-01  0.24806441335E-01  0.00000000000E+00 0. -1.
     999901    1    3    3    0    0  0.34716067349E-01  0.79265033503E-02  0.10662570613E+00  0.88715110099E+00  0.88000000000E+00 0.  1.
        -11    1    4    4    0    0 -0.30329136002E-01  0.94112120508E-02 -0.52729494611E-01  0.61555569414E-01  0.51100000000E-03 0. -1.
         11    1    4    4    0    0 -0.20668686215E-01 -0.41589543660E-02 -0.67184712097E-01  0.70416888257E-01  0.51100000000E-03 0.  1.
</event>
<event>
 8    1  0.9956970E+004  0.1043930E+01  0.7957747E-01            NaN
         13   -1    0    0    0    0  0.00000000000E+00  0.00000000000E+00  0.74505805969E-08  0.10566000000E+00  0.10566000000E+00 0.  1.
     999900   -1    0    0    0    0 -0.00000000000E+00 -0.00000000000E+00 -0.74505805969E-08  0.93827000000E+00  0.93827000000E+00 0.  1.
     999902    2    1    2    0    0 -0.11678918631E-01  0.50080707533E-02 -0.20793821584E-01  0.10195607380E+01  0.10192694627E+01 0.  0.
     999903    2    3    3    0    0 -0.45444779634E-01  0.12128868477E+00  0.17626811525E-02  0.13098316101E+00  0.19424427241E-01 0.  0.
         14    1    1    2    0    0  0.11678918631E-01 -0.50080707533E-02  0.20793821584E-01  0.24369261973E-01  0.00000000000E+00 0.  1.
     999901    1    3    3    0    0  0.33765861003E-01 -0.11628061402E+00 -0.22556502736E-01  0.88857757702E+00  0.88000000000E+00 0.  1.
        -11    1    4    4    0    0 -0.28598776846E-01  0.48994644714E-01  0.13729639114E-02  0.56749549765E-01  0.51100000000E-03 0.  1.
         11    1    4    4    0    0 -0.16846002788E-01  0.72294040056E-01  0.38971724103E-03  0.74233611242E-01  0.51100000000E-03 0. -1.
</event>
<event>
 8    1  0.9956970E+004  0.1043930E+01  0.7957747E-01            NaN
         13   -1    0    0    0    0  0.00000000000E+00  0.00000000000E+00  0.74505805969E-08  0.10566000000E+00  0.10566000000E+00 0.  1.
     999900   -1    0    0    0    0 -0.00000000000E+00 -0.00000000000E+00 -0.74505805969E-08  0.93827000000E+00  0.93827000000E+00 0.  1.
     999902    2    1    2    0    0 -0.14841520264E-01  0.75707100403E-02 -0.21763305207E-01  0.10165214643E+01  0.10161518881E+01 0.  0.
     999903    2    3    3    0    0 -0.19372284071E-01  0.42348412377E-01 -0.12003192433E+00  0.13035740621E+00  0.20413649181E-01 0.  0.
         14    1    1    2    0    0  0.14841520264E-01 -0.75707100403E-02  0.21763305207E-01  0.27408535674E-01  0.00000000000E+00 0.  1.
     999901    1    3    3    0    0  0.45307638066E-02 -0.34777702337E-01  0.98268619125E-01  0.88616405812E+00  0.88000000000E+00 0. -1.
        -11    1    4    4    0    0 -0.10242677464E-01  0.12745498797E-01 -0.66719174632E-01  0.68695484319E-01  0.51100000000E-03 0. -1.
         11    1    4    4    0    0 -0.91296066062E-02  0.29602913580E-01 -0.53312749699E-01  0.61661921886E-01  0.51100000000E-03 0.  1.
</event>
<event>
 8    1  0.9956970E+004  0.1043930E+01  0.7957747E-01            NaN
         13   -1    0    0    0    0  0.00000000000E+00  0.00000000000E+00  0.74505805969E-08  0.10566000000E+00  0.10566000000E+00 0.  1.
     999900   -1    0    0    0    0 -0.00000000000E+00 -0.00000000000E+00 -0.74505805969E-08  0.93827000000E+00  0.93827000000E+00 0.  1.
     999902    2    1    2    0    0 -0.91158019984E-02  0.85065694269E-02 -0.20025456371E-01  0.10203402041E+01  0.10200674750E+01 0.  0.
     999903    2    3    3    0    0 -0.97938094528E-01  0.20162919474E-01 -0.85934668491E-01  0.13334003812E+00  0.19909415734E-01 0.  0.
         14    1    1    2    0    0  0.91158019984E-02 -0.85065694269E-02  0.20025456371E-01  0.23589795937E-01  0.00000000000E+00 0.  1.
     999901    1    3    3    0    0  0.88822292530E-01 -0.11656350047E-01  0.65909212120E-01  0.88700016595E+00  0.88000000000E+00 0. -1.
        -11    1    4    4    0    0 -0.73877021854E-01  0.96116823136E-02 -0.54161371121E-01  0.92108164880E-01  0.51100000000E-03 0.  1.
         11    1    4    4    0    0 -0.24061072674E-01  0.10551237161E-01 -0.31773297370E-01  0.41231873236E-01  0.51100000000E-03 0. -1.
</event>
<event>
 8    1  0.9956970E+004  0.1043930E+01  0.7957747E-01            NaN
         13   -1    0    0    0    0  0.00000000000E+00  0.00000000000E+00  0.74505805969E-08  0.10566000000E+00  0.10566000000E+00 0. -1.
     999900   -1    0    0    0    0 -0.00000000000E+00 -0.00000000000E+00 -0.74505805969E-08  0.93827000000E+00  0.93827000000E+00 0. -1.
     999902    2    1    2    0    0 -0.12476156882E-01  0.74313310126E-02  0.18102713862E-01  0.10207225137E+01  0.10204586530E+01 0.  0.
     999903    2    3    3    0    0 -0.48489307363E-01  0.92335172059E-01 -0.76836882248E-01  0.13082412841E+00  0.18277012152E-01 0.  0.
         14    1    1    2    0    0  0.12476156882E-01 -0.74313310126E-02 -0.18102713862E-01  0.23207486299E-01  0.00000000000E+00 0.  1.
     999901    1    3    3    0    0  0.36013150481E-01 -0.84903841047E-01  0.94939596109E-01  0.88989838529E+00  0.88000000000E+00 0. -1.
        -11    1    4    4    0    0 -0.15074832637E-01  0.46632995399E-01 -0.31152861595E-01  0.58074510291E-01  0.51100000000E-03 0. -1.
         11    1    4    4    0    0 -0.33414474726E-01  0.45702176660E-01 -0.45684020652E-01  0.72749618120E-01  0.51100000000E-03 0.  1.
</event>
<event>
 8    1  0.9956970E+004  0.1043930E+01  0.7957747E-01            NaN
         13   -1    0    0    0    0  0.00000000000E+00  0.00000000000E+00  0.74505805969E-08  0.10566000000E+00  0.10566000000E+00 0. -1.
     999900   -1    0    0    0    0 -0.00000000000E+00 -0.00000000000E+00 -0.74505805969E-08  0.93827000000E+00  0.93827000000E+00 0. -1.
     999902    2    1    2    0    0 -0.57825404510E-02  0.17642229760E-02  0.24537430492E-01  0.10186587564E+01  0.10183452392E+01 0.  0.
     999903    2    3    3    0    0 -0.21789821578E-01  0.87263597720E-01 -0.87785741035E-01  0.12726497644E+00  0.20007650728E-01 0.  0.
         14    1    1    2    0    0  0.57825404510E-02 -0.17642229760E-02 -0.24537430492E-01  0.25271243577E-01  0.00000000000E+00 0.  1.
     999901    1    3    3    0    0  0.16007281127E-01 -0.85499374744E-01  0.11232317153E+00  0.89139377998E+00  0.88000000000E+00 0.  1.
        -11    1    4    4    0    0 -0.11535130242E-01  0.31833212689E-01 -0.45875383449E-01  0.57019510585E-01  0.51100000000E-03 0.  1.
         11    1    4    4    0    0 -0.10254691336E-01  0.55430385031E-01 -0.41910357586E-01  0.70245465854E-01  0.51100000000E-03 0. -1.
</event>
<event>
 8    1  0.9956970E+004  0.1043930E+01  0.7957747E-01            NaN
         13   -1    0    0    0    0  0.00000000000E+00  0.00000000000E+00  0.74505805969E-08  0.10566000000E+00  0.10566000000E+00 0. -1.
     999900   -1    0    0    0    0 -0.00000000000E+00 -0.00000000000E+00 -0.74505805969E-08  0.93827000000E+00  0.93827000000E+00 0.  1.
     999902    2    1    2    0    0 -0.14709470376E-02 -0.16977114993E-01  0.14674306710E-01  0.10214417498E+01  0.10211941671E+01 0.  0.
     999903    2    3    3    0    0 -0.11927182235E+00 -0.47419271533E-01  0.28230239326E-01  0.13296691370E+00  0.20221246428E-01 0.  0.
         14    1    1    2    0    0  0.14709470376E-02  0.16977114993E-01 -0.14674306710E-01  0.22488250178E-01  0.00000000000E+00 0.  1.
     999901    1    3    3    0    0  0.11780087531E+00  0.30442156540E-01 -0.13555932616E-01  0.88847483613E+00  0.88000000000E+00 0. -1.
        -11    1    4    4    0    0 -0.95310822907E-01 -0.37537188712E-01  0.13987361789E-01  0.10338810817E+00  0.51100000000E-03 0.  1.
         11    1    4    4    0    0 -0.23960999440E-01 -0.98820828205E-02  0.14242877537E-01  0.29578805530E-01  0.51100000000E-03 0. -1.
</event>
<event>
 8    1  0.9956970E+004  0.1043930E+01  0.7957747E-01            NaN
         13   -1    0    0    0    0  0.00000000000E+00  0.00000000000E+00  0.74505805969E-08  0.10566000000E+00  0.10566000000E+00 0. -1.
     999900   -1    0    0    0    0 -0.00000000000E+00 -0.00000000000E+00 -0.74505805969E-08  0.93827000000E+00  0.93827000000E+00 0.  1.
     999902    2    1    2    0    0  0.30843339940E-02  0.47322635194E-02 -0.23314939363E-01  0.10199405475E+01  0.10196583872E+01 0.  0.
     999903    2    3    3    0    0 -0.74706265363E-02 -0.70086938049E-01  0.10487033749E+00  0.12744921122E+00  0.16659069919E-01 0.  0.
         14    1    1    2    0    0 -0.30843339940E-02 -0.47322635194E-02  0.23314939363E-01  0.23989452509E-01  0.00000000000E+00 0. -1.
     999901    1    3    3    0    0  0.10554960530E-01  0.74819201569E-01 -0.12818527685E+00  0.89249133627E+00  0.88000000000E+00 0.  1.
        -11    1    4    4    0    0 -0.13045154916E-02 -0.56094861149E-01  0.90349893946E-01  0.10635647449E+00  0.51100000000E-03 0.  1.
         11    1    4    4    0    0 -0.61661110448E-02 -0.13992076900E-01  0.14520443539E-01  0.21092736735E-01  0.51100000000E-03 0. -1.
</event>
<event>
 8    1  0.9956970E+004  0.1043930E+01  0.7957747E-01            NaN
         13   -1    0    0    0    0  0.00000000000E+00  0.00000000000E+00  0.74505805969E-08  0.10566000000E+00  0.10566000000E+00 0. -1.
     999900   -1    0    0    0    0 -0.00000000000E+00 -0.00000000000E+00 -0.74505805969E-08  0.93827000000E+00  0.93827000000E+00 0.  1.
     999902    2    1    2    0    0  0.12261572785E-01 -0.19211323461E-01 -0.65053724383E-02  0.10202289244E+01  0.10199535858E+01 0.  0.
     999903    2    3    3    0    0  0.51726259715E-01  0.74108164333E-01 -0.91846958517E-01  0.13031366174E+00  0.19446353953E-01 0.  0.
         14    1    1    2    0    0 -0.12261572785E-01  0.19211323461E-01  0.65053724383E-02  0.23701075648E-01  0.00000000000E+00 0.  1.
     999901    1    3    3    0    0 -0.39464686930E-01 -0.93319487794E-01  0.85341586079E-01  0.88991526261E+00  0.88000000000E+00 0.  1.
        -11    1    4    4    0    0  0.17971352417E-01  0.11649538823E-01 -0.20092497968E-01  0.29370918578E-01  0.51100000000E-03 0. -1.
         11    1    4    4    0    0  0.33754907298E-01  0.62458625510E-01 -0.71754460549E-01  0.10094274316E+00  0.51100000000E-03 0.  1.
</event>
<event>
 8    1  0.9956970E+004  0.1043930E+01  0.7957747E-01            NaN
         13   -1    0    0    0    0  0.00000000000E+00  0.00000000000E+00  0.74505805969E-08  0.10566000000E+00  0.10566000000E+00 0. -1.
     999900   -1    0    0    0    0 -0.00000000000E+00 -0.00000000000E+00 -0.74505805969E-08  0.93827000000E+00  0.93827000000E+00 0. -1.
     999902    2    1    2    0    0 -0.52695894034E-02  0.98281660609E-02 -0.19258290593E-01  0.10216759402E+01  0.10214335434E+01 0.  0.
     999903    2    3    3    0    0  0.11671198845E+00 -0.55717689259E-01 -0.67407035027E-03  0.13065341652E+00  0.18539464209E-01 0.  0.
         14    1    1    2    0    0  0.52695894034E-02 -0.98281660609E-02  0.19258290593E-01  0.22254059791E-01  0.00000000000E+00 0. -1.
     999901    1    3    3    0    0 -0.12198157785E+00  0.65545855320E-01 -0.18584220243E-01  0.89102252369E+00  0.88000000000E+00 0. -1.
        -11    1    4    4    0    0  0.10167425844E+00 -0.41171354080E-01 -0.15661418455E-02  0.10970619466E+00  0.51100000000E-03 0.  1.
         11    1    4    4    0    0  0.15037730011E-01 -0.14546335179E-01  0.89207149522E-03  0.20947221858E-01  0.51100000000E-03 0. -1.
</event>
<event>
 8    1  0.9956970E+004  0.1043930E+01  0.7957747E-01            NaN
         13   -1    0    0    0    0  0.00000000000E+00  0.00000000000E+00  0.74505805969E-08  0.10566000000E+00  0.10566000000E+00 0. -1.
     999900   -1    0    0    0    0 -0.00000000000E+00 -0.00000000000E+00 -0.74505805969E-08  0.93827000000E+00  0.93827000000E+00 0. -1.
     999902    2    1    2    0    0 -0.76033180411E-02 -0.28671895779E-02  0.20913115422E-01  0.10214936541E+01  0.10212472256E+01 0.  0.
     999903    2    3    3    0    0  0.11911488183E+00  0.12380187631E-01 -0.45714444784E-01  0.12979347103E+00  0.20369352958E-01 0.  0.
         14    1    1    2    0    0  0.76033180411E-02  0.28671895779E-02 -0.20913115422E-01  0.22436345914E-01  0.00000000000E+00 0.  1.
     999901    1    3    3    0    0 -0.12671819987E+00 -0.15247377209E-01  0.66627560205E-01  0.89170018306E+00  0.88000000000E+00 0.  1.
        -11    1    4    4    0    0  0.44641346481E-01 -0.40650591814E-02 -0.21902137845E-01  0.49893278956E-01  0.51100000000E-03 0.  1.
         11    1    4    4    0    0  0.74473535349E-01  0.16445246812E-01 -0.23812306939E-01  0.79900192070E-01  0.51100000000E-03 0. -1.
</event>
<event>
 8    1  0.9956970E+004  0.1043930E+01  0.7957747E-01            NaN
         13   -1    0    0    0    0  0.00000000000E+00  0.00000000000E+00  0.74505805969E-08  0.10566000000E+00  0.10566000000E+00 0. -1.
     999900   -1    0    0    0    0 -0.00000000000E+00 -0.00000000000E+00 -0.74505805969E-08  0.93827000000E+00  0.93827000000E+00 0. -1.
     999902    2    1    2    0    0 -0.12579980911E-01  0.19444661483E-01 -0.16053772574E-02  0.10207151768E+01  0.10204511474E+01 0.  0.
     999903    2    3    3    0    0 -0.11965643525E-01 -0.12419810630E+00 -0.24741274728E-01  0.12876849011E+00  0.20021167255E-01 0.  0.
         14    1    1    2    0    0  0.12579980911E-01 -0.19444661483E-01  0.16053772574E-02  0.23214823197E-01  0.00000000000E+00 0.  1.
     999901    1    3    3    0    0 -0.61433738661E-03  0.14364276778E+00  0.23135897471E-01  0.89194668669E+00  0.88000000000E+00 0. -1.
        -11    1    4    4    0    0 -0.12886701830E-01 -0.97369585005E-01 -0.26887378288E-01  0.10183366536E+00  0.51100000000E-03 0. -1.
         11    1    4    4    0    0  0.92105830549E-03 -0.26828521291E-01  0.21461035595E-02  0.26934824754E-01  0.51100000000E-03 0.  1.
</event>
<event>
 8    1  0.9956970E+004  0.1043930E+01  0.7957747E-01            NaN
         13   -1    0    0    0    0  0.00000000000E+00  0.00000000000E+00  0.74505805969E-08  0.10566000000E+00  0.10566000000E+00 0. -1.
     999900   -1    0    0    0    0 -0.00000000000E+00 -0.00000000000E+00 -0.74505805969E-08  0.93827000000E+00  0.93827000000E+00 0. -1.
     999902    2    1    2    0    0 -0.16931889708E-01  0.96503693051E-02 -0.12592580130E-01  0.10207267332E+01  0.10204629696E+01 0.  0.
     999903    2    3    3    0    0  0.95737005605E-01  0.79111747159E-02 -0.85438607022E-01  0.13055604820E+00  0.22736869249E-01 0.  0.
         14    1    1    2    0    0  0.16931889708E-01 -0.96503693051E-02  0.12592580130E-01  0.23203266821E-01  0.00000000000E+00 0. -1.
     999901    1    3    3    0    0 -0.11266889531E+00  0.17391945892E-02  0.72846026892E-01  0.89017068498E+00  0.88000000000E+00 0.  1.
        -11    1    4    4    0    0  0.41207026300E-01 -0.23019703587E-02 -0.49510468398E-01  0.64458247618E-01  0.51100000000E-03 0. -1.
         11    1    4    4    0    0  0.54529979305E-01  0.10213145075E-01 -0.35928138625E-01  0.66097800578E-01  0.51100000000E-03 0.  1.
</event>
<event>
 8    1  0.9956970E+004  0.1043930E+01  0.7957747E-01            NaN
         13   -1    0    0    0    0  0.00000000000E+00  0.00000000000E+00  0.74505805969E-08  0.10566000000E+00  0.10566000000E+00 0. -1.
     999900   -1    0    0    0    0 -0.00000000000E+00 -0.00000000000E+00 -0.74505805969E-08  0.93827000000E+00  0.93827000000E+00 0.  1.
     999902    2    1    2    0    0 -0.20807912925E-01 -0.74839979992E-03 -0.11919911341E-01  0.10199380507E+01  0.10196558310E+01 0.  0.
     999903    2    3    3    0    0 -0.75490174528E-01  0.10253311756E+00 -0.28764342623E-01  0.13205238444E+00  0.19965925577E-01 0.  0.
         14    1    1    2    0    0  0.20807912925E-01  0.74839979992E-03  0.11919911341E-01  0.23991949252E-01  0.00000000000E+00 0. -1.
     999901    1    3    3    0    0  0.54682261603E-01 -0.10328151736E+00  0.16844431282E-01  0.88788566630E+00  0.88000000000E+00 0. -1.
        -11    1    4    4    0    0 -0.37577063903E-01  0.65824876167E-01 -0.12443992287E-01  0.76811874857E-01  0.51100000000E-03 0.  1.
         11    1    4    4    0    0 -0.37913110625E-01  0.36708241392E-01 -0.16320350337E-01  0.55240509588E-01  0.51100000000E-03 0. -1.
</event>
<event>
 8    1  0.9956970E+004  0.1043930E+01  0.7957747E-01            NaN
         13   -1    0    0    0    0  0.00000000000E+00  0.00000000000E+00  0.74505805969E-08  0.10566000000E+00  0.10566000000E+00 0. -1.
     999900   -1    0    0    0    0 -0.00000000000E+00 -0.00000000000E+00 -0.74505805969E-08  0.93827000000E+00  0.93827000000E+00 0.  1.
     999902    2    1    2    0    0  0.12895383018E-02  0.37537257645E-02  0.22670480158E-01  0.10209146999E+01  0.10206552408E+01 0.  0.
     999903    2    3    3    0    0  0.54874301870E-01 -0.11143939725E+00  0.39027796737E-01  0.13164064529E+00  0.19394904178E-01 0.  0.
         14    1    1    2    0    0 -0.12895383018E-02 -0.37537257645E-02 -0.22670480158E-01  0.23015300058E-01  0.00000000000E+00 0.  1.
     999901    1    3    3    0    0 -0.53584763568E-01  0.11519312302E+00 -0.16357316579E-01  0.88927405465E+00  0.88000000000E+00 0. -1.
        -11    1    4    4    0    0  0.13220456870E-01 -0.24038469513E-01  0.17219146681E-01  0.32394268471E-01  0.51100000000E-03 0. -1.
         11    1    4    4    0    0  0.41653845000E-01 -0.87400927738E-01  0.21808650056E-01  0.99246376816E-01  0.51100000000E-03 0.  1.
</event>
<event>
 8    1  0.9956970E+004  0.1043930E+01  0.7957747E-01            NaN
         13   -1    0    0    0    0  0.00000000000E+00  0.00000000000E+00  0.74505805969E-08  0.10566000000E+00  0.10566000000E+00 0.  1.
     999900   -1    0    0    0    0 -0.00000000000E+00 -0.00000000000E+00 -0.74505805969E-08  0.93827000000E+00  0.93827000000E+00 0.  1.
     999902    2    1    2    0    0  0.19234135683E-01 -0.10451434450E-01 -0.75278350067E-02  0.10207815064E+01  0.10205190008E+01 0.  0.
     999903    2    3    3    0    0  0.52204117850E-01 -0.10668602836E+00  0.56204738623E-01  0.13263176802E+00  0.18028718129E-01 0.  0.
         14    1    1    2    0    0 -0.19234135683E-01  0.10451434450E-01  0.75278350067E-02  0.23148493632E-01  0.00000000000E+00 0.  1.
     999901    1    3    3    0    0 -0.32969982167E-01  0.96234593906E-01 -0.63732573630E-01  0.88814973835E+00  0.88000000000E+00 0. -1.
        -11    1    4    4    0    0  0.20921099416E-01 -0.58662170270E-01  0.35501877893E-01  0.71690913486E-01  0.51100000000E-03 0.  1.
         11    1    4    4    0    0  0.31283018434E-01 -0.48023858086E-01  0.20702860729E-01  0.60940854533E-01  0.51100000000E-03 0. -1.
</event>
<event>
 8    1  0.9956970E+004  0.1043930E+01  0.7957747E-01            NaN
         13   -1    0    0    0    0  0.00000000000E+00  0.00000000000E+00  0.74505805969E-08  0.10566000000E+00  0.10566000000E+00 0.  1.
     999900   -1    0    0    0    0 -0.00000000000E+00 -0.00000000000E+00 -0.74505805969E-08  0.93827000000E+00  0.93827000000E+00 0.  1.
     999902    2    1    2    0    0  0.19516065766E-01  0.11644652084E-01  0.22418015862E-02  0.10210936163E+01  0.10208382207E+01 0.  0.
     999903    2    3    3    0    0 -0.97817559221E-01  0.16770935714E-01 -0.80685450998E-01  0.12942642081E+00  0.19786794168E-01 0.  0.
         14    1    1    2    0    0 -0.19516065766E-01 -0.11644652084E-01 -0.22418015862E-02  0.22836383678E-01  0.00000000000E+00 0.  1.
     999901    1    3    3    0    0  0.11733362499E+00 -0.51262836297E-02  0.82927252585E-01  0.89166719551E+00  0.88000000000E+00 0. -1.
        -11    1    4    4    0    0 -0.80954677477E-01  0.12835132468E-01 -0.56007124615E-01  0.99274667259E-01  0.51100000000E-03 0. -1.
         11    1    4    4    0    0 -0.16862881744E-01  0.39358032463E-02 -0.24678326384E-01  0.30151753548E-01  0.51100000000E-03 0.  1.
</event>
<event>
 8    1  0.9956970E+004  0.1043930E+01  0.7957747E-01            NaN
         13   -1    0    0    0    0  0.00000000000E+00  0.00000000000E+00  0.74505805969E-08  0.10566000000E+00  0.10566000000E+00 0.  1.
     999900   -1    0    0    0    0 -0.00000000000E+00 -0.00000000000E+00 -0.74505805969E-08  0.93827000000E+00  0.93827000000E+00 0. -1.
     999902    2    1    2    0    0  0.12532102381E-01  0.21799690865E-02  0.14385571618E-01  0.10247271219E+01  0.10245471799E+01 0.  0.
     999903    2    3    3    0    0 -0.84725960394E-01 -0.32068268661E-01 -0.94194548965E-01  0.13207841435E+00  0.19111050803E-01 0.  0.
         14    1    1    2    0    0 -0.12532102381E-01 -0.21799690865E-02 -0.14385571618E-01  0.19202878068E-01  0.00000000000E+00 0. -1.
     999901    1    3    3    0    0  0.97258062775E-01  0.34248237748E-01  0.10858012058E+00  0.89264870758E+00  0.88000000000E+00 0.  1.
        -11    1    4    4    0    0 -0.24654280938E-01 -0.17528954998E-01 -0.24550610375E-01  0.38962692703E-01  0.51100000000E-03 0. -1.
         11    1    4    4    0    0 -0.60071679456E-01 -0.14539313664E-01 -0.69643938590E-01  0.93115721646E-01  0.51100000000E-03 0.  1.
</event>
<event>
 8    1  0.9956970E+004  0.1043930E+01  0.7957747E-01            NaN
         13   -1    0    0    0    0  0.00000000000E+00  0.00000000000E+00  0.74505805969E-08  0.10566000000E+00  0.10566000000E+00 0. -1.
     999900   -1    0    0    0    0 -0.00000000000E+00 -0.00000000000E+00 -0.74505805969E-08  0.93827000000E+00  0.93827000000E+00 0. -1.
     999902    2    1    2    0    0 -0.16966410751E-01  0.74742881597E-02 -0.12259160759E-01  0.10217036395E+01  0.10214618524E+01 0.  0.
     999903    2    3    3    0    0  0.43808436047E-02 -0.95351888163E-01 -0.89211488062E-01  0.13212475686E+00  0.19674537029E-01 0.  0.
         14    1    1    2    0    0  0.16966410751E-01 -0.74742881597E-02  0.12259160759E-01  0.22226360471E-01  0.00000000000E+00 0. -1.
     999901    1    3    3    0    0 -0.21347254356E-01  0.10282617632E+00  0.76952327302E-01  0.88957888266E+00  0.88000000000E+00 0.  1.
        -11    1    4    4    0    0 -0.46603117097E-02 -0.34291807983E-01 -0.41930710576E-01  0.54369956873E-01  0.51100000000E-03 0.  1.
         11    1    4    4    0    0  0.90411553144E-02 -0.61060080180E-01 -0.47280777486E-01  0.77754799991E-01  0.51100000000E-03 0. -1.
</event>
<event>
 8    1  0.1044621E+005  0.1043930E+01  0.7957747E-01            NaN
         13   -1    0    0    0    0  0.00000000000E+00  0.00000000000E+00  0.74505805969E-08  0.10566000000E+00  0.10566000000E+00 0. -1.
     999900   -1    0    0    0    0 -0.00000000000E+00 -0.00000000000E+00 -0.74505805969E-08  0.93827000000E+00  0.93827000000E+00 0. -1.
     999902    2    1    2    0    0  0.84960522244E-02  0.22676835143E-01 -0.37554077189E-02  0.10194243916E+01  0.10191298079E+01 0.  0.
     999903    2    3    3    0    0  0.12820082572E+00  0.47109516391E-02  0.16540452249E-01  0.13090656528E+00  0.20132001686E-01 0.  0.
         14    1    1    2    0    0 -0.84960522244E-02 -0.22676835143E-01  0.37554077189E-02  0.24505608391E-01  0.00000000000E+00 0.  1.
     999901    1    3    3    0    0 -0.11970477350E+00  0.17965883504E-01 -0.20295859968E-01  0.88851782633E+00  0.88000000000E+00 0.  1.
        -11    1    4    4    0    0  0.81168930020E-01  0.39630121783E-02  0.20148826667E-01  0.83727755273E-01  0.51100000000E-03 0. -1.
         11    1    4    4    0    0  0.47031895704E-01  0.74793946076E-03 -0.36083744174E-02  0.47178810009E-01  0.51100000000E-03 0.  1.
</event>
<event>
 8    1  0.9956970E+004  0.1043930E+01  0.7957747E-01            NaN
         13   -1    0    0    0    0  0.00000000000E+00  0.00000000000E+00  0.74505805969E-08  0.10566000000E+00  0.10566000000E+00 0. -1.
     999900   -1    0    0    0    0 -0.00000000000E+00 -0.00000000000E+00 -0.74505805969E-08  0.93827000000E+00  0.93827000000E+00 0.  1.
     999902    2    1    2    0    0 -0.75566297832E-02  0.17578698323E-01  0.15057253817E-01  0.10195818136E+01  0.10192910480E+01 0.  0.
     999903    2    3    3    0    0  0.89641583818E-01 -0.44522849978E-01  0.80058776433E-01  0.12967772159E+00  0.19723236915E-01 0.  0.
         14    1    1    2    0    0  0.75566297832E-02 -0.17578698323E-01 -0.15057253817E-01  0.24348186399E-01  0.00000000000E+00 0.  1.
     999901    1    3    3    0    0 -0.97198213601E-01  0.62101548301E-01 -0.65001522616E-01  0.88990409201E+00  0.88000000000E+00 0.  1.
        -11    1    4    4    0    0  0.52950906303E-01 -0.24088335359E-01  0.58362501591E-01  0.82404423981E-01  0.51100000000E-03 0.  1.
         11    1    4    4    0    0  0.36690677515E-01 -0.20434514619E-01  0.21696274842E-01  0.47273297613E-01  0.51100000000E-03 0. -1.
</event>
<event>
 8    1  0.9956970E+004  0.1043930E+01  0.7957747E-01            NaN
         13   -1    0    0    0    0  0.00000000000E+00  0.00000000000E+00  0.74505805969E-08  0.10566000000E+00  0.10566000000E+00 0.  1.
     999900   -1    0    0    0    0 -0.00000000000E+00 -0.00000000000E+00 -0.74505805969E-08  0.93827000000E+00  0.93827000000E+00 0. -1.
     999902    2    1    2    0    0  0.33358698492E-02 -0.10261301595E-01 -0.24097191306E-01  0.10175274061E+01  0.10171848038E+01 0.  0.
     999903    2    3    3    0    0  0.63742434422E-01  0.77572348177E-01 -0.79109142896E-01  0.12938889327E+00  0.20066441255E-01 0.  0.
         14    1    1    2    0    0 -0.33358698492E-02  0.10261301595E-01  0.24097191306E-01  0.26402593943E-01  0.00000000000E+00 0.  1.
     999901    1    3    3    0    0 -0.60406564572E-01 -0.87833649771E-01  0.55011951590E-01  0.88813851279E+00  0.88000000000E+00 0.  1.
        -11    1    4    4    0    0  0.37072154317E-01  0.37481295557E-01 -0.30224213288E-01  0.60769699129E-01  0.51100000000E-03 0.  1.
         11    1    4    4    0    0  0.26670280105E-01  0.40091052620E-01 -0.48884929608E-01  0.68619194143E-01  0.51100000000E-03 0. -1.
</event>
<event>
 8    1  0.9956970E+004  0.1043930E+01  0.7957747E-01            NaN
         13   -1    0    0    0    0  0.00000000000E+00  0.00000000000E+00  0.74505805969E-08  0.10566000000E+00  0.10566000000E+00 0.  1.
     999900   -1    0    0    0    0 -0.00000000000E+00 -0.00000000000E+00 -0.74505805969E-08  0.93827000000E+00  0.93827000000E+00 0.  1.
     999902    2    1    2    0    0  0.49020653414E-02 -0.30189946875E-01 -0.95226766679E-03  0.10133298374E+01  0.10128677058E+01 0.  0.
     999903    2    3    3    0    0 -0.93720976663E-01 -0.80201508088E-01  0.11555202966E-01  0.12632132703E+00  0.24650589848E-01 0.  0.
         14    1    1    2    0    0 -0.49020653414E-02  0.30189946875E-01  0.95226766679E-03  0.30600162592E-01  0.00000000000E+00 0. -1.
     999901    1    3    3    0    0  0.98623042004E-01  0.50011561213E-01 -0.12507470633E-01  0.88700851038E+00  0.88000000000E+00 0.  1.
        -11    1    4    4    0    0 -0.66070254126E-01 -0.56772758867E-01  0.19375679756E-01  0.89241821567E-01  0.51100000000E-03 0. -1.
         11    1    4    4    0    0 -0.27650722537E-01 -0.23428749221E-01 -0.78204767893E-02  0.37079505459E-01  0.51100000000E-03 0.  1.
</event>
<event>
 8    1  0.9956970E+004  0.1043930E+01  0.7957747E-01            NaN
         13   -1    0    0    0    0  0.00000000000E+00  0.00000000000E+00  0.74505805969E-08  0.10566000000E+00  0.10566000000E+00 0.  1.
     999900   -1    0    0    0    0 -0.00000000000E+00 -0.00000000000E+00 -0.74505805969E-08  0.93827000000E+00  0.93827000000E+00 0. -1.
     999902    2    1    2    0    0  0.10048793130E-01 -0.14068445513E-01  0.16953046595E-01  0.10197162603E+01  0.10194287353E+01 0.  0.
     999903    2    3    3    0    0 -0.60912166453E-02  0.10921323242E+00  0.66089909203E-01  0.12961890420E+00  0.21646042858E-01 0.  0.
         14    1    1    2    0    0 -0.10048793130E-01  0.14068445513E-01 -0.16953046595E-01  0.24213739723E-01  0.00000000000E+00 0. -1.
     999901    1    3    3    0    0  0.16140009775E-01 -0.12328167793E+00 -0.49136862608E-01  0.89009735608E+00  0.88000000000E+00 0. -1.
        -11    1    4    4    0    0 -0.11546558400E-01  0.49985452713E-01  0.23308087570E-01  0.56350657147E-01  0.51100000000E-03 0.  1.
         11    1    4    4    0    0  0.54553417549E-02  0.59227779708E-01  0.42781821634E-01  0.73268247052E-01  0.51100000000E-03 0. -1.
</event>
<event>
 8    1  0.9956970E+004  0.1043930E+01  0.7957747E-01            NaN
         13   -1    0    0    0    0  0.00000000000E+00  0.00000000000E+00  0.74505805969E-08  0.10566000000E+00  0.10566000000E+00 0.  1.
     999900   -1    0    0    0    0 -0.00000000000E+00 -0.00000000000E+00 -0.74505805969E-08  0.93827000000E+00  0.93827000000E+00 0. -1.
     999902    2    1    2    0    0 -0.59030715228E-02 -0.20644330836E-01  0.98321627085E-02  0.10203141987E+01  0.10200408609E+01 0.  0.
     999903    2    3    3    0    0  0.10303886861E+00  0.69116166337E-01  0.27880399742E-01  0.12888218666E+00  0.20958255027E-01 0.  0.
         14    1    1    2    0    0  0.59030715228E-02  0.20644330836E-01 -0.98321627085E-02  0.23615801333E-01  0.00000000000E+00 0. -1.
     999901    1    3    3    0    0 -0.10894194014E+00 -0.89760497173E-01 -0.18048237034E-01  0.89143201201E+00  0.88000000000E+00 0.  1.
        -11    1    4    4    0    0  0.33950196109E-01  0.21557281110E-01 -0.82911511717E-03  0.40227860216E-01  0.51100000000E-03 0.  1.
         11    1    4    4    0    0  0.69088672505E-01  0.47558885227E-01  0.28709514859E-01  0.88654326443E-01  0.51100000000E-03 0. -1.
</event>
<event>
 8    1  0.9956970E+004  0.1043930E+01  0.7957747E-01            NaN
         13   -1    0    0    0    0  0.00000000000E+00  0.00000000000E+00  0.74505805969E-08  0.10566000000E+00  0.10566000000E+00 0.  1.
     999900   -1    0    0    0    0 -0.00000000000E+00 -0.00000000000E+00 -0.74505805969E-08  0.93827000000E+00  0.93827000000E+00 0.  1.
     999902    2    1    2    0    0 -0.42370104892E-02  0.90984688870E-02 -0.21386609221E-01  0.10203054059E+01  0.10200318621E+01 0.  0.
     999903    2    3    3    0    0 -0.65228102903E-01 -0.27201433514E-01 -0.11076272109E+00  0.13293531079E+00  0.20218631918E-01 0.  0.
         14    1    1    2    0    0  0.42370104892E-02 -0.90984688870E-02  0.21386609221E-01  0.23624594133E-01  0.00000000000E+00 0.  1.
     999901    1    3    3    0    0  0.60991092414E-01  0.36299902401E-01  0.89376111873E-01  0.88737009508E+00  0.88000000000E+00 0. -1.
        -11    1    4    4    0    0 -0.48960120916E-01 -0.10326507601E-01 -0.73863066258E-01  0.89217396719E-01  0.51100000000E-03 0.  1.
         11    1    4    4    0    0 -0.16267981987E-01 -0.16874925913E-01 -0.36899654836E-01  0.43717914068E-01  0.51100000000E-03 0. -1.
</event>
<event>
 8    1  0.9956970E+004  0.1043930E+01  0.7957747E-01            NaN
         13   -1    0    0    0    0  0.00000000000E+00  0.00000000000E+00  0.74505805969E-08  0.10566000000E+00  0.10566000000E+00 0.  1.
     999900   -1    0    0    0    0 -0.00000000000E+00 -0.00000000000E+00 -0.74505805969E-08  0.93827000000E+00  0.93827000000E+00 0.  1.
     999902    2    1    2    0    0  0.18131091988E-01 -0.11446769199E-01  0.97964022932E-02  0.10203559779E+01  0.10200836177E+01 0.  0.
     999903    2    3    3    0    0  0.32645662806E-01  0.87539319113E-01 -0.87004459394E-01  0.12941303622E+00  0.21191656332E-01 0.  0.
         14    1    1    2    0    0 -0.18131091988E-01  0.11446769199E-01 -0.97964022932E-02  0.23574022136E-01  0.00000000000E+00 0. -1.
     999901    1    3    3    0    0 -0.14514570818E-01 -0.98986088312E-01  0.96800861687E-01  0.89094294165E+00  0.88000000000E+00 0. -1.
        -11    1    4    4    0    0  0.86406120752E-02  0.35363154509E-01 -0.46849507537E-01  0.59332540408E-01  0.51100000000E-03 0.  1.
         11    1    4    4    0    0  0.24005050731E-01  0.52176164604E-01 -0.40154951857E-01  0.70080495810E-01  0.51100000000E-03 0. -1.
</event>
<event>
 8    1  0.9956970E+004  0.1043930E+01  0.7957747E-01            NaN
         13   -1    0    0    0    0  0.00000000000E+00  0.00000000000E+00  0.74505805969E-08  0.10566000000E+00  0.10566000000E+00 0.  1.
     999900   -1    0    0    0    0 -0.00000000000E+00 -0.00000000000E+00 -0.74505805969E-08  0.93827000000E+00  0.93827000000E+00 0.  1.
     999902    2    1    2    0    0  0.23143847331E-01 -0.30885087435E-02  0.54294962818E-02  0.10199580167E+01  0.10196762720E+01 0.  0.
     999903    2    3    3    0    0  0.91114794138E-01 -0.53616663924E-01 -0.76609536971E-01  0.13209341715E+00  0.20074793623E-01 0.  0.
         14    1    1    2    0    0 -0.23143847331E-01  0.30885087435E-02 -0.54294962818E-02  0.23971983343E-01  0.00000000000E+00 0. -1.
     999901    1    3    3    0    0 -0.67970946807E-01  0.50528155180E-01  0.82039033253E-01  0.88786459950E+00  0.88000000000E+00 0. -1.
        -11    1    4    4    0    0  0.93122558806E-02 -0.52685921988E-02 -0.11899573726E-02  0.10777443709E-01  0.51100000000E-03 0.  1.
         11    1    4    4    0    0  0.81802538257E-01 -0.48348071725E-01 -0.75419579598E-01  0.12131597344E+00  0.51100000000E-03 0. -1.
</event>
<event>
 8    1  0.9956970E+004  0.1043930E+01  0.7957747E-01            NaN
         13   -1    0    0    0    0  0.00000000000E+00  0.00000000000E+00  0.74505805969E-08  0.10566000000E+00  0.10566000000E+00 0. -1.
     999900   -1    0    0    0    0 -0.00000000000E+00 -0.00000000000E+00 -0.74505805969E-08  0.93827000000E+00  0.93827000000E+00 0. -1.
     999902    2    1    2    0    0 -0.21700973603E-01  0.32251080999E-03  0.10399398377E-01  0.10198637632E+01  0.10195797721E+01 0.  0.
     999903    2    3    3    0    0 -0.60349027730E-01  0.10125358600E+00 -0.53173650998E-01  0.13097553249E+00  0.20805266762E-01 0.  0.
         14    1    1    2    0    0  0.21700973603E-01 -0.32251080999E-03 -0.10399398377E-01  0.24066236829E-01  0.00000000000E+00 0.  1.
     999901    1    3    3    0    0  0.38648054127E-01 -0.10093107519E+00  0.63573049374E-01  0.88888823068E+00  0.88000000000E+00 0. -1.
        -11    1    4    4    0    0 -0.31681949973E-01  0.33614753279E-01 -0.22106374944E-01  0.51211820181E-01  0.51100000000E-03 0. -1.
         11    1    4    4    0    0 -0.28667077757E-01  0.67638832726E-01 -0.31067276054E-01  0.79763712313E-01  0.51100000000E-03 0.  1.
</event>
<event>
 8    1  0.9956970E+004  0.1043930E+01  0.7957747E-01            NaN
         13   -1    0    0    0    0  0.00000000000E+00  0.00000000000E+00  0.74505805969E-08  0.10566000000E+00  0.10566000000E+00 0. -1.
     999900   -1    0    0    0    0 -0.00000000000E+00 -0.00000000000E+00 -0.74505805969E-08  0.93827000000E+00  0.93827000000E+00 0. -1.
     999902    2    1    2    0    0  0.10145321377E-01  0.21944508055E-02  0.20749522047E-01  0.10207290124E+01  0.10204653012E+01 0.  0.
     999903    2    3    3    0    0 -0.21594500256E-01 -0.67292573501E-01 -0.10533687433E+00  0.12846579890E+00  0.20322192369E-01 0.  0.
         14    1    1    2    0    0 -0.10145321377E-01 -0.21944508055E-02 -0.20749522047E-01  0.23200987595E-01  0.00000000000E+00 0.  1.
     999901    1    3    3    0    0  0.31739821632E-01  0.69487024306E-01  0.12608639638E+00  0.89226321351E+00  0.88000000000E+00 0.  1.
        -11    1    4    4    0    0 -0.14508580199E-01 -0.47501650912E-01 -0.88669359144E-01  0.10163376462E+00  0.51100000000E-03 0. -1.
         11    1    4    4    0    0 -0.70859200565E-02 -0.19790922589E-01 -0.16667515190E-01  0.26832034279E-01  0.51100000000E-03 0.  1.
</event>
<event>
 8    1  0.9956970E+004  0.1043930E+01  0.7957747E-01            NaN
         13   -1    0    0    0    0  0.00000000000E+00  0.00000000000E+00  0.74505805969E-08  0.10566000000E+00  0.10566000000E+00 0.  1.
     999900   -1    0    0    0    0 -0.00000000000E+00 -0.00000000000E+00 -0.74505805969E-08  0.93827000000E+00  0.93827000000E+00 0.  1.
     999902    2    1    2    0    0 -0.88245516141E-02 -0.15383236287E-01  0.14140978396E-01  0.10212477616E+01  0.10209958406E+01 0.  0.
     999903    2    3    3    0    0 -0.38783273405E-02  0.11533628806E+00 -0.54186686430E-01  0.12895816231E+00  0.19403862305E-01 0.  0.
         14    1    1    2    0    0  0.88245516141E-02  0.15383236287E-01 -0.14140978396E-01  0.22682238423E-01  0.00000000000E+00 0. -1.
     999901    1    3    3    0    0 -0.49462242736E-02 -0.13071952435E+00  0.68327664827E-01  0.89228959927E+00  0.88000000000E+00 0. -1.
        -11    1    4    4    0    0  0.43976653372E-02  0.48026621228E-01 -0.30775144192E-01  0.57212467418E-01  0.51100000000E-03 0.  1.
         11    1    4    4    0    0 -0.82759926777E-02  0.67309666837E-01 -0.23411542238E-01  0.71745694891E-01  0.51100000000E-03 0. -1.
</event>
<event>
 8    1  0.9956970E+004  0.1043930E+01  0.7957747E-01            NaN
         13   -1    0    0    0    0  0.00000000000E+00  0.00000000000E+00  0.74505805969E-08  0.10566000000E+00  0.10566000000E+00 0. -1.
     999900   -1    0    0    0    0 -0.00000000000E+00 -0.00000000000E+00 -0.74505805969E-08  0.93827000000E+00  0.93827000000E+00 0. -1.
     999902    2    1    2    0    0 -0.19319752148E-01  0.49176357060E-02 -0.10231570660E-01  0.10215219434E+01  0.10212761428E+01 0.  0.
     999903    2    3    3    0    0  0.73020936402E-01  0.64826786267E-01 -0.86183100997E-01  0.13141827297E+00  0.17568898752E-01 0.  0.
         14    1    1    2    0    0  0.19319752148E-01 -0.49176357060E-02  0.10231570660E-01  0.22408056635E-01  0.00000000000E+00 0. -1.
     999901    1    3    3    0    0 -0.92340688549E-01 -0.59909150561E-01  0.75951530338E-01  0.89010367039E+00  0.88000000000E+00 0.  1.
        -11    1    4    4    0    0  0.15699376372E-01  0.13307163287E-01 -0.94208524646E-02  0.22639889473E-01  0.51100000000E-03 0. -1.
         11    1    4    4    0    0  0.57321560030E-01  0.51519622980E-01 -0.76762248533E-01  0.10877838350E+00  0.51100000000E-03 0.  1.
</event>
<event>
 8    1  0.9956970E+004  0.1043930E+01  0.7957747E-01            NaN
         13   -1    0    0    0    0  0.00000000000E+00  0.00000000000E+00  0.74505805969E-08  0.10566000000E+00  0.10566000000E+00 0.  1.
     999900   -1    0    0    0    0 -0.00000000000E+00 -0.00000000000E+00 -0.74505805969E-08  0.93827000000E+00  0.93827000000E+00 0.  1.
     999902    2    1    2    0    0 -0.17530700538E-01  0.20329387258E-01 -0.81220273572E-02  0.10158840239E+01  0.10154968110E+01 0.  0.
     999903    2    3    3    0    0 -0.36995836335E-01 -0.11773892128E+00 -0.22454434743E-02  0.12488667060E+00  0.18986652845E-01 0.  0.
         14    1    1    2    0    0  0.17530700538E-01 -0.20329387258E-01  0.81220273572E-02  0.28045976111E-01  0.00000000000E+00 0. -1.
     999901    1    3    3    0    0  0.19465135797E-01  0.13806830854E+00 -0.58765838829E-02  0.89099735329E+00  0.88000000000E+00 0.  1.
        -11    1    4    4    0    0 -0.13703287453E-01 -0.74479952532E-01 -0.11480652065E-02  0.75740495053E-01  0.51100000000E-03 0.  1.
         11    1    4    4    0    0 -0.23292548882E-01 -0.43258968748E-01 -0.10973782678E-02  0.49146175544E-01  0.51100000000E-03 0. -1.
</event>
<event>
 8    1  0.1327479E+005  0.1043930E+01  0.7957747E-01            NaN
         13   -1    0    0    0    0  0.00000000000E+00  0.00000000000E+00  0.74505805969E-08  0.10566000000E+00  0.10566000000E+00 0.  1.
     999900   -1    0    0    0    0 -0.00000000000E+00 -0.00000000000E+00 -0.74505805969E-08  0.93827000000E+00  0.93827000000E+00 0. -1.
     999902    2    1    2    0    0  0.21121328317E-01  0.41995340287E-02  0.27025396476E-02  0.10222263064E+01  0.10219958763E+01 0.  0.
     999903    2    3    3    0    0  0.79084052265E-01 -0.76779516894E-01 -0.73865312660E-01  0.13330565747E+00  0.12842599546E-01 0.  0.
         14    1    1    2    0    0 -0.21121328317E-01 -0.41995340287E-02 -0.27025396476E-02  0.21703693613E-01  0.00000000000E+00 0. -1.
     999901    1    3    3    0    0 -0.57962723949E-01  0.80979050923E-01  0.76567852308E-01  0.88892064891E+00  0.88000000000E+00 0. -1.
        -11    1    4    4    0    0  0.53232378092E-01 -0.53045172257E-01 -0.43106294422E-01  0.86636540310E-01  0.51100000000E-03 0. -1.
         11    1    4    4    0    0  0.25851674173E-01 -0.23734344637E-01 -0.30759018238E-01  0.46669117164E-01  0.51100000000E-03 0.  1.
</event>
<event>
 8    1  0.9956970E+004  0.1043930E+01  0.7957747E-01            NaN
         13   -1    0    0    0    0  0.00000000000E+00  0.00000000000E+00  0.74505805969E-08  0.10566000000E+00  0.10566000000E+00 0. -1.
     999900   -1    0    0    0    0 -0.00000000000E+00 -0.00000000000E+00 -0.74505805969E-08  0.93827000000E+00  0.93827000000E+00 0. -1.
     999902    2    1    2    0    0  0.15259102205E-01  0.26786061010E-02 -0.25388352852E-01  0.10141880500E+01  0.10137518518E+01 0.  0.
     999903    2    3    3    0    0  0.55851279187E-02 -0.11703924941E+00  0.29882439562E-01  0.12431119827E+00  0.28825930427E-01 0.  0.
         14    1    1    2    0    0 -0.15259102205E-01 -0.26786061010E-02  0.25388352852E-01  0.29741950025E-01  0.00000000000E+00 0. -1.
     999901    1    3    3    0    0  0.96739742864E-02  0.11971785551E+00 -0.55270792414E-01  0.88987685171E+00  0.88000000000E+00 0. -1.
        -11    1    4    4    0    0  0.16152453087E-01 -0.93038959700E-01  0.22900589109E-01  0.97169171373E-01  0.51100000000E-03 0. -1.
         11    1    4    4    0    0 -0.10567325168E-01 -0.24000289709E-01  0.69818504523E-02  0.27142026897E-01  0.51100000000E-03 0.  1.
</event>
<event>
 8    1  0.9956970E+004  0.1043930E+01  0.7957747E-01            NaN
         13   -1    0    0    0    0  0.00000000000E+00  0.00000000000E+00  0.74505805969E-08  0.10566000000E+00  0.10566000000E+00 0.  1.
     999900   -1    0    0    0    0 -0.00000000000E+00 -0.00000000000E+00 -0.74505805969E-08  0.93827000000E+00  0.93827000000E+00 0.  1.
     999902    2    1    2    0    0  0.19595116786E-01 -0.22363188244E-03  0.11975757993E-01  0.10209639948E+01  0.10207056585E+01 0.  0.
     999903    2    3    3    0    0  0.31425827483E-01  0.11474424405E-01  0.12749392946E+00  0.13325838026E+00  0.19592059891E-01 0.  0.
         14    1    1    2    0    0 -0.19595116786E-01  0.22363188244E-03 -0.11975757993E-01  0.22966005151E-01  0.00000000000E+00 0. -1.
     999901    1    3    3    0    0 -0.11830710697E-01 -0.11698056287E-01 -0.11551817147E+00  0.88770561459E+00  0.88000000000E+00 0.  1.
        -11    1    4    4    0    0  0.19471968437E-01  0.14511286265E-01  0.61558225024E-01  0.66177119709E-01  0.51100000000E-03 0.  1.
         11    1    4    4    0    0  0.11953859046E-01 -0.30368618600E-02  0.65935704439E-01  0.67081260549E-01  0.51100000000E-03 0. -1.
</event>
<event>
 8    1  0.9956970E+004  0.1043930E+01  0.7957747E-01            NaN
         13   -1    0    0    0    0  0.00000000000E+00  0.00000000000E+00  0.74505805969E-08  0.10566000000E+00  0.10566000000E+00 0.  1.
     999900   -1    0    0    0    0 -0.00000000000E+00 -0.00000000000E+00 -0.74505805969E-08  0.93827000000E+00  0.93827000000E+00 0.  1.
     999902    2    1    2    0    0 -0.21674526227E-01  0.21186877115E-02  0.72051554756E-02  0.10209912077E+01  0.10207334902E+01 0.  0.
     999903    2    3    3    0    0  0.98818559889E-01 -0.69195993942E-01  0.40649689897E-01  0.12929456398E+00  0.22616224905E-01 0.  0.
         14    1    1    2    0    0  0.21674526227E-01 -0.21186877115E-02 -0.72051554756E-02  0.22938792257E-01  0.00000000000E+00 0. -1.
     999901    1    3    3    0    0 -0.12049308612E+00  0.71314681654E-01 -0.33444534422E-01  0.89169664377E+00  0.88000000000E+00 0.  1.
        -11    1    4    4    0    0  0.49409487862E-01 -0.21536740902E-01  0.14355274539E-01  0.55780495942E-01  0.51100000000E-03 0. -1.
         11    1    4    4    0    0  0.49409072027E-01 -0.47659253040E-01  0.26294415359E-01  0.73514068034E-01  0.51100000000E-03 0.  1.
</event>
<event>
 8    1  0.9956970E+004  0.1043930E+01  0.7957747E-01            NaN
         13   -1    0    0    0    0  0.00000000000E+00  0.00000000000E+00  0.74505805969E-08  0.10566000000E+00  0.10566000000E+00 0. -1.
     999900   -1    0    0    0    0 -0.00000000000E+00 -0.00000000000E+00 -0.74505805969E-08  0.93827000000E+00  0.93827000000E+00 0.  1.
     999902    2    1    2    0    0  0.16052588901E-01  0.19642027869E-01 -0.68861761949E-02  0.10176447514E+01  0.10173052275E+01 0.  0.
     999903    2    3    3    0    0 -0.79179278885E-01  0.76021718901E-01 -0.64411696055E-01  0.12884951988E+00  0.20116466790E-01 0.  0.
         14    1    1    2    0    0 -0.16052588901E-01 -0.19642027869E-01  0.68861761949E-02  0.26285248560E-01  0.00000000000E+00 0. -1.
     999901    1    3    3    0    0  0.95231867786E-01 -0.56379691031E-01  0.57525519860E-01  0.88879523156E+00  0.88000000000E+00 0. -1.
        -11    1    4    4    0    0 -0.40635375121E-01  0.40760450205E-01 -0.45208934546E-01  0.73189868807E-01  0.51100000000E-03 0. -1.
         11    1    4    4    0    0 -0.38543903764E-01  0.35261268696E-01 -0.19202761509E-01  0.55659651077E-01  0.51100000000E-03 0.  1.
</event>
<event>
 8    1  0.9956970E+004  0.1043930E+01  0.7957747E-01            NaN
         13   -1    0    0    0    0  0.00000000000E+00  0.00000000000E+00  0.74505805969E-08  0.10566000000E+00  0.10566000000E+00 0.  1.
     999900   -1    0    0    0    0 -0.00000000000E+00 -0.00000000000E+00 -0.74505805969E-08  0.93827000000E+00  0.93827000000E+00 0.  1.
     999902    2    1    2    0    0 -0.21474657637E-01 -0.87128635799E-02  0.61680497430E-03  0.10207469165E+01  0.10204836168E+01 0.  0.
     999903    2    3    3    0    0 -0.68675108537E-02 -0.84612687071E-01 -0.98560885286E-01  0.13180914241E+00  0.21282208457E-01 0.  0.
         14    1    1    2    0    0  0.21474657637E-01  0.87128635799E-02 -0.61680497430E-03  0.23183083505E-01  0.00000000000E+00 0.  1.
     999901    1    3    3    0    0 -0.14607146784E-01  0.75899823491E-01  0.99177690261E-01  0.88893777408E+00  0.88000000000E+00 0.  1.
        -11    1    4    4    0    0  0.75600824424E-02 -0.35687814943E-01 -0.42632637484E-01  0.56112190135E-01  0.51100000000E-03 0. -1.
         11    1    4    4    0    0 -0.14427593296E-01 -0.48924872128E-01 -0.55928247803E-01  0.75696952279E-01  0.51100000000E-03 0.  1.
</event>
<event>
 8    1  0.1061566E+005  0.1043930E+01  0.7957747E-01            NaN
         13   -1    0    0    0    0  0.00000000000E+00  0.00000000000E+00  0.74505805969E-08  0.10566000000E+00  0.10566000000E+00 0. -1.
     999900   -1    0    0    0    0 -0.00000000000E+00 -0.00000000000E+00 -0.74505805969E-08  0.93827000000E+00  0.93827000000E+00 0. -1.
     999902    2    1    2    0    0 -0.20506601080E-01  0.34750284861E-02 -0.16378511198E-01  0.10174563879E+01  0.10171119157E+01 0.  0.
     999903    2    3    3    0    0 -0.87744362793E-01  0.92996911083E-01  0.12160210673E-01  0.12990383014E+00  0.19484242057E-01 0.  0.
         14    1    1    2    0    0  0.20506601080E-01 -0.34750284861E-02  0.16378511198E-01  0.26473612143E-01  0.00000000000E+00 0.  1.
     999901    1    3    3    0    0  0.67237761713E-01 -0.89521882596E-01 -0.28538721871E-01  0.88755255772E+00  0.88000000000E+00 0.  1.
        -11    1    4    4    0    0 -0.47024806800E-01  0.36006067849E-01  0.75400565034E-02  0.59706640749E-01  0.51100000000E-03 0.  1.
         11    1    4    4    0    0 -0.40719555994E-01  0.56990843234E-01  0.46201541698E-02  0.70197189391E-01  0.51100000000E-03 0. -1.
</event>
<event>
 7    1  0.9956970E+004  0.1043930E+01  0.7957747E-01            NaN
         13   -1    0    0    0    0  0.00000000000E+00  0.00000000000E+00  0.74505805969E-08  0.10566000000E+00  0.10566000000E+00 0. -1.
     999900   -1    0    0    0    0 -0.00000000000E+00 -0.00000000000E+00 -0.74505805969E-08  0.93827000000E+00  0.93827000000E+00 0. -1.
     999902    2    1    2    0    0  0.18979074416E-01  0.34744874864E-02  0.11107593800E-01  0.10216666676E+01  0.10214240666E+01 0.  0.
         14    1    1    2    0    0 -0.18979074416E-01 -0.34744874864E-02 -0.11107593800E-01  0.22263332387E-01  0.00000000000E+00 0.  1.
     999901    1    3    3    0    0  0.45095226509E-01 -0.99220540136E-01  0.80260710915E-01  0.89034828958E+00  0.88000000000E+00 0.  1.
        -11    1    3    3    0    0 -0.22494650246E-01  0.80409369686E-01 -0.35367162163E-01  0.90679508730E-01  0.51100000000E-03 0.  1.
         11    1    3    3    0    0 -0.36215018470E-02  0.22285657936E-01 -0.33785954953E-01  0.40638869304E-01  0.51100000000E-03 0. -1.
</event>
<event>
 8    1  0.9956970E+004  0.1043930E+01  0.7957747E-01            NaN
         13   -1    0    0    0    0  0.00000000000E+00  0.00000000000E+00  0.74505805969E-08  0.10566000000E+00  0.10566000000E+00 0. -1.
     999900   -1    0    0    0    0 -0.00000000000E+00 -0.00000000000E+00 -0.74505805969E-08  0.93827000000E+00  0.93827000000E+00 0.  1.
     999902    2    1    2    0    0 -0.19799567219E-01  0.45457182679E-02 -0.11199989633E-01  0.10207324531E+01  0.10204688209E+01 0.  0.
     999903    2    3    3    0    0 -0.90636398954E-01 -0.89100662141E-01  0.29566205190E-01  0.13199774352E+00  0.19883636352E-01 0.  0.
         14    1    1    2    0    0  0.19799567219E-01 -0.45457182679E-02  0.11199989633E-01  0.23197546948E-01  0.00000000000E+00 0. -1.
     999901    1    3    3    0    0  0.70836831735E-01  0.93646380409E-01 -0.40766194823E-01  0.88873470954E+00  0.88000000000E+00 0.  1.
        -11    1    4    4    0    0 -0.71169861108E-01 -0.61873470558E-01  0.28451366445E-01  0.98504907810E-01  0.51100000000E-03 0. -1.
         11    1    4    4    0    0 -0.19466537846E-01 -0.27227191582E-01  0.11148387454E-02  0.33492835705E-01  0.51100000000E-03 0.  1.
</event>
<event>
 8    1  0.9956970E+004  0.1043930E+01  0.7957747E-01            NaN
         13   -1    0    0    0    0  0.00000000000E+00  0.00000000000E+00  0.74505805969E-08  0.10566000000E+00  0.10566000000E+00 0.  1.
     999900   -1    0    0    0    0 -0.00000000000E+00 -0.00000000000E+00 -0.74505805969E-08  0.93827000000E+00  0.93827000000E+00 0. -1.
     999902    2    1    2    0    0 -0.15100155783E-01  0.19446788902E-01 -0.22955385070E-02  0.10192022464E+01  0.10189022314E+01 0.  0.
     999903    2    3    3    0    0 -0.39809187375E-01  0.82652567626E-01  0.92086752701E-01  0.13155731532E+00  0.20276559259E-01 0.  0.
         14    1    1    2    0    0  0.15100155783E-01 -0.19446788902E-01  0.22955385070E-02  0.24727753645E-01  0.00000000000E+00 0.  1.
     999901    1    3    3    0    0  0.24709031592E-01 -0.63205778724E-01 -0.94382291208E-01  0.88764493104E+00  0.88000000000E+00 0. -1.
        -11    1    4    4    0    0 -0.31322001515E-01  0.57439174989E-01  0.76724099541E-01  0.10083241133E+00  0.51100000000E-03 0. -1.
         11    1    4    4    0    0 -0.84871858604E-02  0.25213392637E-01  0.15362653160E-01  0.30724903990E-01  0.51100000000E-03 0.  1.
</event>
<event>
 8    1  0.9956970E+004  0.1043930E+01  0.7957747E-01            NaN
         13   -1    0    0    0    0  0.00000000000E+00  0.00000000000E+00  0.74505805969E-08  0.10566000000E+00  0.10566000000E+00 0. -1.
     999900   -1    0    0    0    0 -0.00000000000E+00 -0.00000000000E+00 -0.74505805969E-08  0.93827000000E+00  0.93827000000E+00 0.  1.
     999902    2    1    2    0    0  0.10224807152E-01  0.18240901299E-01  0.10497239096E-01  0.10205319405E+01  0.10202636778E+01 0.  0.
     999903    2    3    3    0    0 -0.16909457193E-01  0.98324288658E-01  0.86045006447E-01  0.13325685212E+00  0.20001250488E-01 0.  0.
         14    1    1    2    0    0 -0.10224807152E-01 -0.18240901299E-01 -0.10497239096E-01  0.23398059538E-01  0.00000000000E+00 0.  1.
     999901    1    3    3    0    0  0.27134264346E-01 -0.80083387359E-01 -0.75547767351E-01  0.88727508834E+00  0.88000000000E+00 0.  1.
        -11    1    4    4    0    0 -0.10321426092E-01  0.35997254737E-01  0.21036471814E-01  0.42954958416E-01  0.51100000000E-03 0. -1.
         11    1    4    4    0    0 -0.65880311015E-02  0.62327033921E-01  0.65008534634E-01  0.90301893708E-01  0.51100000000E-03 0.  1.
</event>
<event>
 8    1  0.9956970E+004  0.1043930E+01  0.7957747E-01            NaN
         13   -1    0    0    0    0  0.00000000000E+00  0.00000000000E+00  0.74505805969E-08  0.10566000000E+00  0.10566000000E+00 0.  1.
     999900   -1    0    0    0    0 -0.00000000000E+00 -0.00000000000E+00 -0.74505805969E-08  0.93827000000E+00  0.93827000000E+00 0.  1.
     999902    2    1    2    0    0 -0.20639663933E-01 -0.90553862398E-02 -0.72948693965E-02  0.10202401105E+01  0.10199650347E+01 0.  0.
     999903    2    3    3    0    0  0.70114684941E-01 -0.43000261335E-01 -0.98932204234E-01  0.13019179293E+00  0.19930639560E-01 0.  0.
         14    1    1    2    0    0  0.20639663933E-01  0.90553862398E-02  0.72948693965E-02  0.23689889547E-01  0.00000000000E+00 0.  1.
     999901    1    3    3    0    0 -0.90754348874E-01  0.33944875095E-01  0.91637334837E-01  0.89004831752E+00  0.88000000000E+00 0. -1.
        -11    1    4    4    0    0  0.22593601181E-01 -0.24179348741E-01 -0.45308495208E-01  0.56109113154E-01  0.51100000000E-03 0.  1.
         11    1    4    4    0    0  0.47521083760E-01 -0.18820912594E-01 -0.53623709026E-01  0.74082679779E-01  0.51100000000E-03 0. -1.
</event>
<event>
 8    1  0.9956970E+004  0.1043930E+01  0.7957747E-01            NaN
         13   -1    0    0    0    0  0.00000000000E+00  0.00000000000E+00  0.74505805969E-08  0.10566000000E+00  0.10566000000E+00 0.  1.
     999900   -1    0    0    0    0 -0.00000000000E+00 -0.00000000000E+00 -0.74505805969E-08  0.93827000000E+00  0.93827000000E+00 0.  1.
     999902    2    1    2    0    0  0.18247963088E-01  0.83860750068E-02 -0.12456942311E-01  0.10202976107E+01  0.10200238843E+01 0.  0.
     999903    2    3    3    0    0 -0.56152153115E-02 -0.21927721968E-01 -0.12858535174E+00  0.13183028716E+00  0.18239416066E-01 0.  0.
         14    1    1    2    0    0 -0.18247963088E-01 -0.83860750068E-02  0.12456942311E-01  0.23632389270E-01  0.00000000000E+00 0.  1.
     999901    1    3    3    0    0  0.23863178399E-01  0.30313796975E-01  0.11612840943E+00  0.88846732357E+00  0.88000000000E+00 0. -1.
        -11    1    4    4    0    0 -0.10031620615E-01 -0.82922154005E-02 -0.39348657536E-01  0.41448428429E-01  0.51100000000E-03 0. -1.
         11    1    4    4    0    0  0.44164053031E-02 -0.13635506568E-01 -0.89236694202E-01  0.90381858734E-01  0.51100000000E-03 0.  1.
</event>
<event>
 8    1  0.9956970E+004  0.1043930E+01  0.7957747E-01            NaN
         13   -1    0    0    0    0  0.00000000000E+00  0.00000000000E+00  0.74505805969E-08  0.10566000000E+00  0.10566000000E+00 0. -1.
     999900   -1    0    0    0    0 -0.00000000000E+00 -0.00000000000E+00 -0.74505805969E-08  0.93827000000E+00  0.93827000000E+00 0. -1.
     999902    2    1    2    0    0  0.21892519287E-01  0.13239904623E-01  0.15896239895E-02  0.10182959527E+01  0.10179732526E+01 0.  0.
     999903    2    3    3    0    0 -0.20584716997E-01  0.34135236483E-01  0.12084721685E+00  0.12899099719E+00  0.21111195871E-01 0.  0.
         14    1    1    2    0    0 -0.21892519287E-01 -0.13239904623E-01 -0.15896239895E-02  0.25634047273E-01  0.00000000000E+00 0. -1.
     999901    1    3    3    0    0  0.42477236284E-01 -0.20895331860E-01 -0.11925759286E+00  0.88930495554E+00  0.88000000000E+00 0. -1.
        -11    1    4    4    0    0 -0.52725168481E-02  0.16886699685E-01  0.26516875281E-01  0.31880493343E-01  0.51100000000E-03 0. -1.
         11    1    4    4    0    0 -0.15312200149E-01  0.17248536798E-01  0.94330341568E-01  0.97110503842E-01  0.51100000000E-03 0.  1.
</event>
<event>
 8    1  0.9956970E+004  0.1043930E+01  0.7957747E-01            NaN
         13   -1    0    0    0    0  0.00000000000E+00  0.00000000000E+00  0.74505805969E-08  0.10566000000E+00  0.10566000000E+00 0.  1.
     999900   -1    0    0    0    0 -0.00000000000E+00 -0.00000000000E+00 -0.74505805969E-08  0.93827000000E+00  0.93827000000E+00 0. -1.
     999902    2    1    2    0    0 -0.37535662824E-02  0.22806538241E-01  0.19728216768E-02  0.10207325977E+01  0.10204689690E+01 0.  0.
     999903    2    3    3    0    0 -0.10156644468E+00 -0.43993150697E-01 -0.65536363431E-01  0.13023439578E+00  0.20367692987E-01 0.  0.
         14    1    1    2    0    0  0.37535662824E-02 -0.22806538241E-01 -0.19728216768E-02  0.23197402263E-01  0.00000000000E+00 0.  1.
     999901    1    3    3    0    0  0.97812878400E-01  0.66799688938E-01  0.67509185107E-01  0.89049820196E+00  0.88000000000E+00 0.  1.
        -11    1    4    4    0    0 -0.21481940501E-01 -0.13336667363E-01 -0.24334555837E-01  0.35096612270E-01  0.51100000000E-03 0.  1.
         11    1    4    4    0    0 -0.80084504181E-01 -0.30656483334E-01 -0.41201807594E-01  0.95137783506E-01  0.51100000000E-03 0. -1.
</event>
<event>
 8    1  0.9956970E+004  0.1043930E+01  0.7957747E-01            NaN
         13   -1    0    0    0    0  0.00000000000E+00  0.00000000000E+00  0.74505805969E-08  0.10566000000E+00  0.10566000000E+00 0.  1.
     999900   -1    0    0    0    0 -0.00000000000E+00 -0.00000000000E+00 -0.74505805969E-08  0.93827000000E+00  0.93827000000E+00 0. -1.
     999902    2    1    2    0    0  0.20476117138E-01  0.55888621420E-02 -0.11736943121E-01  0.10196758748E+01  0.10193873784E+01 0.  0.
     999903    2    3    3    0    0  0.12426405435E+00 -0.29542381818E-02  0.39970134838E-01  0.13202811679E+00  0.19583901982E-01 0.  0.
         14    1    1    2    0    0 -0.20476117138E-01 -0.55888621420E-02  0.11736943121E-01  0.24254125153E-01  0.00000000000E+00 0. -1.
     999901    1    3    3    0    0 -0.10378793721E+00  0.85431003238E-02 -0.51707077959E-01  0.88764775806E+00  0.88000000000E+00 0.  1.
        -11    1    4    4    0    0  0.53238213906E-01  0.26697453417E-02  0.26441856643E-01  0.59505191906E-01  0.51100000000E-03 0.  1.
         11    1    4    4    0    0  0.71025840446E-01 -0.56239835236E-02  0.13528278195E-01  0.72522924883E-01  0.51100000000E-03 0. -1.
</event>
<event>
 8    1  0.9956970E+004  0.1043930E+01  0.7957747E-01            NaN
         13   -1    0    0    0    0  0.00000000000E+00  0.00000000000E+00  0.74505805969E-08  0.10566000000E+00  0.10566000000E+00 0. -1.
     999900   -1    0    0    0    0 -0.00000000000E+00 -0.00000000000E+00 -0.74505805969E-08  0.93827000000E+00  0.93827000000E+00 0. -1.
     999902    2    1    2    0    0 -0.19849926896E-01 -0.82672604644E-02  0.10060916299E-01  0.10201899657E+01  0.10199137105E+01 0.  0.
     999903    2    3    3    0    0 -0.51937165078E-01  0.28664656202E-01 -0.11402039141E+00  0.13013955797E+00  0.20408901474E-01 0.  0.
         14    1    1    2    0    0  0.19849926896E-01  0.82672604644E-02 -0.10060916299E-01  0.23740034333E-01  0.00000000000E+00 0.  1.
     999901    1    3    3    0    0  0.32087238182E-01 -0.36931916667E-01  0.12408130771E+00  0.89005040770E+00  0.88000000000E+00 0.  1.
        -11    1    4    4    0    0 -0.13466084070E-01  0.18068361011E-01 -0.35320358600E-01  0.41899760649E-01  0.51100000000E-03 0.  1.
         11    1    4    4    0    0 -0.38471081007E-01  0.10596295192E-01 -0.78700032810E-01  0.88239797319E-01  0.51100000000E-03 0. -1.
</event>
<event>
 8    1  0.9956970E+004  0.1043930E+01  0.7957747E-01            NaN
         13   -1    0    0    0    0  0.00000000000E+00  0.00000000000E+00  0.74505805969E-08  0.10566000000E+00  0.10566000000E+00 0. -1.
     999900   -1    0    0    0    0 -0.00000000000E+00 -0.00000000000E+00 -0.74505805969E-08  0.93827000000E+00  0.93827000000E+00 0. -1.
     999902    2    1    2    0    0  0.11226156017E-01  0.18760474745E-01 -0.78370949980E-02  0.10207049693E+01  0.10204407050E+01 0.  0.
     999903    2    3    3    0    0  0.11941206476E+00 -0.14545005561E-01 -0.50559487226E-01  0.13242649460E+00  0.22576898092E-01 0.  0.
         14    1    1    2    0    0 -0.11226156017E-01 -0.18760474745E-01  0.78370949980E-02  0.23225030669E-01  0.00000000000E+00 0. -1.
     999901    1    3    3    0    0 -0.10818590874E+00  0.33305480306E-01  0.42722392228E-01  0.88827847473E+00  0.88000000000E+00 0. -1.
        -11    1    4    4    0    0  0.63790440912E-01 -0.11205928659E-01 -0.15524425263E-01  0.66603769335E-01  0.51100000000E-03 0. -1.
         11    1    4    4    0    0  0.55621623846E-01 -0.33390769020E-02 -0.35035061964E-01  0.65822725268E-01  0.51100000000E-03 0.  1.
</event>
<event>
 8    1  0.9956970E+004  0.1043930E+01  0.7957747E-01            NaN
         13   -1    0    0    0    0  0.00000000000E+00  0.00000000000E+00  0.74505805969E-08  0.10566000000E+00  0.10566000000E+00 0.  1.
     999900   -1    0    0    0    0 -0.00000000000E+00 -0.00000000000E+00 -0.74505805969E-08  0.93827000000E+00  0.93827000000E+00 0.  1.
     999902    2    1    2    0    0 -0.13432239050E-01 -0.61328988231E-02 -0.16556376775E-01  0.10217455211E+01  0.10215046543E+01 0.  0.
     999903    2    3    3    0    0 -0.20064570940E-01 -0.12744445036E+00  0.23317719533E-01  0.13250403310E+00  0.19207493564E-01 0.  0.
         14    1    1    2    0    0  0.13432239050E-01  0.61328988231E-02  0.16556376775E-01  0.22184478939E-01  0.00000000000E+00 0.  1.
     999901    1    3    3    0    0  0.66323318895E-02  0.12131155153E+00 -0.39874096307E-01  0.88924148796E+00  0.88000000000E+00 0.  1.
        -11    1    4    4    0    0 -0.95042830697E-02 -0.92625047578E-01  0.95650883526E-02  0.93602793077E-01  0.51100000000E-03 0. -1.
         11    1    4    4    0    0 -0.10560287870E-01 -0.34819402778E-01  0.13752631180E-01  0.38901240020E-01  0.51100000000E-03 0.  1.
</event>
<event>
 7    1  0.9956970E+004  0.1043930E+01  0.7957747E-01            NaN
         13   -1    0    0    0    0  0.00000000000E+00  0.00000000000E+00  0.74505805969E-08  0.10566000000E+00  0.10566000000E+00 0.  1.
     999900   -1    0    0    0    0 -0.00000000000E+00 -0.00000000000E+00 -0.74505805969E-08  0.93827000000E+00  0.93827000000E+00 0.  1.
     999903    2    1    2    0    0 -0.11239366735E+00 -0.10265424326E-01  0.20534149680E-01  0.11653877270E+00  0.20540663138E-01 0.  0.
         14    1    1    2    0    0  0.30742049794E-01  0.11948936682E-01  0.26572678667E-01  0.42355140950E-01  0.00000000000E+00 0.  1.
     999901    1    1    2    0    0  0.81651617557E-01 -0.16835123560E-02 -0.47106828348E-01  0.88503608635E+00  0.88000000000E+00 0.  1.
        -11    1    3    3    0    0 -0.66777236191E-01 -0.15799323725E-02  0.28877324758E-02  0.66860269065E-01  0.51100000000E-03 0.  1.
         11    1    3    3    0    0 -0.45616431160E-01 -0.86854919533E-02  0.17646417205E-01  0.49678503635E-01  0.51100000000E-03 0. -1.
</event>
<event>
 8    1  0.9956970E+004  0.1043930E+01  0.7957747E-01            NaN
         13   -1    0    0    0    0  0.00000000000E+00  0.00000000000E+00  0.74505805969E-08  0.10566000000E+00  0.10566000000E+00 0.  1.
     999900   -1    0    0    0    0 -0.00000000000E+00 -0.00000000000E+00 -0.74505805969E-08  0.93827000000E+00  0.93827000000E+00 0. -1.
     999902    2    1    2    0    0  0.17204925747E-01  0.15503537478E-01 -0.40387706278E-02  0.10204208356E+01  0.10201499894E+01 0.  0.
     999903    2    3    3    0    0  0.20501253312E-01 -0.84417462894E-01  0.93707700855E-01  0.12938242743E+00  0.20299504870E-01 0.  0.
         14    1    1    2    0    0 -0.17204925747E-01 -0.15503537478E-01  0.40387706278E-02  0.23509164436E-01  0.00000000000E+00 0. -1.
     999901    1    3    3    0    0 -0.32963275645E-02  0.99921000372E-01 -0.97746471483E-01  0.89103840814E+00  0.88000000000E+00 0. -1.
        -11    1    4    4    0    0  0.86394494310E-02 -0.41851879071E-01  0.31568647467E-01  0.53132480576E-01  0.51100000000E-03 0. -1.
         11    1    4    4    0    0  0.11861803881E-01 -0.42565583823E-01  0.62139053389E-01  0.76249946849E-01  0.51100000000E-03 0.  1.
</event>
<event>
 8    1  0.9956970E+004  0.1043930E+01  0.7957747E-01            NaN
         13   -1    0    0    0    0  0.00000000000E+00  0.00000000000E+00  0.74505805969E-08  0.10566000000E+00  0.10566000000E+00 0. -1.
     999900   -1    0    0    0    0 -0.00000000000E+00 -0.00000000000E+00 -0.74505805969E-08  0.93827000000E+00  0.93827000000E+00 0.  1.
     999902    2    1    2    0    0  0.32152155791E-02  0.98824486048E-02 -0.20382232745E-01  0.10210512803E+01  0.10207949262E+01 0.  0.
     999903    2    3    3    0    0  0.82032881911E-01  0.41421486459E-01 -0.95168491513E-01  0.13380840495E+00  0.20062756597E-01 0.  0.
         14    1    1    2    0    0 -0.32152155791E-02 -0.98824486048E-02  0.20382232745E-01  0.22878719661E-01  0.00000000000E+00 0. -1.
     999901    1    3    3    0    0 -0.78817666332E-01 -0.31539037854E-01  0.74786258768E-01  0.88724287539E+00  0.88000000000E+00 0.  1.
        -11    1    4    4    0    0  0.42837461884E-01  0.18571593369E-01 -0.61948714411E-01  0.77574844886E-01  0.51100000000E-03 0. -1.
         11    1    4    4    0    0  0.39195420027E-01  0.22849893090E-01 -0.33219777102E-01  0.56233560060E-01  0.51100000000E-03 0.  1.
</event>
<event>
 8    1  0.9956970E+004  0.1043930E+01  0.7957747E-01            NaN
         13   -1    0    0    0    0  0.00000000000E+00  0.00000000000E+00  0.74505805969E-08  0.10566000000E+00  0.10566000000E+00 0.  1.
     999900   -1    0    0    0    0 -0.00000000000E+00 -0.00000000000E+00 -0.74505805969E-08  0.93827000000E+00  0.93827000000E+00 0.  1.
     999902    2    1    2    0    0  0.20608292530E-01  0.77813802884E-02  0.75566788022E-02  0.10206414836E+01  0.10203757558E+01 0.  0.
     999903    2    3    3    0    0  0.10909633418E+00 -0.70872528472E-01  0.18032741060E-01  0.13265143934E+00  0.18609115634E-01 0.  0.
         14    1    1    2    0    0 -0.20608292530E-01 -0.77813802884E-02 -0.75566788022E-02  0.23288516370E-01  0.00000000000E+00 0. -1.
     999901    1    3    3    0    0 -0.88488041653E-01  0.78653908760E-01 -0.10476062258E-01  0.88799004429E+00  0.88000000000E+00 0. -1.
        -11    1    4    4    0    0  0.21450390123E-01 -0.15411838690E-01  0.11237021858E-01  0.28708461984E-01  0.51100000000E-03 0.  1.
         11    1    4    4    0    0  0.87645944059E-01 -0.55460689782E-01  0.67957192026E-02  0.10394297736E+00  0.51100000000E-03 0. -1.
</event>
<event>
 8    1  0.9956970E+004  0.1043930E+01  0.7957747E-01            NaN
         13   -1    0    0    0    0  0.00000000000E+00  0.00000000000E+00  0.74505805969E-08  0.10566000000E+00  0.10566000000E+00 0. -1.
     999900   -1    0    0    0    0 -0.00000000000E+00 -0.00000000000E+00 -0.74505805969E-08  0.93827000000E+00  0.93827000000E+00 0.  1.
     999902    2    1    2    0    0 -0.16698504309E-01  0.10694633391E-01 -0.12810005828E-01  0.10203225546E+01  0.10200494125E+01 0.  0.
     999903    2    3    3    0    0 -0.19049635468E-01  0.12933740767E+00  0.38843437136E-03  0.13225958693E+00  0.20034815144E-01 0.  0.
         14    1    1    2    0    0  0.16698504309E-01 -0.10694633391E-01  0.12810005828E-01  0.23607445412E-01  0.00000000000E+00 0.  1.
     999901    1    3    3    0    0  0.23511311586E-02 -0.11864277428E+00 -0.13198440200E-01  0.88806296766E+00  0.88000000000E+00 0.  1.
        -11    1    4    4    0    0 -0.13230121078E-02  0.83700565764E-02  0.51089914806E-02  0.99081341876E-02  0.51100000000E-03 0. -1.
         11    1    4    4    0    0 -0.17726623360E-01  0.12096735110E+00 -0.47205571092E-02  0.12235145274E+00  0.51100000000E-03 0.  1.
</event>
<event>
 8    1  0.9956970E+004  0.1043930E+01  0.7957747E-01            NaN
         13   -1    0    0    0    0  0.00000000000E+00  0.00000000000E+00  0.74505805969E-08  0.10566000000E+00  0.10566000000E+00 0. -1.
     999900   -1    0    0    0    0 -0.00000000000E+00 -0.00000000000E+00 -0.74505805969E-08  0.93827000000E+00  0.93827000000E+00 0. -1.
     999902    2    1    2    0    0 -0.32458367803E-02  0.20663101664E-01  0.12307603270E-01  0.10196611656E+01  0.10193723148E+01 0.  0.
     999903    2    3    3    0    0 -0.56073153291E-01 -0.30460257749E-02 -0.11437834673E+00  0.12870539897E+00  0.18143779370E-01 0.  0.
         14    1    1    2    0    0  0.32458367803E-02 -0.20663101664E-01 -0.12307603270E-01  0.24268834439E-01  0.00000000000E+00 0.  1.
     999901    1    3    3    0    0  0.52827316511E-01  0.23709127439E-01  0.12668595000E+00  0.89095576659E+00  0.88000000000E+00 0.  1.
        -11    1    4    4    0    0 -0.31816981347E-01 -0.10456663667E-01 -0.69600835870E-01  0.77241178084E-01  0.51100000000E-03 0.  1.
         11    1    4    4    0    0 -0.24256171945E-01  0.74106378919E-02 -0.44777510862E-01  0.51464220886E-01  0.51100000000E-03 0. -1.
</event>
<event>
 8    1  0.9956970E+004  0.1043930E+01  0.7957747E-01            NaN
         13   -1    0    0    0    0  0.00000000000E+00  0.00000000000E+00  0.74505805969E-08  0.10566000000E+00  0.10566000000E+00 0.  1.
     999900   -1    0    0    0    0 -0.00000000000E+00 -0.00000000000E+00 -0.74505805969E-08  0.93827000000E+00  0.93827000000E+00 0.  1.
     999902    2    1    2    0    0  0.52658634261E-02 -0.22141992620E-01 -0.55935843529E-02  0.10204931627E+01  0.10202239998E+01 0.  0.
     999903    2    3    3    0    0  0.99574861130E-01 -0.17425664349E-01 -0.82877414167E-01  0.13207365533E+00  0.18867376758E-01 0.  0.
         14    1    1    2    0    0 -0.52658634261E-02  0.22141992620E-01  0.55935843529E-02  0.23436837259E-01  0.00000000000E+00 0. -1.
     999901    1    3    3    0    0 -0.94308997704E-01 -0.47163282706E-02  0.77283829814E-01  0.88841950741E+00  0.88000000000E+00 0. -1.
        -11    1    4    4    0    0  0.65016439757E-01 -0.18697997054E-01 -0.47972880446E-01  0.82936185780E-01  0.51100000000E-03 0.  1.
         11    1    4    4    0    0  0.34558421372E-01  0.12723327043E-02 -0.34904533721E-01  0.49137469548E-01  0.51100000000E-03 0. -1.
</event>
<event>
 8    1  0.9956970E+004  0.1043930E+01  0.7957747E-01            NaN
         13   -1    0    0    0    0  0.00000000000E+00  0.00000000000E+00  0.74505805969E-08  0.10566000000E+00  0.10566000000E+00 0. -1.
     999900   -1    0    0    0    0 -0.00000000000E+00 -0.00000000000E+00 -0.74505805969E-08  0.93827000000E+00  0.93827000000E+00 0. -1.
     999902    2    1    2    0    0  0.15229597706E-01  0.35710071186E-02  0.18480041444E-01  0.10197183361E+01  0.10194308610E+01 0.  0.
     999903    2    3    3    0    0 -0.10917734455E+00  0.35272098160E-01  0.56864140410E-01  0.12957487263E+00  0.19806657501E-01 0.  0.
         14    1    1    2    0    0 -0.15229597706E-01 -0.35710071186E-02 -0.18480041444E-01  0.24211663923E-01  0.00000000000E+00 0.  1.
     999901    1    3    3    0    0  0.12440694226E+00 -0.31701091041E-01 -0.38384098967E-01  0.89014346344E+00  0.88000000000E+00 0.  1.
        -11    1    4    4    0    0 -0.27883876079E-01  0.16369616094E-01  0.22057786943E-01  0.39144373313E-01  0.51100000000E-03 0. -1.
         11    1    4    4    0    0 -0.81293468475E-01  0.18902482066E-01  0.34806353468E-01  0.90430499322E-01  0.51100000000E-03 0.  1.
</event>
<event>
 8    1  0.9956970E+004  0.1043930E+01  0.7957747E-01            NaN
         13   -1    0    0    0    0  0.00000000000E+00  0.00000000000E+00  0.74505805969E-08  0.10566000000E+00  0.10566000000E+00 0.  1.
     999900   -1    0    0    0    0 -0.00000000000E+00 -0.00000000000E+00 -0.74505805969E-08  0.93827000000E+00  0.93827000000E+00 0. -1.
     999902    2    1    2    0    0  0.35947999872E-02  0.14986321688E-01  0.18213883644E-01  0.10200708721E+01  0.10197918053E+01 0.  0.
     999903    2    3    3    0    0  0.99126139099E-01  0.48316293792E-02  0.85336140461E-01  0.13230133454E+00  0.19288601780E-01 0.  0.
         14    1    1    2    0    0 -0.35947999872E-02 -0.14986321688E-01 -0.18213883644E-01  0.23859127856E-01  0.00000000000E+00 0. -1.
     999901    1    3    3    0    0 -0.95531339111E-01  0.10154692309E-01 -0.67122256817E-01  0.88776953760E+00  0.88000000000E+00 0.  1.
        -11    1    4    4    0    0  0.79656717790E-01  0.31711033408E-03  0.58478396104E-01  0.98819417019E-01  0.51100000000E-03 0. -1.
         11    1    4    4    0    0  0.19469421308E-01  0.45145190451E-02  0.26857744357E-01  0.33481917526E-01  0.51100000000E-03 0.  1.
</event>
<event>
 8    1  0.9956970E+004  0.1043930E+01  0.7957747E-01            NaN
         13   -1    0    0    0    0  0.00000000000E+00  0.00000000000E+00  0.74505805969E-08  0.10566000000E+00  0.10566000000E+00 0. -1.
     999900   -1    0    0    0    0 -0.00000000000E+00 -0.00000000000E+00 -0.74505805969E-08  0.93827000000E+00  0.93827000000E+00 0. -1.
     999902    2    1    2    0    0  0.10239516960E-01  0.22370382802E-01 -0.37703207334E-02  0.10190403023E+01  0.10187362959E+01 0.  0.
     999903    2    3    3    0    0  0.67544980921E-01  0.37549087808E-01 -0.10426010626E+00  0.13133961720E+00  0.20190761450E-01 0.  0.
         14    1    1    2    0    0 -0.10239516960E-01 -0.22370382802E-01  0.37703207334E-02  0.24889697723E-01  0.00000000000E+00 0. -1.
     999901    1    3    3    0    0 -0.57305463961E-01 -0.15178705006E-01  0.10048978552E+00  0.88770068507E+00  0.88000000000E+00 0.  1.
        -11    1    4    4    0    0  0.31300393681E-01  0.23192458063E-01 -0.66449661586E-01  0.77028718031E-01  0.51100000000E-03 0.  1.
         11    1    4    4    0    0  0.36244587240E-01  0.14356629745E-01 -0.37810444670E-01  0.54310899173E-01  0.51100000000E-03 0. -1.
</event>
<event>
 8    1  0.9956970E+004  0.1043930E+01  0.7957747E-01            NaN
         13   -1    0    0    0    0  0.00000000000E+00  0.00000000000E+00  0.74505805969E-08  0.10566000000E+00  0.10566000000E+00 0. -1.
     999900   -1    0    0    0    0 -0.00000000000E+00 -0.00000000000E+00 -0.74505805969E-08  0.93827000000E+00  0.93827000000E+00 0. -1.
     999902    2    1    2    0    0  0.83828167298E-02  0.15789916043E-01 -0.16222258322E-01  0.10197896866E+01  0.10195039236E+01 0.  0.
     999903    2    3    3    0    0 -0.58806807959E-01 -0.41267106638E-01  0.10312043769E+00  0.12737015042E+00  0.20690959248E-01 0.  0.
         14    1    1    2    0    0 -0.83828167298E-02 -0.15789916043E-01  0.16222258322E-01  0.24140313379E-01  0.00000000000E+00 0. -1.
     999901    1    3    3    0    0  0.67189624689E-01  0.57057022680E-01 -0.11934269602E+00  0.89241953620E+00  0.88000000000E+00 0.  1.
        -11    1    4    4    0    0 -0.17882106070E-01 -0.19542995129E-01  0.52095755764E-01  0.58445934552E-01  0.51100000000E-03 0. -1.
         11    1    4    4    0    0 -0.40924701889E-01 -0.21724111509E-01  0.51024681931E-01  0.68924215866E-01  0.51100000000E-03 0.  1.
</event>
<event>
 8    1  0.9956970E+004  0.1043930E+01  0.7957747E-01            NaN
         13   -1    0    0    0    0  0.00000000000E+00  0.00000000000E+00  0.74505805969E-08  0.10566000000E+00  0.10566000000E+00 0.  1.
     999900   -1    0    0    0    0 -0.00000000000E+00 -0.00000000000E+00 -0.74505805969E-08  0.93827000000E+00  0.93827000000E+00 0. -1.
     999902    2    1    2    0    0  0.12044160255E-01 -0.44350411299E-02 -0.14428323771E-01  0.10246191763E+01  0.10244371862E+01 0.  0.
     999903    2    3    3    0    0  0.72417037915E-01  0.55223611351E-01 -0.99714280227E-01  0.13643128312E+00  0.19408315303E-01 0.  0.
         14    1    1    2    0    0 -0.12044160255E-01  0.44350411299E-02  0.14428323771E-01  0.19310823724E-01  0.00000000000E+00 0.  1.
     999901    1    3    3    0    0 -0.60372877660E-01 -0.59658652480E-01  0.85285956456E-01  0.88818789315E+00  0.88000000000E+00 0.  1.
        -11    1    4    4    0    0  0.11208644864E-01  0.88689549992E-02 -0.66255339904E-02  0.15762325467E-01  0.51100000000E-03 0.  1.
         11    1    4    4    0    0  0.61208393050E-01  0.46354656351E-01 -0.93088746237E-01  0.12066895766E+00  0.51100000000E-03 0. -1.
</event>
<event>
 8    1  0.9956970E+004  0.1043930E+01  0.7957747E-01            NaN
         13   -1    0    0    0    0  0.00000000000E+00  0.00000000000E+00  0.74505805969E-08  0.10566000000E+00  0.10566000000E+00 0.  1.
     999900   -1    0    0    0    0 -0.00000000000E+00 -0.00000000000E+00 -0.74505805969E-08  0.93827000000E+00  0.93827000000E+00 0. -1.
     999902    2    1    2    0    0  0.13478285366E-02  0.20478006207E-02 -0.23219892756E-01  0.10205810482E+01  0.10203139235E+01 0.  0.
     999903    2    3    3    0    0  0.21207500887E-01 -0.26166947985E-01  0.12188943305E+00  0.12803010007E+00  0.20005133666E-01 0.  0.
         14    1    1    2    0    0 -0.13478285366E-02 -0.20478006207E-02  0.23219892756E-01  0.23348951770E-01  0.00000000000E+00 0.  1.
     999901    1    3    3    0    0 -0.19859672351E-01  0.28214748606E-01 -0.14510932581E+00  0.89255094816E+00  0.88000000000E+00 0. -1.
        -11    1    4    4    0    0  0.78759034282E-02  0.51475439024E-03  0.42313858116E-01  0.43046701808E-01  0.51100000000E-03 0. -1.
         11    1    4    4    0    0  0.13331597459E-01 -0.26681702375E-01  0.79575574938E-01  0.84983398262E-01  0.51100000000E-03 0.  1.
</event>
<event>
 8    1  0.9956970E+004  0.1043930E+01  0.7957747E-01            NaN
         13   -1    0    0    0    0  0.00000000000E+00  0.00000000000E+00  0.74505805969E-08  0.10566000000E+00  0.10566000000E+00 0.  1.
     999900   -1    0    0    0    0 -0.00000000000E+00 -0.00000000000E+00 -0.74505805969E-08  0.93827000000E+00  0.93827000000E+00 0.  1.
     999902    2    1    2    0    0  0.15982955138E-01 -0.19627527245E-01 -0.79570561398E-02  0.10173968241E+01  0.10170507796E+01 0.  0.
     999903    2    3    3    0    0 -0.13229839600E-01 -0.88966416661E-02  0.12427519528E+00  0.12697338124E+00  0.20584860810E-01 0.  0.
         14    1    1    2    0    0 -0.15982955138E-01  0.19627527245E-01  0.79570561398E-02  0.26533175895E-01  0.00000000000E+00 0.  1.
     999901    1    3    3    0    0  0.29212794738E-01 -0.10730885578E-01 -0.13223225142E+00  0.89042344286E+00  0.88000000000E+00 0.  1.
        -11    1    4    4    0    0 -0.18413356866E-01 -0.55165336598E-02  0.10421755040E+00  0.10597661434E+00  0.51100000000E-03 0. -1.
         11    1    4    4    0    0  0.51835172660E-02 -0.33801080064E-02  0.20057644880E-01  0.20996766906E-01  0.51100000000E-03 0.  1.
</event>
<event>
 8    1  0.1155976E+005  0.1043930E+01  0.7957747E-01            NaN
         13   -1    0    0    0    0  0.00000000000E+00  0.00000000000E+00  0.74505805969E-08  0.10566000000E+00  0.10566000000E+00 0.  1.
     999900   -1    0    0    0    0 -0.00000000000E+00 -0.00000000000E+00 -0.74505805969E-08  0.93827000000E+00  0.93827000000E+00 0.  1.
     999902    2    1    2    0    0 -0.25497333991E-03  0.23343080644E-01 -0.53565381132E-02  0.10199788638E+01  0.10196976148E+01 0.  0.
     999903    2    3    3    0    0  0.11492698635E-01 -0.11960520007E+00  0.37190865565E-01  0.12735212191E+00  0.19947843664E-01 0.  0.
         14    1    1    2    0    0  0.25497333991E-03 -0.23343080644E-01  0.53565381132E-02  0.23951136213E-01  0.00000000000E+00 0.  1.
     999901    1    3    3    0    0 -0.11747671975E-01  0.14294828072E+00 -0.42547403678E-01  0.89262674188E+00  0.88000000000E+00 0.  1.
        -11    1    4    4    0    0  0.12470477069E-01 -0.35790711860E-01  0.95277349780E-02  0.39083586178E-01  0.51100000000E-03 0.  1.
         11    1    4    4    0    0 -0.97777843454E-03 -0.83814488213E-01  0.27663130587E-01  0.88268535730E-01  0.51100000000E-03 0. -1.
</event>
<event>
 8    1  0.9956970E+004  0.1043930E+01  0.7957747E-01            NaN
         13   -1    0    0    0    0  0.00000000000E+00  0.00000000000E+00  0.74505805969E-08  0.10566000000E+00  0.10566000000E+00 0. -1.
     999900   -1    0    0    0    0 -0.00000000000E+00 -0.00000000000E+00 -0.74505805969E-08  0.93827000000E+00  0.93827000000E+00 0.  1.
     999902    2    1    2    0    0 -0.17034608479E-01 -0.14517169087E-01  0.10916685201E-01  0.10190281908E+01  0.10187238849E+01 0.  0.
     999903    2    3    3    0    0  0.94889299500E-01 -0.39025683652E-01 -0.73165203926E-01  0.12762626546E+00  0.20207261720E-01 0.  0.
         14    1    1    2    0    0  0.17034608479E-01  0.14517169087E-01 -0.10916685201E-01  0.24901809174E-01  0.00000000000E+00 0.  1.
     999901    1    3    3    0    0 -0.11192390798E+00  0.24508514565E-01  0.84081889127E-01  0.89140192536E+00  0.88000000000E+00 0. -1.
        -11    1    4    4    0    0  0.83175827390E-01 -0.40520905686E-01 -0.67442615330E-01  0.11449423367E+00  0.51100000000E-03 0.  1.
         11    1    4    4    0    0  0.11713472111E-01  0.14952220347E-02 -0.57225885962E-02  0.13132031795E-01  0.51100000000E-03 0. -1.
</event>
<event>
 8    1  0.9956970E+004  0.1043930E+01  0.7957747E-01            NaN
         13   -1    0    0    0    0  0.00000000000E+00  0.00000000000E+00  0.74505805969E-08  0.10566000000E+00  0.10566000000E+00 0.  1.
     999900   -1    0    0    0    0 -0.00000000000E+00 -0.00000000000E+00 -0.74505805969E-08  0.93827000000E+00  0.93827000000E+00 0. -1.
     999902    2    1    2    0    0 -0.78752383857E-02 -0.68496603392E-03  0.23162357605E-01  0.10194558633E+01  0.10191620449E+01 0.  0.
     999903    2    3    3    0    0  0.76067970355E-01 -0.91435562974E-01  0.45113189210E-01  0.13054418480E+00  0.29322108627E-01 0.  0.
         14    1    1    2    0    0  0.78752383857E-02  0.68496603392E-03 -0.23162357605E-01  0.24474136714E-01  0.00000000000E+00 0. -1.
     999901    1    3    3    0    0 -0.83943208741E-01  0.90750596940E-01 -0.21950831605E-01  0.88891167848E+00  0.88000000000E+00 0. -1.
        -11    1    4    4    0    0  0.51693089730E-01 -0.77568463629E-01  0.42269373841E-01  0.10235234810E+00  0.51100000000E-03 0. -1.
         11    1    4    4    0    0  0.24374880625E-01 -0.13867099345E-01  0.28438153685E-02  0.28191836701E-01  0.51100000000E-03 0.  1.
</event>
<event>
 8    1  0.9956970E+004  0.1043930E+01  0.7957747E-01            NaN
         13   -1    0    0    0    0  0.00000000000E+00  0.00000000000E+00  0.74505805969E-08  0.10566000000E+00  0.10566000000E+00 0. -1.
     999900   -1    0    0    0    0 -0.00000000000E+00 -0.00000000000E+00 -0.74505805969E-08  0.93827000000E+00  0.93827000000E+00 0.  1.
     999902    2    1    2    0    0 -0.12727205806E-01 -0.19301988552E-01 -0.28157726881E-02  0.10206388621E+01  0.10203730738E+01 0.  0.
     999903    2    3    3    0    0 -0.80153259921E-01 -0.87485324153E-01  0.57385924765E-01  0.13338496133E+00  0.20498207949E-01 0.  0.
         14    1    1    2    0    0  0.12727205806E-01  0.19301988552E-01  0.28157726881E-02  0.23291137918E-01  0.00000000000E+00 0. -1.
     999901    1    3    3    0    0  0.67426054115E-01  0.68183335602E-01 -0.60201697453E-01  0.88725390075E+00  0.88000000000E+00 0. -1.
        -11    1    4    4    0    0 -0.26647824498E-01 -0.28620977837E-01  0.29869730404E-01  0.49211064185E-01  0.51100000000E-03 0. -1.
         11    1    4    4    0    0 -0.53505435423E-01 -0.58864346317E-01  0.27516194361E-01  0.84173897143E-01  0.51100000000E-03 0.  1.
</event>
<event>
 8    1  0.9956970E+004  0.1043930E+01  0.7957747E-01            NaN
         13   -1    0    0    0    0  0.00000000000E+00  0.00000000000E+00  0.74505805969E-08  0.10566000000E+00  0.10566000000E+00 0. -1.
     999900   -1    0    0    0    0 -0.00000000000E+00 -0.00000000000E+00 -0.74505805969E-08  0.93827000000E+00  0.93827000000E+00 0.  1.
     999902    2    1    2    0    0  0.15531927127E-01  0.11079539524E-01 -0.14523021514E-01  0.10199526125E+01  0.10196707393E+01 0.  0.
     999903    2    3    3    0    0  0.10377851323E+00  0.67466223904E-01  0.40876519637E-01  0.13201341005E+00  0.20856159738E-01 0.  0.
         14    1    1    2    0    0 -0.15531927127E-01 -0.11079539524E-01  0.14523021514E-01  0.23977387478E-01  0.00000000000E+00 0. -1.
     999901    1    3    3    0    0 -0.88246586100E-01 -0.56386684379E-01 -0.55399541151E-01  0.88793920248E+00  0.88000000000E+00 0. -1.
        -11    1    4    4    0    0  0.76307808263E-01  0.45090327841E-01  0.19921794495E-01  0.90846894739E-01  0.51100000000E-03 0. -1.
         11    1    4    4    0    0  0.27470704964E-01  0.22375896062E-01  0.20954725142E-01  0.41166515308E-01  0.51100000000E-03 0.  1.
</event>
<event>
 8    1  0.9956970E+004  0.1043930E+01  0.7957747E-01            NaN
         13   -1    0    0    0    0  0.00000000000E+00  0.00000000000E+00  0.74505805969E-08  0.10566000000E+00  0.10566000000E+00 0.  1.
     999900   -1    0    0    0    0 -0.00000000000E+00 -0.00000000000E+00 -0.74505805969E-08  0.93827000000E+00  0.93827000000E+00 0.  1.
     999902    2    1    2    0    0 -0.16253480092E-01 -0.16888082402E-01 -0.22856106349E-03  0.10204899662E+01  0.10202207291E+01 0.  0.
     999903    2    3    3    0    0  0.74687686580E-01 -0.38669648029E-01  0.97291433382E-01  0.13017828952E+00  0.20178499626E-01 0.  0.
         14    1    1    2    0    0  0.16253480092E-01  0.16888082402E-01  0.22856106349E-03  0.23440033756E-01  0.00000000000E+00 0.  1.
     999901    1    3    3    0    0 -0.90941166672E-01  0.21781565626E-01 -0.97519994445E-01  0.89031167673E+00  0.88000000000E+00 0.  1.
        -11    1    4    4    0    0  0.38727362831E-01 -0.10033284197E-01  0.38270759637E-01  0.55365942490E-01  0.51100000000E-03 0. -1.
         11    1    4    4    0    0  0.35960323749E-01 -0.28636363832E-01  0.59020673744E-01  0.74812347028E-01  0.51100000000E-03 0.  1.
</event>
<event>
 8    1  0.9956970E+004  0.1043930E+01  0.7957747E-01            NaN
         13   -1    0    0    0    0  0.00000000000E+00  0.00000000000E+00  0.74505805969E-08  0.10566000000E+00  0.10566000000E+00 0. -1.
     999900   -1    0    0    0    0 -0.00000000000E+00 -0.00000000000E+00 -0.74505805969E-08  0.93827000000E+00  0.93827000000E+00 0. -1.
     999902    2    1    2    0    0 -0.79431284757E-02  0.52090851479E-03  0.21997496521E-01  0.10205365289E+01  0.10202683727E+01 0.  0.
     999903    2    3    3    0    0 -0.68606671412E-02 -0.61001715279E-01  0.11673344681E+00  0.13331552758E+00  0.19443617656E-01 0.  0.
         14    1    1    2    0    0  0.79431284757E-02 -0.52090851479E-03 -0.21997496521E-01  0.23393471073E-01  0.00000000000E+00 0.  1.
     999901    1    3    3    0    0 -0.10824613344E-02  0.61522623794E-01 -0.94735950292E-01  0.88722100135E+00  0.88000000000E+00 0. -1.
        -11    1    4    4    0    0 -0.11547262230E-01 -0.57135572346E-01  0.10536151297E+00  0.12041230182E+00  0.51100000000E-03 0. -1.
         11    1    4    4    0    0  0.46865950884E-02 -0.38661429337E-02  0.11371933838E-01  0.12903225757E-01  0.51100000000E-03 0.  1.
</event>
<event>
 8    1  0.9956970E+004  0.1043930E+01  0.7957747E-01            NaN
         13   -1    0    0    0    0  0.00000000000E+00  0.00000000000E+00  0.74505805969E-08  0.10566000000E+00  0.10566000000E+00 0. -1.
     999900   -1    0    0    0    0 -0.00000000000E+00 -0.00000000000E+00 -0.74505805969E-08  0.93827000000E+00  0.93827000000E+00 0.  1.
     999902    2    1    2    0    0 -0.19580019617E-01 -0.26264458955E-01 -0.61461988223E-02  0.10105987124E+01  0.10100489012E+01 0.  0.
     999903    2    3    3    0    0 -0.23247028417E-01 -0.45694716106E-01  0.10988277350E+00  0.12276218226E+00  0.19180669206E-01 0.  0.
         14    1    1    2    0    0  0.19580019617E-01  0.26264458955E-01  0.61461988223E-02  0.33331287590E-01  0.00000000000E+00 0.  1.
     999901    1    3    3    0    0  0.36670088001E-02  0.19430257150E-01 -0.11602897232E+00  0.88783653015E+00  0.88000000000E+00 0.  1.
        -11    1    4    4    0    0 -0.10384326451E-01 -0.19614909647E-01  0.69759324722E-01  0.73206580462E-01  0.51100000000E-03 0. -1.
         11    1    4    4    0    0 -0.12862701967E-01 -0.26079806459E-01  0.40123448780E-01  0.49555601800E-01  0.51100000000E-03 0.  1.
</event>
<event>
 8    1  0.9956970E+004  0.1043930E+01  0.7957747E-01            NaN
         13   -1    0    0    0    0  0.00000000000E+00  0.00000000000E+00  0.74505805969E-08  0.10566000000E+00  0.10566000000E+00 0. -1.
     999900   -1    0    0    0    0 -0.00000000000E+00 -0.00000000000E+00 -0.74505805969E-08  0.93827000000E+00  0.93827000000E+00 0.  1.
     999902    2    1    2    0    0  0.58331013216E-02  0.19008636962E-01  0.12224817074E-01  0.10205890595E+01  0.10203221202E+01 0.  0.
     999903    2    3    3    0    0  0.12701663750E+00  0.10076266811E-01  0.28026226094E-01  0.13209881128E+00  0.20733288186E-01 0.  0.
         14    1    1    2    0    0 -0.58331013216E-02 -0.19008636962E-01 -0.12224817074E-01  0.23340940484E-01  0.00000000000E+00 0.  1.
     999901    1    3    3    0    0 -0.12118353618E+00  0.89323701513E-02 -0.15801409020E-01  0.88849024823E+00  0.88000000000E+00 0.  1.
        -11    1    4    4    0    0  0.76798698807E-01 -0.38351574614E-02  0.14367385805E-01  0.78226795071E-01  0.51100000000E-03 0.  1.
         11    1    4    4    0    0  0.50217938692E-01  0.13911424272E-01  0.13658840289E-01  0.53872016212E-01  0.51100000000E-03 0. -1.
</event>
<event>
 8    1  0.1333470E+005  0.1043930E+01  0.7957747E-01            NaN
         13   -1    0    0    0    0  0.00000000000E+00  0.00000000000E+00  0.74505805969E-08  0.10566000000E+00  0.10566000000E+00 0.  1.
     999900   -1    0    0    0    0 -0.00000000000E+00 -0.00000000000E+00 -0.74505805969E-08  0.93827000000E+00  0.93827000000E+00 0.  1.
     999902    2    1    2    0    0  0.29463999122E-01 -0.85250887429E-02 -0.11885428658E-01  0.10110352011E+01  0.10104999307E+01 0.  0.
     999903    2    3    3    0    0 -0.69466630045E-01  0.27045705481E-01  0.90407770790E-01  0.11889370476E+00  0.20126230072E-01 0.  0.
         14    1    1    2    0    0 -0.29463999122E-01  0.85250887429E-02  0.11885428658E-01  0.32894798931E-01  0.00000000000E+00 0. -1.
     999901    1    3    3    0    0  0.98930629166E-01 -0.35570794224E-01 -0.10229319945E+00  0.89214149631E+00  0.88000000000E+00 0.  1.
        -11    1    4    4    0    0 -0.25280494330E-01  0.73114518258E-03  0.36278862175E-01  0.44227309759E-01  0.51100000000E-03 0. -1.
         11    1    4    4    0    0 -0.44186135715E-01  0.26314560298E-01  0.54128908615E-01  0.74666394998E-01  0.51100000000E-03 0.  1.
</event>
<event>
 8    1  0.9956970E+004  0.1043930E+01  0.7957747E-01            NaN
         13   -1    0    0    0    0  0.00000000000E+00  0.00000000000E+00  0.74505805969E-08  0.10566000000E+00  0.10566000000E+00 0.  1.
     999900   -1    0    0    0    0 -0.00000000000E+00 -0.00000000000E+00 -0.74505805969E-08  0.93827000000E+00  0.93827000000E+00 0. -1.
     999902    2    1    2    0    0  0.22220000620E-01 -0.49171480830E-02  0.72024002265E-02  0.10200599070E+01  0.10197805805E+01 0.  0.
     999903    2    3    3    0    0  0.11656589141E+00 -0.54128433711E-01  0.29396514512E-01  0.13337198189E+00  0.20160260711E-01 0.  0.
         14    1    1    2    0    0 -0.22220000620E-01  0.49171480830E-02 -0.72024002265E-02  0.23870093043E-01  0.00000000000E+00 0. -1.
     999901    1    3    3    0    0 -0.94345890794E-01  0.49211285628E-01 -0.22194114286E-01  0.88668792506E+00  0.88000000000E+00 0. -1.
        -11    1    4    4    0    0  0.32897057762E-01 -0.22394813357E-01  0.15970686629E-01  0.42884356438E-01  0.51100000000E-03 0.  1.
         11    1    4    4    0    0  0.83668833652E-01 -0.31733620354E-01  0.13425827883E-01  0.90487625457E-01  0.51100000000E-03 0. -1.
</event>
<event>
 8    1  0.9956970E+004  0.1043930E+01  0.7957747E-01            NaN
         13   -1    0    0    0    0  0.00000000000E+00  0.00000000000E+00  0.74505805969E-08  0.10566000000E+00  0.10566000000E+00 0. -1.
     999900   -1    0    0    0    0 -0.00000000000E+00 -0.00000000000E+00 -0.74505805969E-08  0.93827000000E+00  0.93827000000E+00 0.  1.
     999902    2    1    2    0    0  0.14866565853E-01  0.11390759458E-01  0.97602844944E-02  0.10228106408E+01  0.10225925775E+01 0.  0.
     999903    2    3    3    0    0  0.24835648916E-01 -0.34786874835E-01 -0.12286428938E+00  0.13161984518E+00  0.20030325107E-01 0.  0.
         14    1    1    2    0    0 -0.14866565853E-01 -0.11390759458E-01 -0.97602844944E-02  0.21119359240E-01  0.00000000000E+00 0.  1.
     999901    1    3    3    0    0 -0.99690830637E-02  0.46177634293E-01  0.13262457387E+00  0.89119079558E+00  0.88000000000E+00 0. -1.
        -11    1    4    4    0    0  0.21764453774E-01 -0.29628510615E-01 -0.76621677652E-01  0.84986367710E-01  0.51100000000E-03 0.  1.
         11    1    4    4    0    0  0.30711951426E-02 -0.51583642202E-02 -0.46242611726E-01  0.46633477474E-01  0.51100000000E-03 0. -1.
</event>
<event>
 8    1  0.9956970E+004  0.1043930E+01  0.7957747E-01            NaN
         13   -1    0    0    0    0  0.00000000000E+00  0.00000000000E+00  0.74505805969E-08  0.10566000000E+00  0.10566000000E+00 0.  1.
     999900   -1    0    0    0    0 -0.00000000000E+00 -0.00000000000E+00 -0.74505805969E-08  0.93827000000E+00  0.93827000000E+00 0. -1.
     999902    2    1    2    0    0  0.75467561177E-02  0.22211639557E-01 -0.13074370171E-02  0.10204348973E+01  0.10201643788E+01 0.  0.
     999903    2    3    3    0    0  0.86432441358E-01 -0.90476196918E-01 -0.26112686342E-01  0.12940358459E+00  0.20171915833E-01 0.  0.
         14    1    1    2    0    0 -0.75467561177E-02 -0.22211639557E-01  0.13074370171E-02  0.23495102708E-01  0.00000000000E+00 0.  1.
     999901    1    3    3    0    0 -0.78885685240E-01  0.11268783647E+00  0.24805249325E-01  0.89103131270E+00  0.88000000000E+00 0. -1.
        -11    1    4    4    0    0  0.32909933307E-01 -0.25181374569E-01 -0.15379872930E-02  0.41470373297E-01  0.51100000000E-03 0.  1.
         11    1    4    4    0    0  0.53522508051E-01 -0.65294822348E-01 -0.24574699049E-01  0.87933211291E-01  0.51100000000E-03 0. -1.
</event>
<event>
 8    1  0.9956970E+004  0.1043930E+01  0.7957747E-01            NaN
         13   -1    0    0    0    0  0.00000000000E+00  0.00000000000E+00  0.74505805969E-08  0.10566000000E+00  0.10566000000E+00 0. -1.
     999900   -1    0    0    0    0 -0.00000000000E+00 -0.00000000000E+00 -0.74505805969E-08  0.93827000000E+00  0.93827000000E+00 0. -1.
     999902    2    1    2    0    0 -0.20244879469E-01 -0.74382964947E-02  0.10576281960E-01  0.10199083194E+01  0.10196253914E+01 0.  0.
     999903    2    3    3    0    0  0.39700340353E-01 -0.62936215712E-01 -0.10313263141E+00  0.12883976681E+00  0.20646103206E-01 0.  0.
         14    1    1    2    0    0  0.20244879469E-01  0.74382964947E-02 -0.10576281960E-01  0.24021680615E-01  0.00000000000E+00 0.  1.
     999901    1    3    3    0    0 -0.59945219822E-01  0.55497919217E-01  0.11370891337E+00  0.89106855258E+00  0.88000000000E+00 0.  1.
        -11    1    4    4    0    0  0.28134607506E-01 -0.25663940995E-01 -0.47515094639E-01  0.60894493565E-01  0.51100000000E-03 0.  1.
         11    1    4    4    0    0  0.11565732848E-01 -0.37272274717E-01 -0.55617536767E-01  0.67945273242E-01  0.51100000000E-03 0. -1.
</event>
<event>
 8    1  0.9956970E+004  0.1043930E+01  0.7957747E-01            NaN
         13   -1    0    0    0    0  0.00000000000E+00  0.00000000000E+00  0.74505805969E-08  0.10566000000E+00  0.10566000000E+00 0.  1.
     999900   -1    0    0    0    0 -0.00000000000E+00 -0.00000000000E+00 -0.74505805969E-08  0.93827000000E+00  0.93827000000E+00 0. -1.
     999902    2    1    2    0    0 -0.17770671602E-02 -0.81343054429E-02 -0.22378657607E-01  0.10200526214E+01  0.10197731224E+01 0.  0.
     999903    2    3    3    0    0 -0.46957942982E-01  0.25590816280E-01  0.11443001554E+00  0.12769881913E+00  0.18783547684E-01 0.  0.
         14    1    1    2    0    0  0.17770671602E-02  0.81343054429E-02  0.22378657607E-01  0.23877378604E-01  0.00000000000E+00 0. -1.
     999901    1    3    3    0    0  0.45180875821E-01 -0.33725121723E-01 -0.13680867314E+00  0.89235380227E+00  0.88000000000E+00 0. -1.
        -11    1    4    4    0    0 -0.39462043036E-01  0.24198810844E-01  0.10870179356E+00  0.11814895823E+00  0.51100000000E-03 0. -1.
         11    1    4    4    0    0 -0.74958999454E-02  0.13920054361E-02  0.57282219793E-02  0.95498608979E-02  0.51100000000E-03 0.  1.
</event>
<event>
 8    1  0.9956970E+004  0.1043930E+01  0.7957747E-01            NaN
         13   -1    0    0    0    0  0.00000000000E+00  0.00000000000E+00  0.74505805969E-08  0.10566000000E+00  0.10566000000E+00 0. -1.
     999900   -1    0    0    0    0 -0.00000000000E+00 -0.00000000000E+00 -0.74505805969E-08  0.93827000000E+00  0.93827000000E+00 0.  1.
     999902    2    1    2    0    0 -0.56072592417E-02  0.15022819370E-01  0.16542695347E-01  0.10208911800E+01  0.10206311842E+01 0.  0.
     999903    2    3    3    0    0  0.35862343513E-01 -0.11388506043E+00  0.47595744189E-01  0.12999204919E+00  0.19407815853E-01 0.  0.
         14    1    1    2    0    0  0.56072592417E-02 -0.15022819370E-01 -0.16542695347E-01  0.23038820008E-01  0.00000000000E+00 0.  1.
     999901    1    3    3    0    0 -0.41469602755E-01  0.12890787980E+00 -0.31053048842E-01  0.89089913080E+00  0.88000000000E+00 0.  1.
        -11    1    4    4    0    0  0.24959342819E-01 -0.69961945683E-01  0.19788746820E-01  0.76873261017E-01  0.51100000000E-03 0. -1.
         11    1    4    4    0    0  0.10903000694E-01 -0.43923114744E-01  0.27806997369E-01  0.53118788170E-01  0.51100000000E-03 0.  1.
</event>
<event>
 8    1  0.9956970E+004  0.1043930E+01  0.7957747E-01            NaN
         13   -1    0    0    0    0  0.00000000000E+00  0.00000000000E+00  0.74505805969E-08  0.10566000000E+00  0.10566000000E+00 0. -1.
     999900   -1    0    0    0    0 -0.00000000000E+00 -0.00000000000E+00 -0.74505805969E-08  0.93827000000E+00  0.93827000000E+00 0. -1.
     999902    2    1    2    0    0 -0.12869491830E-01 -0.12493334925E-03  0.20830841362E-01  0.10194440167E+01  0.10191499103E+01 0.  0.
     999903    2    3    3    0    0  0.72062957805E-01 -0.66960544108E-01 -0.78332452956E-01  0.12730396106E+00  0.19837866833E-01 0.  0.
         14    1    1    2    0    0  0.12869491830E-01  0.12493334925E-03 -0.20830841362E-01  0.24485983340E-01  0.00000000000E+00 0.  1.
     999901    1    3    3    0    0 -0.84932449635E-01  0.66835610759E-01  0.99163294318E-01  0.89214005560E+00  0.88000000000E+00 0.  1.
        -11    1    4    4    0    0  0.41051221491E-01 -0.37095926956E-01 -0.31429713352E-01  0.63634884969E-01  0.51100000000E-03 0. -1.
         11    1    4    4    0    0  0.31011736314E-01 -0.29864617152E-01 -0.46902739605E-01  0.63669076091E-01  0.51100000000E-03 0.  1.
</event>
<event>
 8    1  0.9956970E+004  0.1043930E+01  0.7957747E-01            NaN
         13   -1    0    0    0    0  0.00000000000E+00  0.00000000000E+00  0.74505805969E-08  0.10566000000E+00  0.10566000000E+00 0. -1.
     999900   -1    0    0    0    0 -0.00000000000E+00 -0.00000000000E+00 -0.74505805969E-08  0.93827000000E+00  0.93827000000E+00 0.  1.
     999902    2    1    2    0    0  0.96282734188E-02 -0.65459803601E-02 -0.19933055684E-01  0.10208458016E+01  0.10205847688E+01 0.  0.
     999903    2    3    3    0    0  0.86801887175E-02 -0.11575296662E+00 -0.61991145729E-01  0.13309811915E+00  0.19952749589E-01 0.  0.
         14    1    1    2    0    0 -0.96282734188E-02  0.65459803601E-02  0.19933055684E-01  0.23084198423E-01  0.00000000000E+00 0. -1.
     999901    1    3    3    0    0  0.94808470127E-03  0.10920698626E+00  0.42058090044E-01  0.88774768242E+00  0.88000000000E+00 0. -1.
        -11    1    4    4    0    0  0.64615998326E-02 -0.23310696870E-01 -0.20641817348E-01  0.31803877207E-01  0.51100000000E-03 0.  1.
         11    1    4    4    0    0  0.22185888849E-02 -0.92442269748E-01 -0.41349328380E-01  0.10129424195E+00  0.51100000000E-03 0. -1.
</event>
<event>
 8    1  0.9956970E+004  0.1043930E+01  0.7957747E-01            NaN
         13   -1    0    0    0    0  0.00000000000E+00  0.00000000000E+00  0.74505805969E-08  0.10566000000E+00  0.10566000000E+00 0. -1.
     999900   -1    0    0    0    0 -0.00000000000E+00 -0.00000000000E+00 -0.74505805969E-08  0.93827000000E+00  0.93827000000E+00 0. -1.
     999902    2    1    2    0    0  0.16998348518E-01  0.16751459279E-01  0.34769584053E-02  0.10198126933E+01  0.10195274813E+01 0.  0.
     999903    2    3    3    0    0 -0.63159255621E-02  0.12583508871E+00 -0.33827105935E-01  0.13198704222E+00  0.20048584769E-01 0.  0.
         14    1    1    2    0    0 -0.16998348518E-01 -0.16751459279E-01 -0.34769584053E-02  0.24117306651E-01  0.00000000000E+00 0. -1.
     999901    1    3    3    0    0  0.23314274080E-01 -0.10908362943E+00  0.37304064341E-01  0.88782565113E+00  0.88000000000E+00 0.  1.
        -11    1    4    4    0    0 -0.10725904091E-01  0.64575809575E-01 -0.10565194821E-01  0.66309612149E-01  0.51100000000E-03 0.  1.
         11    1    4    4    0    0  0.44099785287E-02  0.61259279137E-01 -0.23261911114E-01  0.65677430071E-01  0.51100000000E-03 0. -1.
</event>
<event>
 8    1  0.9956970E+004  0.1043930E+01  0.7957747E-01            NaN
         13   -1    0    0    0    0  0.00000000000E+00  0.00000000000E+00  0.74505805969E-08  0.10566000000E+00  0.10566000000E+00 0.  1.
     999900   -1    0    0    0    0 -0.00000000000E+00 -0.00000000000E+00 -0.74505805969E-08  0.93827000000E+00  0.93827000000E+00 0. -1.
     999902    2    1    2    0    0 -0.41217012345E-02  0.58517973112E-02  0.21115611123E-01  0.10216342384E+01  0.10213909223E+01 0.  0.
     999903    2    3    3    0    0 -0.27487720938E-01  0.55329695332E-01 -0.11261870886E+00  0.12985012684E+00  0.19003469857E-01 0.  0.
         14    1    1    2    0    0  0.41217012345E-02 -0.58517973112E-02 -0.21115611123E-01  0.22295761614E-01  0.00000000000E+00 0. -1.
     999901    1    3    3    0    0  0.23366019703E-01 -0.49477898021E-01  0.13373431998E+00  0.89178411155E+00  0.88000000000E+00 0.  1.
        -11    1    4    4    0    0 -0.26217278152E-01  0.36113049581E-01 -0.69118713682E-01  0.82274879069E-01  0.51100000000E-03 0.  1.
         11    1    4    4    0    0 -0.12704427857E-02  0.19216645751E-01 -0.43499995178E-01  0.47575247769E-01  0.51100000000E-03 0. -1.
</event>
<event>
 8    1  0.9956970E+004  0.1043930E+01  0.7957747E-01            NaN
         13   -1    0    0    0    0  0.00000000000E+00  0.00000000000E+00  0.74505805969E-08  0.10566000000E+00  0.10566000000E+00 0.  1.
     999900   -1    0    0    0    0 -0.00000000000E+00 -0.00000000000E+00 -0.74505805969E-08  0.93827000000E+00  0.93827000000E+00 0.  1.
     999902    2    1    2    0    0  0.44629897636E-02  0.19957400513E-01 -0.15930685169E-01  0.10180069824E+01  0.10176768708E+01 0.  0.
     999903    2    3    3    0    0  0.16280902774E-01  0.30638489231E-01  0.12089749811E+00  0.12729058505E+00  0.19567911890E-01 0.  0.
         14    1    1    2    0    0 -0.44629897636E-02 -0.19957400513E-01  0.15930685169E-01  0.25923017626E-01  0.00000000000E+00 0.  1.
     999901    1    3    3    0    0 -0.11817913010E-01 -0.10681088718E-01 -0.13682818328E+00  0.89071639732E+00  0.88000000000E+00 0.  1.
        -11    1    4    4    0    0 -0.35462883752E-02  0.48264776665E-03  0.14223826271E-01  0.14676084795E-01  0.51100000000E-03 0.  1.
         11    1    4    4    0    0  0.19827191149E-01  0.30155841464E-01  0.10667367184E+00  0.11261450025E+00  0.51100000000E-03 0. -1.
</event>
<event>
 8    1  0.9956970E+004  0.1043930E+01  0.7957747E-01            NaN
         13   -1    0    0    0    0  0.00000000000E+00  0.00000000000E+00  0.74505805969E-08  0.10566000000E+00  0.10566000000E+00 0. -1.
     999900   -1    0    0    0    0 -0.00000000000E+00 -0.00000000000E+00 -0.74505805969E-08  0.93827000000E+00  0.93827000000E+00 0.  1.
     999902    2    1    2    0    0  0.14903139120E-01 -0.11595613411E-01 -0.13922759896E-01  0.10204692871E+01  0.10201995692E+01 0.  0.
     999903    2    3    3    0    0  0.65530614180E-01 -0.15435213611E-01 -0.11106038739E+00  0.13366964659E+00  0.31633171787E-01 0.  0.
         14    1    1    2    0    0 -0.14903139120E-01  0.11595613411E-01  0.13922759896E-01  0.23460712886E-01  0.00000000000E+00 0. -1.
     999901    1    3    3    0    0 -0.50627475060E-01  0.38396002005E-02  0.97137627496E-01  0.88679964053E+00  0.88000000000E+00 0. -1.
        -11    1    4    4    0    0  0.54897283442E-01 -0.17217528802E-01 -0.67037141838E-01  0.88342484311E-01  0.51100000000E-03 0.  1.
         11    1    4    4    0    0  0.10633330739E-01  0.17823151913E-02 -0.44023245554E-01  0.45327162278E-01  0.51100000000E-03 0. -1.
</event>
<event>
 8    1  0.9956970E+004  0.1043930E+01  0.7957747E-01            NaN
         13   -1    0    0    0    0  0.00000000000E+00  0.00000000000E+00  0.74505805969E-08  0.10566000000E+00  0.10566000000E+00 0.  1.
     999900   -1    0    0    0    0 -0.00000000000E+00 -0.00000000000E+00 -0.74505805969E-08  0.93827000000E+00  0.93827000000E+00 0.  1.
     999902    2    1    2    0    0  0.17389052397E-01 -0.68412148957E-02 -0.19178839575E-01  0.10171529716E+01  0.10168004516E+01 0.  0.
     999903    2    3    3    0    0  0.70199609368E-01 -0.10698048872E+00  0.55270855894E-02  0.12955666027E+00  0.19533802046E-01 0.  0.
         14    1    1    2    0    0 -0.17389052397E-01  0.68412148957E-02  0.19178839575E-01  0.26777028438E-01  0.00000000000E+00 0.  1.
     999901    1    3    3    0    0 -0.52810556971E-01  0.10013927382E+00 -0.24705925165E-01  0.88759631130E+00  0.88000000000E+00 0.  1.
        -11    1    4    4    0    0  0.24375629972E-01 -0.21765753654E-01  0.14509911657E-02  0.32715223750E-01  0.51100000000E-03 0. -1.
         11    1    4    4    0    0  0.45823979396E-01 -0.85214735063E-01  0.40760944237E-02  0.96841436515E-01  0.51100000000E-03 0.  1.
</event>
<event>
 8    1  0.9956970E+004  0.1043930E+01  0.7957747E-01            NaN
         13   -1    0    0    0    0  0.00000000000E+00  0.00000000000E+00  0.74505805969E-08  0.10566000000E+00  0.10566000000E+00 0. -1.
     999900   -1    0    0    0    0 -0.00000000000E+00 -0.00000000000E+00 -0.74505805969E-08  0.93827000000E+00  0.93827000000E+00 0.  1.
     999902    2    1    2    0    0  0.19858254351E-01  0.16334282914E-02  0.13085777539E-01  0.10200918808E+01  0.10198133110E+01 0.  0.
     999903    2    3    3    0    0  0.31181580597E-01 -0.88105880274E-01 -0.87669092838E-01  0.12973638711E+00  0.20266306848E-01 0.  0.
         14    1    1    2    0    0 -0.19858254351E-01 -0.16334282914E-02 -0.13085777539E-01  0.23838119214E-01  0.00000000000E+00 0.  1.
     999901    1    3    3    0    0 -0.11323326246E-01  0.89739308566E-01  0.10075487038E+00  0.89035549368E+00  0.88000000000E+00 0. -1.
        -11    1    4    4    0    0  0.36241061999E-02 -0.78413435104E-02 -0.14797126734E-02  0.87790366438E-02  0.51100000000E-03 0. -1.
         11    1    4    4    0    0  0.27557474397E-01 -0.80264536764E-01 -0.86189380165E-01  0.12095735046E+00  0.51100000000E-03 0.  1.
</event>
<event>
 8    1  0.9956970E+004  0.1043930E+01  0.7957747E-01            NaN
         13   -1    0    0    0    0  0.00000000000E+00  0.00000000000E+00  0.74505805969E-08  0.10566000000E+00  0.10566000000E+00 0. -1.
     999900   -1    0    0    0    0 -0.00000000000E+00 -0.00000000000E+00 -0.74505805969E-08  0.93827000000E+00  0.93827000000E+00 0. -1.
     999902    2    1    2    0    0 -0.14077777314E-01  0.18912669729E-01 -0.38483946041E-02  0.10200410270E+01  0.10197612533E+01 0.  0.
     999903    2    3    3    0    0  0.12530774757E+00 -0.14663924280E-01 -0.13569688803E-01  0.12838514282E+00  0.19533206805E-01 0.  0.
         14    1    1    2    0    0  0.14077777314E-01 -0.18912669729E-01  0.38483946041E-02  0.23888973009E-01  0.00000000000E+00 0.  1.
     999901    1    3    3    0    0 -0.13938552488E+00  0.33576594009E-01  0.97212941992E-02  0.89165588417E+00  0.88000000000E+00 0.  1.
        -11    1    4    4    0    0  0.63765382651E-01 -0.18539823311E-02 -0.14884954371E-01  0.65507894660E-01  0.51100000000E-03 0. -1.
         11    1    4    4    0    0  0.61542364914E-01 -0.12809941949E-01  0.13152655681E-02  0.62877248163E-01  0.51100000000E-03 0.  1.
</event>
<event>
 8    1  0.9956970E+004  0.1043930E+01  0.7957747E-01            NaN
         13   -1    0    0    0    0  0.00000000000E+00  0.00000000000E+00  0.74505805969E-08  0.10566000000E+00  0.10566000000E+00 0.  1.
     999900   -1    0    0    0    0 -0.00000000000E+00 -0.00000000000E+00 -0.74505805969E-08  0.93827000000E+00  0.93827000000E+00 0. -1.
     999902    2    1    2    0    0  0.17346489051E-01 -0.41728771331E-02  0.18722000069E-01  0.10180683127E+01  0.10177397813E+01 0.  0.
     999903    2    3    3    0    0  0.11213714597E+00 -0.46428547196E-02  0.66159078153E-01  0.13170734448E+00  0.19326286839E-01 0.  0.
         14    1    1    2    0    0 -0.17346489051E-01  0.41728771331E-02 -0.18722000069E-01  0.25861687349E-01  0.00000000000E+00 0. -1.
     999901    1    3    3    0    0 -0.94790656915E-01  0.46997758645E-03 -0.47437078084E-01  0.88636096817E+00  0.88000000000E+00 0.  1.
        -11    1    4    4    0    0  0.61544251415E-02 -0.43535000043E-02  0.71519331545E-02  0.10403902150E-01  0.51100000000E-03 0. -1.
         11    1    4    4    0    0  0.10598272082E+00 -0.28935471525E-03  0.59007144999E-01  0.12130344233E+00  0.51100000000E-03 0.  1.
</event>
<event>
 8    1  0.9956970E+004  0.1043930E+01  0.7957747E-01            NaN
         13   -1    0    0    0    0  0.00000000000E+00  0.00000000000E+00  0.74505805969E-08  0.10566000000E+00  0.10566000000E+00 0.  1.
     999900   -1    0    0    0    0 -0.00000000000E+00 -0.00000000000E+00 -0.74505805969E-08  0.93827000000E+00  0.93827000000E+00 0.  1.
     999902    2    1    2    0    0 -0.17152152559E-01 -0.17270149657E-01  0.36217520889E-02  0.10193216377E+01  0.10190245481E+01 0.  0.
     999903    2    3    3    0    0 -0.90229795492E-01 -0.79592688368E-01  0.52153123971E-01  0.13276665645E+00  0.20751498492E-01 0.  0.
         14    1    1    2    0    0  0.17152152559E-01  0.17270149657E-01 -0.36217520889E-02  0.24608362294E-01  0.00000000000E+00 0.  1.
     999901    1    3    3    0    0  0.73077642933E-01  0.62322538711E-01 -0.48531371882E-01  0.88655498125E+00  0.88000000000E+00 0.  1.
        -11    1    4    4    0    0 -0.51390362460E-01 -0.34488634755E-01  0.33561784541E-01  0.70406603267E-01  0.51100000000E-03 0. -1.
         11    1    4    4    0    0 -0.38839433031E-01 -0.45104053614E-01  0.18591339431E-01  0.62360053186E-01  0.51100000000E-03 0.  1.
</event>
<event>
 8    1  0.9956970E+004  0.1043930E+01  0.7957747E-01            NaN
         13   -1    0    0    0    0  0.00000000000E+00  0.00000000000E+00  0.74505805969E-08  0.10566000000E+00  0.10566000000E+00 0. -1.
     999900   -1    0    0    0    0 -0.00000000000E+00 -0.00000000000E+00 -0.74505805969E-08  0.93827000000E+00  0.93827000000E+00 0. -1.
     999902    2    1    2    0    0  0.11770147966E-01  0.16851008624E-01  0.11645517187E-01  0.10203056281E+01  0.10200320896E+01 0.  0.
     999903    2    3    3    0    0  0.19396553079E-01 -0.12383673838E+00 -0.20058350878E-01  0.12853416670E+00  0.20172519066E-01 0.  0.
         14    1    1    2    0    0 -0.11770147966E-01 -0.16851008624E-01 -0.11645517187E-01  0.23624371851E-01  0.00000000000E+00 0.  1.
     999901    1    3    3    0    0 -0.76264051123E-02  0.14068774700E+00  0.31703868065E-01  0.89177146145E+00  0.88000000000E+00 0.  1.
        -11    1    4    4    0    0  0.22812230126E-01 -0.97683446564E-01 -0.19237457903E-01  0.10214105190E+00  0.51100000000E-03 0. -1.
         11    1    4    4    0    0 -0.34156770479E-02 -0.26153291812E-01 -0.82089297456E-03  0.26393114795E-01  0.51100000000E-03 0.  1.
</event>
<event>
 8    1  0.9956970E+004  0.1043930E+01  0.7957747E-01            NaN
         13   -1    0    0    0    0  0.00000000000E+00  0.00000000000E+00  0.74505805969E-08  0.10566000000E+00  0.10566000000E+00 0.  1.
     999900   -1    0    0    0    0 -0.00000000000E+00 -0.00000000000E+00 -0.74505805969E-08  0.93827000000E+00  0.93827000000E+00 0.  1.
     999902    2    1    2    0    0  0.83158881616E-02  0.16727332474E-01 -0.14906777317E-01  0.10200308440E+01  0.10197508289E+01 0.  0.
     999903    2    3    3    0    0  0.42622066310E-01 -0.66608266789E-01  0.98926096809E-01  0.12813418003E+00  0.19460054505E-01 0.  0.
         14    1    1    2    0    0 -0.83158881616E-02 -0.16727332474E-01  0.14906777317E-01  0.23899156002E-01  0.00000000000E+00 0.  1.
     999901    1    3    3    0    0 -0.34306178148E-01  0.83335599263E-01 -0.11383287413E+00  0.89189666397E+00  0.88000000000E+00 0.  1.
        -11    1    4    4    0    0  0.27765317011E-01 -0.30729821438E-01  0.40136648015E-01  0.57675353395E-01  0.51100000000E-03 0. -1.
         11    1    4    4    0    0  0.14856749299E-01 -0.35878445351E-01  0.58789448793E-01  0.70458826636E-01  0.51100000000E-03 0.  1.
</event>
<event>
 8    1  0.9956970E+004  0.1043930E+01  0.7957747E-01            NaN
         13   -1    0    0    0    0  0.00000000000E+00  0.00000000000E+00  0.74505805969E-08  0.10566000000E+00  0.10566000000E+00 0.  1.
     999900   -1    0    0    0    0 -0.00000000000E+00 -0.00000000000E+00 -0.74505805969E-08  0.93827000000E+00  0.93827000000E+00 0.  1.
     999902    2    1    2    0    0 -0.56881083486E-02 -0.23369761722E-01  0.55651517723E-04  0.10198779016E+01  0.10195942481E+01 0.  0.
     999903    2    3    3    0    0  0.73922496784E-01  0.18917899478E-01  0.10259776862E+00  0.12934941778E+00  0.19558816517E-01 0.  0.
         14    1    1    2    0    0  0.56881083486E-02  0.23369761722E-01 -0.55651517723E-04  0.24052098383E-01  0.00000000000E+00 0.  1.
     999901    1    3    3    0    0 -0.79610605132E-01 -0.42287661200E-01 -0.10254211710E+00  0.89052848383E+00  0.88000000000E+00 0.  1.
        -11    1    4    4    0    0  0.58013193125E-01  0.15799730825E-01  0.65798113730E-01  0.89133691510E-01  0.51100000000E-03 0. -1.
         11    1    4    4    0    0  0.15909303658E-01  0.31181686528E-02  0.36799654890E-01  0.40215726273E-01  0.51100000000E-03 0.  1.
</event>
<event>
 8    1  0.9956970E+004  0.1043930E+01  0.7957747E-01            NaN
         13   -1    0    0    0    0  0.00000000000E+00  0.00000000000E+00  0.74505805969E-08  0.10566000000E+00  0.10566000000E+00 0.  1.
     999900   -1    0    0    0    0 -0.00000000000E+00 -0.00000000000E+00 -0.74505805969E-08  0.93827000000E+00  0.93827000000E+00 0.  1.
     999902    2    1    2    0    0 -0.98540335437E-02 -0.18873235403E-01 -0.62430357521E-02  0.10217426954E+01  0.10215017665E+01 0.  0.
     999903    2    3    3    0    0  0.99318583732E-01  0.67862591316E-01 -0.45172583215E-01  0.12991464374E+00  0.19176548397E-01 0.  0.
         14    1    1    2    0    0  0.98540335437E-02  0.18873235403E-01  0.62430357521E-02  0.22187304637E-01  0.00000000000E+00 0.  1.
     999901    1    3    3    0    0 -0.10917261728E+00 -0.86735826719E-01  0.38929547463E-01  0.89182805163E+00  0.88000000000E+00 0. -1.
        -11    1    4    4    0    0  0.61343338581E-01  0.49871576312E-01 -0.22675515944E-01  0.82247306682E-01  0.51100000000E-03 0.  1.
         11    1    4    4    0    0  0.37975245152E-01  0.17991015004E-01 -0.22497067271E-01  0.47667337056E-01  0.51100000000E-03 0. -1.
</event>
<event>
 8    1  0.9956970E+004  0.1043930E+01  0.7957747E-01            NaN
         13   -1    0    0    0    0  0.00000000000E+00  0.00000000000E+00  0.74505805969E-08  0.10566000000E+00  0.10566000000E+00 0. -1.
     999900   -1    0    0    0    0 -0.00000000000E+00 -0.00000000000E+00 -0.74505805969E-08  0.93827000000E+00  0.93827000000E+00 0. -1.
     999902    2    1    2    0    0  0.75213888532E-02  0.29844235251E-02  0.22509102008E-01  0.10200105989E+01  0.10197301036E+01 0.  0.
     999903    2    3    3    0    0  0.36245299434E-01 -0.55512454080E-01  0.11317516339E+00  0.13295519908E+00  0.21751162382E-01 0.  0.
         14    1    1    2    0    0 -0.75213888532E-02 -0.29844235251E-02 -0.22509102008E-01  0.23919401064E-01  0.00000000000E+00 0.  1.
     999901    1    3    3    0    0 -0.28723910581E-01  0.58496877605E-01 -0.90666061381E-01  0.88705539986E+00  0.88000000000E+00 0. -1.
        -11    1    4    4    0    0  0.27929116958E-01 -0.34154579355E-01  0.90637629868E-01  0.10080680500E+00  0.51100000000E-03 0. -1.
         11    1    4    4    0    0  0.83161824765E-02 -0.21357874725E-01  0.22537533521E-01  0.32148394081E-01  0.51100000000E-03 0.  1.
</event>
<event>
 8    1  0.9956970E+004  0.1043930E+01  0.7957747E-01            NaN
         13   -1    0    0    0    0  0.00000000000E+00  0.00000000000E+00  0.74505805969E-08  0.10566000000E+00  0.10566000000E+00 0.  1.
     999900   -1    0    0    0    0 -0.00000000000E+00 -0.00000000000E+00 -0.74505805969E-08  0.93827000000E+00  0.93827000000E+00 0.  1.
     999902    2    1    2    0    0 -0.15789175432E-01  0.17343855381E-01  0.35596257990E-04  0.10204756049E+01  0.10202060339E+01 0.  0.
     999903    2    3    3    0    0 -0.75016468348E-01 -0.10445648998E+00  0.48189466367E-02  0.13010148313E+00  0.19093057453E-01 0.  0.
         14    1    1    2    0    0  0.15789175432E-01 -0.17343855381E-01 -0.35596257990E-04  0.23454395055E-01  0.00000000000E+00 0.  1.
     999901    1    3    3    0    0  0.59227292916E-01  0.12180034536E+00 -0.47833503787E-02  0.89037412181E+00  0.88000000000E+00 0.  1.
        -11    1    4    4    0    0 -0.59556933858E-01 -0.79320871261E-01  0.11453571974E-01  0.99851261485E-01  0.51100000000E-03 0. -1.
         11    1    4    4    0    0 -0.15459534490E-01 -0.25135618722E-01 -0.66346253376E-02  0.30250221645E-01  0.51100000000E-03 0.  1.
</event>
<event>
 8    1  0.9956970E+004  0.1043930E+01  0.7957747E-01            NaN
         13   -1    0    0    0    0  0.00000000000E+00  0.00000000000E+00  0.74505805969E-08  0.10566000000E+00  0.10566000000E+00 0. -1.
     999900   -1    0    0    0    0 -0.00000000000E+00 -0.00000000000E+00 -0.74505805969E-08  0.93827000000E+00  0.93827000000E+00 0.  1.
     999902    2    1    2    0    0  0.50157356442E-02  0.80664436915E-02 -0.21849847566E-01  0.10201047832E+01  0.10198265184E+01 0.  0.
     999903    2    3    3    0    0  0.12859306531E+00 -0.48116781512E-02 -0.17012339089E-01  0.13136376133E+00  0.20191320320E-01 0.  0.
         14    1    1    2    0    0 -0.50157356442E-02 -0.80664436915E-02  0.21849847566E-01  0.23825216820E-01  0.00000000000E+00 0. -1.
     999901    1    3    3    0    0 -0.12357732967E+00  0.12878121843E-01 -0.48375084770E-02  0.88874102185E+00  0.88000000000E+00 0. -1.
        -11    1    4    4    0    0  0.81310642058E-01 -0.25547921319E-02 -0.89834909011E-03  0.81357332962E-01  0.51100000000E-03 0.  1.
         11    1    4    4    0    0  0.47282423255E-01 -0.22568860193E-02 -0.16113989999E-01  0.50006428368E-01  0.51100000000E-03 0. -1.
</event>
<event>
 8    1  0.9956970E+004  0.1043930E+01  0.7957747E-01            NaN
         13   -1    0    0    0    0  0.00000000000E+00  0.00000000000E+00  0.74505805969E-08  0.10566000000E+00  0.10566000000E+00 0.  1.
     999900   -1    0    0    0    0 -0.00000000000E+00 -0.00000000000E+00 -0.74505805969E-08  0.93827000000E+00  0.93827000000E+00 0. -1.
     999902    2    1    2    0    0 -0.59048120036E-02 -0.22798583860E-01  0.93234778408E-03  0.10203607085E+01  0.10200884589E+01 0.  0.
     999903    2    3    3    0    0  0.11111981573E+00 -0.57801420906E-01  0.34065272152E-01  0.13130629350E+00  0.19806116218E-01 0.  0.
         14    1    1    2    0    0  0.59048120036E-02  0.22798583860E-01 -0.93234778408E-03  0.23569291530E-01  0.00000000000E+00 0. -1.
     999901    1    3    3    0    0 -0.11702462773E+00  0.35002837046E-01 -0.33132924368E-01  0.88905441497E+00  0.88000000000E+00 0. -1.
        -11    1    4    4    0    0  0.27954271310E-01 -0.53102037620E-02  0.71635834765E-02  0.29346509123E-01  0.51100000000E-03 0.  1.
         11    1    4    4    0    0  0.83165544420E-01 -0.52491217144E-01  0.26901688676E-01  0.10195978438E+00  0.51100000000E-03 0. -1.
</event>
<event>
 8    1  0.9956970E+004  0.1043930E+01  0.7957747E-01            NaN
         13   -1    0    0    0    0  0.00000000000E+00  0.00000000000E+00  0.74505805969E-08  0.10566000000E+00  0.10566000000E+00 0.  1.
     999900   -1    0    0    0    0 -0.00000000000E+00 -0.00000000000E+00 -0.74505805969E-08  0.93827000000E+00  0.93827000000E+00 0. -1.
     999902    2    1    2    0    0 -0.40789063779E-03  0.17377956511E-01  0.17396859390E-01  0.10193371054E+01  0.10190403937E+01 0.  0.
     999903    2    3    3    0    0 -0.58277140750E-01  0.11649328927E+00  0.22148459107E-02  0.13175432459E+00  0.19682096561E-01 0.  0.
         14    1    1    2    0    0  0.40789063779E-03 -0.17377956511E-01 -0.17396859390E-01  0.24592894582E-01  0.00000000000E+00 0. -1.
     999901    1    3    3    0    0  0.57869250112E-01 -0.99115332761E-01  0.15182013480E-01  0.88758278083E+00  0.88000000000E+00 0. -1.
        -11    1    4    4    0    0 -0.16857632065E-01  0.52815863621E-01 -0.36512177381E-02  0.55563366716E-01  0.51100000000E-03 0. -1.
         11    1    4    4    0    0 -0.41419508685E-01  0.63677425652E-01  0.58660636487E-02  0.76190957870E-01  0.51100000000E-03 0.  1.
</event>
<event>
 8    1  0.9956970E+004  0.1043930E+01  0.7957747E-01            NaN
         13   -1    0    0    0    0  0.00000000000E+00  0.00000000000E+00  0.74505805969E-08  0.10566000000E+00  0.10566000000E+00 0. -1.
     999900   -1    0    0    0    0 -0.00000000000E+00 -0.00000000000E+00 -0.74505805969E-08  0.93827000000E+00  0.93827000000E+00 0.  1.
     999902    2    1    2    0    0 -0.21135530319E-01 -0.61012883141E-03  0.92282727158E-02  0.10208595879E+01  0.10205988704E+01 0.  0.
     999903    2    3    3    0    0  0.56207487663E-01 -0.72781546811E-01  0.90831655923E-01  0.13077545242E+00  0.19884516918E-01 0.  0.
         14    1    1    2    0    0  0.21135530319E-01  0.61012883141E-03 -0.92282727158E-02  0.23070412142E-01  0.00000000000E+00 0.  1.
     999901    1    3    3    0    0 -0.77343017982E-01  0.72171417980E-01 -0.81603383207E-01  0.89008413544E+00  0.88000000000E+00 0.  1.
        -11    1    4    4    0    0  0.43377041282E-01 -0.51915239513E-01  0.77527065581E-01  0.10289541692E+00  0.51100000000E-03 0. -1.
         11    1    4    4    0    0  0.12830446380E-01 -0.20866307298E-01  0.13304590342E-01  0.27880035505E-01  0.51100000000E-03 0.  1.
</event>
<event>
 8    1  0.9956970E+004  0.1043930E+01  0.7957747E-01            NaN
         13   -1    0    0    0    0  0.00000000000E+00  0.00000000000E+00  0.74505805969E-08  0.10566000000E+00  0.10566000000E+00 0.  1.
     999900   -1    0    0    0    0 -0.00000000000E+00 -0.00000000000E+00 -0.74505805969E-08  0.93827000000E+00  0.93827000000E+00 0. -1.
     999902    2    1    2    0    0  0.24644867417E-02 -0.15179055403E-01  0.15590715997E-01  0.10220314192E+01  0.10217967870E+01 0.  0.
     999903    2    3    3    0    0 -0.11814125459E-01 -0.85216412477E-01 -0.97971190596E-01  0.13185985323E+00  0.19678825943E-01 0.  0.
         14    1    1    2    0    0 -0.24644867417E-02  0.15179055403E-01 -0.15590715997E-01  0.21898580847E-01  0.00000000000E+00 0. -1.
     999901    1    3    3    0    0  0.14278612200E-01  0.70037357074E-01  0.11356190659E+00  0.89017156593E+00  0.88000000000E+00 0.  1.
        -11    1    4    4    0    0 -0.11436133775E-01 -0.25731858051E-01 -0.24529624307E-01  0.37348055694E-01  0.51100000000E-03 0. -1.
         11    1    4    4    0    0 -0.37799168334E-03 -0.59484554426E-01 -0.73441566289E-01  0.94511797533E-01  0.51100000000E-03 0.  1.
</event>
<event>
 8    1  0.9956970E+004  0.1043930E+01  0.7957747E-01            NaN
         13   -1    0    0    0    0  0.00000000000E+00  0.00000000000E+00  0.74505805969E-08  0.10566000000E+00  0.10566000000E+00 0. -1.
     999900   -1    0    0    0    0 -0.00000000000E+00 -0.00000000000E+00 -0.74505805969E-08  0.93827000000E+00  0.93827000000E+00 0. -1.
     999902    2    1    2    0    0  0.13079992686E-01  0.47490101895E-02  0.18986907439E-01  0.10203897799E+01  0.10201182093E+01 0.  0.
     999903    2    3    3    0    0 -0.55500022551E-01 -0.45663001203E-01  0.10859797174E+00  0.13175333446E+00  0.20001487290E-01 0.  0.
         14    1    1    2    0    0 -0.13079992686E-01 -0.47490101895E-02 -0.18986907439E-01  0.23540220062E-01  0.00000000000E+00 0.  1.
     999901    1    3    3    0    0  0.68580015237E-01  0.50412011393E-01 -0.89611064301E-01  0.88863644548E+00  0.88000000000E+00 0. -1.
        -11    1    4    4    0    0 -0.22848737580E-01 -0.29756603542E-01  0.64527606443E-01  0.74643106699E-01  0.51100000000E-03 0.  1.
         11    1    4    4    0    0 -0.32651284971E-01 -0.15906397661E-01  0.44070365297E-01  0.57110227764E-01  0.51100000000E-03 0. -1.
</event>
<event>
 8    1  0.9956970E+004  0.1043930E+01  0.7957747E-01            NaN
         13   -1    0    0    0    0  0.00000000000E+00  0.00000000000E+00  0.74505805969E-08  0.10566000000E+00  0.10566000000E+00 0. -1.
     999900   -1    0    0    0    0 -0.00000000000E+00 -0.00000000000E+00 -0.74505805969E-08  0.93827000000E+00  0.93827000000E+00 0.  1.
     999902    2    1    2    0    0  0.11802348554E-01  0.17237629563E-02 -0.19808395446E-01  0.10208077311E+01  0.10205458268E+01 0.  0.
     999903    2    3    3    0    0  0.40446651396E-01 -0.96315306221E-01  0.74620205011E-01  0.12988185551E+00  0.19711711561E-01 0.  0.
         14    1    1    2    0    0 -0.11802348554E-01 -0.17237629563E-02  0.19808395446E-01  0.23122268925E-01  0.00000000000E+00 0. -1.
     999901    1    3    3    0    0 -0.28644302842E-01  0.98039069177E-01 -0.94428600457E-01  0.89092587557E+00  0.88000000000E+00 0.  1.
        -11    1    4    4    0    0  0.25979481217E-01 -0.59150900483E-01  0.34214759221E-01  0.73107272838E-01  0.51100000000E-03 0. -1.
         11    1    4    4    0    0  0.14467170179E-01 -0.37164405738E-01  0.40405445790E-01  0.56774582670E-01  0.51100000000E-03 0.  1.
</event>
<event>
 8    1  0.9956970E+004  0.1043930E+01  0.7957747E-01            NaN
         13   -1    0    0    0    0  0.00000000000E+00  0.00000000000E+00  0.74505805969E-08  0.10566000000E+00  0.10566000000E+00 0.  1.
     999900   -1    0    0    0    0 -0.00000000000E+00 -0.00000000000E+00 -0.74505805969E-08  0.93827000000E+00  0.93827000000E+00 0. -1.
     999902    2    1    2    0    0  0.18596789109E-01 -0.89048575351E-03  0.14976234757E-01  0.10200360439E+01  0.10197561521E+01 0.  0.
     999903    2    3    3    0    0  0.12243981597E+00  0.34255051923E-01 -0.29661060701E-01  0.13211089437E+00  0.20213677838E-01 0.  0.
         14    1    1    2    0    0 -0.18596789109E-01  0.89048575351E-03 -0.14976234757E-01  0.23893956088E-01  0.00000000000E+00 0. -1.
     999901    1    3    3    0    0 -0.10384302686E+00 -0.35145537676E-01  0.44637295458E-01  0.88792514954E+00  0.88000000000E+00 0.  1.
        -11    1    4    4    0    0  0.97545589709E-01  0.25298526548E-01 -0.15074038515E-01  0.10189526621E+00  0.51100000000E-03 0.  1.
         11    1    4    4    0    0  0.24894226261E-01  0.89565253750E-02 -0.14587022186E-01  0.30215628161E-01  0.51100000000E-03 0. -1.
</event>
<event>
 8    1  0.9956970E+004  0.1043930E+01  0.7957747E-01            NaN
         13   -1    0    0    0    0  0.00000000000E+00  0.00000000000E+00  0.74505805969E-08  0.10566000000E+00  0.10566000000E+00 0. -1.
     999900   -1    0    0    0    0 -0.00000000000E+00 -0.00000000000E+00 -0.74505805969E-08  0.93827000000E+00  0.93827000000E+00 0.  1.
     999902    2    1    2    0    0 -0.97685640887E-02  0.14395038442E-01  0.11541579559E-01  0.10230529783E+01  0.10228399417E+01 0.  0.
     999903    2    3    3    0    0  0.43544995866E-01 -0.11090773027E+00 -0.49560833194E-01  0.13048554423E+00  0.19326400820E-01 0.  0.
         14    1    1    2    0    0  0.97685640887E-02 -0.14395038442E-01 -0.11541579559E-01  0.20877021694E-01  0.00000000000E+00 0.  1.
     999901    1    3    3    0    0 -0.53313559954E-01  0.12530276871E+00  0.61102412753E-01  0.89256743407E+00  0.88000000000E+00 0.  1.
        -11    1    4    4    0    0  0.12921072331E-01 -0.38837895024E-01 -0.75649523456E-02  0.41627224566E-01  0.51100000000E-03 0. -1.
         11    1    4    4    0    0  0.30623923534E-01 -0.72069835246E-01 -0.41995880848E-01  0.88858319668E-01  0.51100000000E-03 0.  1.
</event>
<event>
 8    1  0.9956970E+004  0.1043930E+01  0.7957747E-01            NaN
         13   -1    0    0    0    0  0.00000000000E+00  0.00000000000E+00  0.74505805969E-08  0.10566000000E+00  0.10566000000E+00 0.  1.
     999900   -1    0    0    0    0 -0.00000000000E+00 -0.00000000000E+00 -0.74505805969E-08  0.93827000000E+00  0.93827000000E+00 0.  1.
     999902    2    1    2    0    0  0.17541757901E-01  0.21572099215E-02 -0.14438363977E-01  0.10211082301E+01  0.10208531650E+01 0.  0.
     999903    2    3    3    0    0 -0.10000012442E+00 -0.26163639640E-01 -0.77136654912E-01  0.13063125666E+00  0.20734048382E-01 0.  0.
         14    1    1    2    0    0 -0.17541757901E-01 -0.21572099215E-02  0.14438363977E-01  0.22821769853E-01  0.00000000000E+00 0. -1.
     999901    1    3    3    0    0  0.11754188232E+00  0.28320849561E-01  0.62698290936E-01  0.89047697348E+00  0.88000000000E+00 0. -1.
        -11    1    4    4    0    0 -0.37713226490E-01 -0.18941625565E-01 -0.24792094571E-01  0.48948766129E-01  0.51100000000E-03 0. -1.
         11    1    4    4    0    0 -0.62286897933E-01 -0.72220140746E-02 -0.52344560341E-01  0.81682490533E-01  0.51100000000E-03 0.  1.
</event>
<event>
 8    1  0.9956970E+004  0.1043930E+01  0.7957747E-01            NaN
         13   -1    0    0    0    0  0.00000000000E+00  0.00000000000E+00  0.74505805969E-08  0.10566000000E+00  0.10566000000E+00 0.  1.
     999900   -1    0    0    0    0 -0.00000000000E+00 -0.00000000000E+00 -0.74505805969E-08  0.93827000000E+00  0.93827000000E+00 0. -1.
     999902    2    1    2    0    0  0.11968679572E-01 -0.22291174154E-01  0.80836045854E-02  0.10173689308E+01  0.10170221487E+01 0.  0.
     999903    2    3    3    0    0 -0.46877135609E-02  0.81194751220E-01  0.95478565967E-01  0.12684961516E+00  0.18976459734E-01 0.  0.
         14    1    1    2    0    0 -0.11968679572E-01  0.22291174154E-01 -0.80836045854E-02  0.26561069236E-01  0.00000000000E+00 0. -1.
     999901    1    3    3    0    0  0.16656393133E-01 -0.10348592537E+00 -0.87394961381E-01  0.89051931560E+00  0.88000000000E+00 0. -1.
        -11    1    4    4    0    0  0.62846556037E-02  0.32788145885E-01  0.45223546328E-01  0.56213785410E-01  0.51100000000E-03 0. -1.
         11    1    4    4    0    0 -0.10972369165E-01  0.48406605335E-01  0.50255019639E-01  0.70635829754E-01  0.51100000000E-03 0.  1.
</event>
<event>
 8    1  0.9956970E+004  0.1043930E+01  0.7957747E-01            NaN
         13   -1    0    0    0    0  0.00000000000E+00  0.00000000000E+00  0.74505805969E-08  0.10566000000E+00  0.10566000000E+00 0.  1.
     999900   -1    0    0    0    0 -0.00000000000E+00 -0.00000000000E+00 -0.74505805969E-08  0.93827000000E+00  0.93827000000E+00 0.  1.
     999902    2    1    2    0    0  0.17746332504E-01  0.15103237718E-01 -0.38963829534E-02  0.10203032798E+01  0.10200296863E+01 0.  0.
     999903    2    3    3    0    0 -0.48896522118E-01  0.11999483118E+00  0.46687104162E-02  0.13153059949E+00  0.22110458187E-01 0.  0.
         14    1    1    2    0    0 -0.17746332504E-01 -0.15103237718E-01  0.38963829534E-02  0.23626720192E-01  0.00000000000E+00 0.  1.
     999901    1    3    3    0    0  0.66642854622E-01 -0.10489159346E+00 -0.85650933696E-02  0.88877268032E+00  0.88000000000E+00 0.  1.
        -11    1    4    4    0    0 -0.25422268040E-01  0.55010723086E-01  0.12855113913E-01  0.61951484578E-01  0.51100000000E-03 0.  1.
         11    1    4    4    0    0 -0.23474254078E-01  0.64984108092E-01 -0.81864034967E-02  0.69579114914E-01  0.51100000000E-03 0. -1.
</event>
<event>
 8    1  0.9956970E+004  0.1043930E+01  0.7957747E-01            NaN
         13   -1    0    0    0    0  0.00000000000E+00  0.00000000000E+00  0.74505805969E-08  0.10566000000E+00  0.10566000000E+00 0. -1.
     999900   -1    0    0    0    0 -0.00000000000E+00 -0.00000000000E+00 -0.74505805969E-08  0.93827000000E+00  0.93827000000E+00 0.  1.
     999902    2    1    2    0    0  0.18416921854E-01 -0.73291769352E-02  0.13191668814E-01  0.10201199187E+01  0.10198420116E+01 0.  0.
     999903    2    3    3    0    0  0.18793369692E-01  0.12036236561E+00  0.42242248241E-01  0.13042940627E+00  0.19675687629E-01 0.  0.
         14    1    1    2    0    0 -0.18416921854E-01  0.73291769352E-02 -0.13191668814E-01  0.23810081294E-01  0.00000000000E+00 0. -1.
     999901    1    3    3    0    0 -0.37644783763E-03 -0.12769154255E+00 -0.29050579427E-01  0.88969051243E+00  0.88000000000E+00 0. -1.
        -11    1    4    4    0    0  0.17369024595E-01  0.93469049821E-01  0.40798336979E-01  0.10345487766E+00  0.51100000000E-03 0.  1.
         11    1    4    4    0    0  0.14243450964E-02  0.26893315792E-01  0.14439112616E-02  0.26974528614E-01  0.51100000000E-03 0. -1.
</event>
<event>
 8    1  0.9956970E+004  0.1043930E+01  0.7957747E-01            NaN
         13   -1    0    0    0    0  0.00000000000E+00  0.00000000000E+00  0.74505805969E-08  0.10566000000E+00  0.10566000000E+00 0. -1.
     999900   -1    0    0    0    0 -0.00000000000E+00 -0.00000000000E+00 -0.74505805969E-08  0.93827000000E+00  0.93827000000E+00 0. -1.
     999902    2    1    2    0    0 -0.49500740282E-02 -0.16067299291E-01  0.16307435419E-01  0.10205079209E+01  0.10202391008E+01 0.  0.
     999903    2    3    3    0    0  0.76891845973E-02 -0.82790606408E-01  0.10263393906E+00  0.13367985650E+00  0.20571108808E-01 0.  0.
         14    1    1    2    0    0  0.49500740282E-02  0.16067299291E-01 -0.16307435419E-01  0.23422079100E-01  0.00000000000E+00 0.  1.
     999901    1    3    3    0    0 -0.12639258626E-01  0.66723307117E-01 -0.86326503645E-01  0.88682806440E+00  0.88000000000E+00 0. -1.
        -11    1    4    4    0    0  0.19687568317E-02 -0.74683953180E-01  0.96356623437E-01  0.12192796589E+00  0.51100000000E-03 0.  1.
         11    1    4    4    0    0  0.57204277657E-02 -0.81066532279E-02  0.62773156277E-02  0.11751890608E-01  0.51100000000E-03 0. -1.
</event>
<event>
 8    1  0.9956970E+004  0.1043930E+01  0.7957747E-01            NaN
         13   -1    0    0    0    0  0.00000000000E+00  0.00000000000E+00  0.74505805969E-08  0.10566000000E+00  0.10566000000E+00 0. -1.
     999900   -1    0    0    0    0 -0.00000000000E+00 -0.00000000000E+00 -0.74505805969E-08  0.93827000000E+00  0.93827000000E+00 0. -1.
     999902    2    1    2    0    0 -0.13555033730E-01 -0.19069876615E-01  0.51800953837E-02  0.10199668508E+01  0.10196853162E+01 0.  0.
     999903    2    3    3    0    0  0.12401670495E+00  0.18161324185E-01 -0.17058533036E-01  0.12822322045E+00  0.20981513543E-01 0.  0.
         14    1    1    2    0    0  0.13555033730E-01  0.19069876615E-01 -0.51800953837E-02  0.23963149244E-01  0.00000000000E+00 0.  1.
     999901    1    3    3    0    0 -0.13757173868E+00 -0.37231200800E-01  0.22238628420E-01  0.89174363031E+00  0.88000000000E+00 0.  1.
        -11    1    4    4    0    0  0.50993906740E-01  0.17526838721E-01 -0.10134453769E-01  0.54868359501E-01  0.51100000000E-03 0.  1.
         11    1    4    4    0    0  0.73022798210E-01  0.63448546447E-03 -0.69240792672E-02  0.73354860949E-01  0.51100000000E-03 0. -1.
</event>
<event>
 8    1  0.9956970E+004  0.1043930E+01  0.7957747E-01            NaN
         13   -1    0    0    0    0  0.00000000000E+00  0.00000000000E+00  0.74505805969E-08  0.10566000000E+00  0.10566000000E+00 0. -1.
     999900   -1    0    0    0    0 -0.00000000000E+00 -0.00000000000E+00 -0.74505805969E-08  0.93827000000E+00  0.93827000000E+00 0. -1.
     999902    2    1    2    0    0  0.12370999804E-01  0.20095290571E-01 -0.34327429755E-02  0.10200836992E+01  0.10198049359E+01 0.  0.
     999903    2    3    3    0    0  0.11251894956E+00 -0.57735331827E-01 -0.26923945958E-01  0.13067993582E+00  0.18933151075E-01 0.  0.
         14    1    1    2    0    0 -0.12370999804E-01 -0.20095290571E-01  0.34327429755E-02  0.23846300838E-01  0.00000000000E+00 0.  1.
     999901    1    3    3    0    0 -0.10014794976E+00  0.77830622398E-01  0.23491202983E-01  0.88940376334E+00  0.88000000000E+00 0. -1.
        -11    1    4    4    0    0  0.46008010601E-01 -0.32595888031E-01 -0.16943864001E-01  0.58877708892E-01  0.51100000000E-03 0. -1.
         11    1    4    4    0    0  0.66510938959E-01 -0.25139443796E-01 -0.99800819572E-02  0.71802226932E-01  0.51100000000E-03 0.  1.
</event>
<event>
 8    1  0.9956970E+004  0.1043930E+01  0.7957747E-01            NaN
         13   -1    0    0    0    0  0.00000000000E+00  0.00000000000E+00  0.74505805969E-08  0.10566000000E+00  0.10566000000E+00 0. -1.
     999900   -1    0    0    0    0 -0.00000000000E+00 -0.00000000000E+00 -0.74505805969E-08  0.93827000000E+00  0.93827000000E+00 0.  1.
     999902    2    1    2    0    0 -0.19297663496E-01  0.10965527726E-02  0.11254387646E-01  0.10215634293E+01  0.10213185480E+01 0.  0.
     999903    2    3    3    0    0 -0.46418726050E-01 -0.78161228695E-01 -0.92813777771E-01  0.13148055055E+00  0.20220337038E-01 0.  0.
         14    1    1    2    0    0  0.19297663496E-01 -0.10965527726E-02 -0.11254387646E-01  0.22366570717E-01  0.00000000000E+00 0.  1.
     999901    1    3    3    0    0  0.27121062555E-01  0.79257781467E-01  0.10406816542E+00  0.89008287873E+00  0.88000000000E+00 0.  1.
        -11    1    4    4    0    0 -0.35949543735E-01 -0.58750307169E-01 -0.81437841415E-01  0.10665998042E+00  0.51100000000E-03 0. -1.
         11    1    4    4    0    0 -0.10469182316E-01 -0.19410921526E-01 -0.11375936357E-01  0.24820570135E-01  0.51100000000E-03 0.  1.
</event>
<event>
 8    1  0.9956970E+004  0.1043930E+01  0.7957747E-01            NaN
         13   -1    0    0    0    0  0.00000000000E+00  0.00000000000E+00  0.74505805969E-08  0.10566000000E+00  0.10566000000E+00 0.  1.
     999900   -1    0    0    0    0 -0.00000000000E+00 -0.00000000000E+00 -0.74505805969E-08  0.93827000000E+00  0.93827000000E+00 0. -1.
     999902    2    1    2    0    0 -0.24263896876E-01 -0.53815321297E-02 -0.73362702341E-03  0.10190656523E+01  0.10187622725E+01 0.  0.
     999903    2    3    3    0    0 -0.61846067265E-02  0.42130756185E-01 -0.12053835866E+00  0.12949415317E+00  0.20639520831E-01 0.  0.
         14    1    1    2    0    0  0.24263896876E-01  0.53815321297E-02  0.73362702341E-03  0.24864347735E-01  0.00000000000E+00 0. -1.
     999901    1    3    3    0    0 -0.18079290150E-01 -0.47512288314E-01  0.11980473164E+00  0.88957149909E+00  0.88000000000E+00 0.  1.
        -11    1    4    4    0    0 -0.10502312042E-01  0.28577297119E-01 -0.59752412916E-01  0.67063942914E-01  0.51100000000E-03 0.  1.
         11    1    4    4    0    0  0.43177053156E-02  0.13553459066E-01 -0.60785945746E-01  0.62430210260E-01  0.51100000000E-03 0. -1.
</event>
<event>
 8    1  0.9956970E+004  0.1043930E+01  0.7957747E-01            NaN
         13   -1    0    0    0    0  0.00000000000E+00  0.00000000000E+00  0.74505805969E-08  0.10566000000E+00  0.10566000000E+00 0.  1.
     999900   -1    0    0    0    0 -0.00000000000E+00 -0.00000000000E+00 -0.74505805969E-08  0.93827000000E+00  0.93827000000E+00 0.  1.
     999902    2    1    2    0    0 -0.22380030779E-03 -0.16974051138E-01  0.16660119109E-01  0.10201449613E+01  0.10198676453E+01 0.  0.
     999903    2    3    3    0    0 -0.56997053759E-01  0.69366542014E-01  0.93106252904E-01  0.13080705490E+00  0.19527672524E-01 0.  0.
         14    1    1    2    0    0  0.22380030779E-03  0.16974051138E-01 -0.16660119109E-01  0.23785038729E-01  0.00000000000E+00 0. -1.
     999901    1    3    3    0    0  0.56773253452E-01 -0.86340593152E-01 -0.76446133795E-01  0.88933790637E+00  0.88000000000E+00 0.  1.
        -11    1    4    4    0    0 -0.53203566107E-01  0.53327340535E-01  0.74553020189E-01  0.10598508685E+00  0.51100000000E-03 0.  1.
         11    1    4    4    0    0 -0.37934876523E-02  0.16039201479E-01  0.18553232715E-01  0.24821968049E-01  0.51100000000E-03 0. -1.
</event>
<event>
 8    1  0.9956970E+004  0.1043930E+01  0.7957747E-01            NaN
         13   -1    0    0    0    0  0.00000000000E+00  0.00000000000E+00  0.74505805969E-08  0.10566000000E+00  0.10566000000E+00 0. -1.
     999900   -1    0    0    0    0 -0.00000000000E+00 -0.00000000000E+00 -0.74505805969E-08  0.93827000000E+00  0.93827000000E+00 0. -1.
     999902    2    1    2    0    0 -0.83049991896E-02  0.64978619886E-02 -0.20994783778E-01  0.10204358269E+01  0.10201653301E+01 0.  0.
     999903    2    3    3    0    0 -0.76372906904E-01 -0.93617238949E-01 -0.48491582171E-01  0.13172195430E+00  0.20055706575E-01 0.  0.
         14    1    1    2    0    0  0.83049991896E-02 -0.64978619886E-02  0.20994783778E-01  0.23494173062E-01  0.00000000000E+00 0. -1.
     999901    1    3    3    0    0  0.68067907714E-01  0.10011510094E+00  0.27496798393E-01  0.88871387264E+00  0.88000000000E+00 0.  1.
        -11    1    4    4    0    0 -0.48630657621E-01 -0.73230275447E-01 -0.32074849530E-01  0.93577086918E-01  0.51100000000E-03 0. -1.
         11    1    4    4    0    0 -0.27742249282E-01 -0.20386963501E-01 -0.16416732641E-01  0.38144867383E-01  0.51100000000E-03 0.  1.
</event>
<event>
 8    1  0.9956970E+004  0.1043930E+01  0.7957747E-01            NaN
         13   -1    0    0    0    0  0.00000000000E+00  0.00000000000E+00  0.74505805969E-08  0.10566000000E+00  0.10566000000E+00 0. -1.
     999900   -1    0    0    0    0 -0.00000000000E+00 -0.00000000000E+00 -0.74505805969E-08  0.93827000000E+00  0.93827000000E+00 0.  1.
     999902    2    1    2    0    0  0.33798006923E-02  0.20292590741E-01  0.12085322785E-01  0.10200706765E+01  0.10197916050E+01 0.  0.
     999903    2    3    3    0    0  0.49408227548E-01 -0.78142603194E-01 -0.86182491171E-01  0.12795820222E+00  0.19960970607E-01 0.  0.
         14    1    1    2    0    0 -0.33798006923E-02 -0.20292590741E-01 -0.12085322785E-01  0.23859323513E-01  0.00000000000E+00 0.  1.
     999901    1    3    3    0    0 -0.46028426856E-01  0.98435193934E-01  0.98267813955E-01  0.89211247427E+00  0.88000000000E+00 0. -1.
        -11    1    4    4    0    0  0.54632332352E-02 -0.50416480077E-02 -0.15441615969E-01  0.17145546266E-01  0.51100000000E-03 0. -1.
         11    1    4    4    0    0  0.43944994313E-01 -0.73100955186E-01 -0.70740875201E-01  0.11081265595E+00  0.51100000000E-03 0.  1.
</event>
<event>
 8    1  0.9956970E+004  0.1043930E+01  0.7957747E-01            NaN
         13   -1    0    0    0    0  0.00000000000E+00  0.00000000000E+00  0.74505805969E-08  0.10566000000E+00  0.10566000000E+00 0.  1.
     999900   -1    0    0    0    0 -0.00000000000E+00 -0.00000000000E+00 -0.74505805969E-08  0.93827000000E+00  0.93827000000E+00 0. -1.
     999902    2    1    2    0    0 -0.65192716013E-02 -0.98275637273E-02  0.31263986698E-01  0.10105156502E+01  0.10099630490E+01 0.  0.
     999903    2    3    3    0    0 -0.44033271841E-01 -0.11115335915E+00  0.25558751623E-01  0.12388902822E+00  0.20031057079E-01 0.  0.
         14    1    1    2    0    0  0.65192716013E-02  0.98275637273E-02 -0.31263986698E-01  0.33414349841E-01  0.00000000000E+00 0. -1.
     999901    1    3    3    0    0  0.37514000240E-01  0.10132579542E+00  0.57052350750E-02  0.88662662194E+00  0.88000000000E+00 0.  1.
        -11    1    4    4    0    0 -0.33916755876E-01 -0.10163362975E+00  0.20447743218E-01  0.10907846877E+00  0.51100000000E-03 0.  1.
         11    1    4    4    0    0 -0.10116515966E-01 -0.95197294007E-02  0.51110084054E-02  0.14810559445E-01  0.51100000000E-03 0. -1.
</event>
<event>
 8    1  0.9956970E+004  0.1043930E+01  0.7957747E-01            NaN
         13   -1    0    0    0    0  0.00000000000E+00  0.00000000000E+00  0.74505805969E-08  0.10566000000E+00  0.10566000000E+00 0.  1.
     999900   -1    0    0    0    0 -0.00000000000E+00 -0.00000000000E+00 -0.74505805969E-08  0.93827000000E+00  0.93827000000E+00 0. -1.
     999902    2    1    2    0    0  0.18816412783E-01  0.25311793525E-02  0.13566432833E-01  0.10205952114E+01  0.10203284144E+01 0.  0.
     999903    2    3    3    0    0 -0.10554577617E-01 -0.11759668855E+00 -0.49750171786E-01  0.12969546837E+00  0.20135904661E-01 0.  0.
         14    1    1    2    0    0 -0.18816412783E-01 -0.25311793525E-02 -0.13566432833E-01  0.23334788594E-01  0.00000000000E+00 0. -1.
     999901    1    3    3    0    0  0.29370990400E-01  0.12012786790E+00  0.63316604619E-01  0.89089974304E+00  0.88000000000E+00 0.  1.
        -11    1    4    4    0    0 -0.12362529104E-01 -0.50617705738E-01 -0.15048858598E-01  0.54237565636E-01  0.51100000000E-03 0. -1.
         11    1    4    4    0    0  0.18079514866E-02 -0.66978982810E-01 -0.34701313188E-01  0.75457902732E-01  0.51100000000E-03 0.  1.
</event>
<event>
 8    1  0.9956970E+004  0.1043930E+01  0.7957747E-01            NaN
         13   -1    0    0    0    0  0.00000000000E+00  0.00000000000E+00  0.74505805969E-08  0.10566000000E+00  0.10566000000E+00 0.  1.
     999900   -1    0    0    0    0 -0.00000000000E+00 -0.00000000000E+00 -0.74505805969E-08  0.93827000000E+00  0.93827000000E+00 0. -1.
     999902    2    1    2    0    0  0.17651887217E-01  0.75861872705E-03  0.16505636786E-01  0.10197514833E+01  0.10194648042E+01 0.  0.
     999903    2    3    3    0    0  0.13060201873E+00 -0.34413308097E-02 -0.41815989904E-02  0.13228129590E+00  0.20300872425E-01 0.  0.
         14    1    1    2    0    0 -0.17651887217E-01 -0.75861872705E-03 -0.16505636786E-01  0.24178516712E-01  0.00000000000E+00 0. -1.
     999901    1    3    3    0    0 -0.11295013151E+00  0.41999495367E-02  0.20687235776E-01  0.88747018739E+00  0.88000000000E+00 0.  1.
        -11    1    4    4    0    0  0.81102459253E-01  0.77111636297E-02 -0.21869648137E-02  0.81499171023E-01  0.51100000000E-03 0. -1.
         11    1    4    4    0    0  0.49499559472E-01 -0.11152494439E-01 -0.19946341767E-02  0.50782124873E-01  0.51100000000E-03 0.  1.
</event>
<event>
 8    1  0.9956970E+004  0.1043930E+01  0.7957747E-01            NaN
         13   -1    0    0    0    0  0.00000000000E+00  0.00000000000E+00  0.74505805969E-08  0.10566000000E+00  0.10566000000E+00 0.  1.
     999900   -1    0    0    0    0 -0.00000000000E+00 -0.00000000000E+00 -0.74505805969E-08  0.93827000000E+00  0.93827000000E+00 0. -1.
     999902    2    1    2    0    0  0.41248778105E-02 -0.15357701252E-01 -0.17678921710E-01  0.10201514829E+01  0.10198743207E+01 0.  0.
     999903    2    3    3    0    0  0.15819550336E-01  0.11719857127E+00 -0.49202976418E-01  0.12958890966E+00  0.19661875281E-01 0.  0.
         14    1    1    2    0    0 -0.41248778105E-02  0.15357701252E-01  0.17678921710E-01  0.23778517143E-01  0.00000000000E+00 0.  1.
     999901    1    3    3    0    0 -0.11694672526E-01 -0.13255627252E+00  0.31524054708E-01  0.89056257319E+00  0.88000000000E+00 0.  1.
        -11    1    4    4    0    0  0.14963411070E-01  0.49367492984E-01 -0.15670843744E-01  0.53915577517E-01  0.51100000000E-03 0. -1.
         11    1    4    4    0    0  0.85613926612E-03  0.67831078282E-01 -0.33532132674E-01  0.75673332146E-01  0.51100000000E-03 0.  1.
</event>
<event>
 8    1  0.9956970E+004  0.1043930E+01  0.7957747E-01            NaN
         13   -1    0    0    0    0  0.00000000000E+00  0.00000000000E+00  0.74505805969E-08  0.10566000000E+00  0.10566000000E+00 0. -1.
     999900   -1    0    0    0    0 -0.00000000000E+00 -0.00000000000E+00 -0.74505805969E-08  0.93827000000E+00  0.93827000000E+00 0.  1.
     999902    2    1    2    0    0  0.19803551885E-01  0.65284415574E-02  0.13071747706E-01  0.10193195997E+01  0.10190224602E+01 0.  0.
     999903    2    3    3    0    0 -0.21888349969E-01  0.84119239481E-01  0.95312701618E-01  0.13110671916E+00  0.23437457273E-01 0.  0.
         14    1    1    2    0    0 -0.19803551885E-01 -0.65284415574E-02 -0.13071747706E-01  0.24610400332E-01  0.00000000000E+00 0.  1.
     999901    1    3    3    0    0  0.41691901854E-01 -0.77590797924E-01 -0.82240953912E-01  0.88821288051E+00  0.88000000000E+00 0.  1.
        -11    1    4    4    0    0 -0.14166184459E-01  0.15635440237E-01  0.22184279918E-01  0.30619457376E-01  0.51100000000E-03 0.  1.
         11    1    4    4    0    0 -0.77221655098E-02  0.68483799244E-01  0.73128421700E-01  0.10048726178E+00  0.51100000000E-03 0. -1.
</event>
<event>
 8    1  0.9956970E+004  0.1043930E+01  0.7957747E-01            NaN
         13   -1    0    0    0    0  0.00000000000E+00  0.00000000000E+00  0.74505805969E-08  0.10566000000E+00  0.10566000000E+00 0. -1.
     999900   -1    0    0    0    0 -0.00000000000E+00 -0.00000000000E+00 -0.74505805969E-08  0.93827000000E+00  0.93827000000E+00 0. -1.
     999902    2    1    2    0    0  0.19808370530E-01 -0.13955743490E-01 -0.48143321123E-03  0.10196943631E+01  0.10194063115E+01 0.  0.
     999903    2    3    3    0    0 -0.10711651706E+00 -0.68353948642E-01 -0.95677892426E-02  0.12887920061E+00  0.19289770265E-01 0.  0.
         14    1    1    2    0    0 -0.19808370530E-01  0.13955743490E-01  0.48143321123E-03  0.24235636928E-01  0.00000000000E+00 0.  1.
     999901    1    3    3    0    0  0.12692488758E+00  0.54398205152E-01  0.90863560314E-02  0.89081516247E+00  0.88000000000E+00 0.  1.
        -11    1    4    4    0    0 -0.85447006240E-01 -0.58688747619E-01 -0.10597657809E-02  0.10366746933E+00  0.51100000000E-03 0.  1.
         11    1    4    4    0    0 -0.21669510816E-01 -0.96652010227E-02 -0.85080234617E-02  0.25211731278E-01  0.51100000000E-03 0. -1.
</event>
<event>
 8    1  0.9956970E+004  0.1043930E+01  0.7957747E-01            NaN
         13   -1    0    0    0    0  0.00000000000E+00  0.00000000000E+00  0.74505805969E-08  0.10566000000E+00  0.10566000000E+00 0.  1.
     999900   -1    0    0    0    0 -0.00000000000E+00 -0.00000000000E+00 -0.74505805969E-08  0.93827000000E+00  0.93827000000E+00 0. -1.
     999902    2    1    2    0    0  0.22101351808E-01 -0.10301865071E-02  0.12468670222E-02  0.10217695462E+01  0.10215292065E+01 0.  0.
     999903    2    3    3    0    0  0.13285855068E+00  0.92565875382E-02 -0.40362643753E-02  0.13475157213E+00  0.20115065485E-01 0.  0.
         14    1    1    2    0    0 -0.22101351808E-01  0.10301865071E-02 -0.12468670222E-02  0.22160453816E-01  0.00000000000E+00 0. -1.
     999901    1    3    3    0    0 -0.11075719887E+00 -0.10286774045E-01  0.52831313975E-02  0.88701797406E+00  0.88000000000E+00 0. -1.
        -11    1    4    4    0    0  0.77566845641E-01  0.50431438334E-02 -0.12251915442E-01  0.78691927130E-01  0.51100000000E-03 0.  1.
         11    1    4    4    0    0  0.55291705038E-01  0.42134437047E-02  0.82156510665E-02  0.56059644998E-01  0.51100000000E-03 0. -1.
</event>
<event>
 8    1  0.9956970E+004  0.1043930E+01  0.7957747E-01            NaN
         13   -1    0    0    0    0  0.00000000000E+00  0.00000000000E+00  0.74505805969E-08  0.10566000000E+00  0.10566000000E+00 0. -1.
     999900   -1    0    0    0    0 -0.00000000000E+00 -0.00000000000E+00 -0.74505805969E-08  0.93827000000E+00  0.93827000000E+00 0.  1.
     999902    2    1    2    0    0 -0.22267151207E-02 -0.17285538488E-01 -0.15882439008E-01  0.10203503484E+01  0.10200778566E+01 0.  0.
     999903    2    3    3    0    0 -0.24413411349E-01  0.54685568094E-01  0.11129537210E+00  0.12802401498E+00  0.20419660853E-01 0.  0.
         14    1    1    2    0    0  0.22267151207E-02  0.17285538488E-01  0.15882439008E-01  0.23579651607E-01  0.00000000000E+00 0. -1.
     999901    1    3    3    0    0  0.22186696228E-01 -0.71971106582E-01 -0.12717781110E+00  0.89232633342E+00  0.88000000000E+00 0.  1.
        -11    1    4    4    0    0 -0.17225768526E-01  0.25670667002E-01  0.74178363018E-01  0.80364176762E-01  0.51100000000E-03 0.  1.
         11    1    4    4    0    0 -0.71876428234E-02  0.29014901092E-01  0.37117009077E-01  0.47659838214E-01  0.51100000000E-03 0. -1.
</event>
<event>
 8    1  0.9956970E+004  0.1043930E+01  0.7957747E-01            NaN
         13   -1    0    0    0    0  0.00000000000E+00  0.00000000000E+00  0.74505805969E-08  0.10566000000E+00  0.10566000000E+00 0. -1.
     999900   -1    0    0    0    0 -0.00000000000E+00 -0.00000000000E+00 -0.74505805969E-08  0.93827000000E+00  0.93827000000E+00 0. -1.
     999902    2    1    2    0    0 -0.16365823737E-02 -0.10833337107E-01  0.21737639619E-01  0.10195873508E+01  0.10192967190E+01 0.  0.
     999903    2    3    3    0    0  0.26388614283E-01  0.88947871750E-01 -0.84708209955E-01  0.12713431550E+00  0.19482568918E-01 0.  0.
         14    1    1    2    0    0  0.16365823737E-02  0.10833337107E-01 -0.21737639619E-01  0.24342649218E-01  0.00000000000E+00 0.  1.
     999901    1    3    3    0    0 -0.28025196657E-01 -0.99781208857E-01  0.10644584957E+00  0.89245303528E+00  0.88000000000E+00 0.  1.
        -11    1    4    4    0    0  0.27523982318E-01  0.68589027792E-01 -0.60757288749E-01  0.95675146162E-01  0.51100000000E-03 0. -1.
         11    1    4    4    0    0 -0.11353680349E-02  0.20358843958E-01 -0.23950921206E-01  0.31459169339E-01  0.51100000000E-03 0.  1.
</event>
<event>
 8    1  0.9956970E+004  0.1043930E+01  0.7957747E-01            NaN
         13   -1    0    0    0    0  0.00000000000E+00  0.00000000000E+00  0.74505805969E-08  0.10566000000E+00  0.10566000000E+00 0. -1.
     999900   -1    0    0    0    0 -0.00000000000E+00 -0.00000000000E+00 -0.74505805969E-08  0.93827000000E+00  0.93827000000E+00 0. -1.
     999902    2    1    2    0    0 -0.16825321498E-01  0.10839196528E-01 -0.10927170250E-01  0.10211268714E+01  0.10208722275E+01 0.  0.
     999903    2    3    3    0    0  0.11755238326E+00 -0.14476374834E-01  0.45480212957E-01  0.12878162510E+00  0.22093640613E-01 0.  0.
         14    1    1    2    0    0  0.16825321498E-01 -0.10839196528E-01  0.10927170250E-01  0.22803128614E-01  0.00000000000E+00 0. -1.
     999901    1    3    3    0    0 -0.13437770475E+00  0.25315571362E-01 -0.56407383206E-01  0.89234524629E+00  0.88000000000E+00 0. -1.
        -11    1    4    4    0    0  0.41649970646E-01  0.49323903284E-02  0.12407292352E-01  0.43740719629E-01  0.51100000000E-03 0. -1.
         11    1    4    4    0    0  0.75902412610E-01 -0.19408765162E-01  0.33072920605E-01  0.85040905472E-01  0.51100000000E-03 0.  1.
</event>
<event>
 8    1  0.9956970E+004  0.1043930E+01  0.7957747E-01            NaN
         13   -1    0    0    0    0  0.00000000000E+00  0.00000000000E+00  0.74505805969E-08  0.10566000000E+00  0.10566000000E+00 0. -1.
     999900   -1    0    0    0    0 -0.00000000000E+00 -0.00000000000E+00 -0.74505805969E-08  0.93827000000E+00  0.93827000000E+00 0.  1.
     999902    2    1    2    0    0 -0.21291608145E-01 -0.13306451739E-01  0.55590258243E-02  0.10182143043E+01  0.10178895188E+01 0.  0.
     999903    2    3    3    0    0  0.25278588429E-01  0.17337636603E-01  0.12332885482E+00  0.12862025311E+00  0.19838407276E-01 0.  0.
         14    1    1    2    0    0  0.21291608145E-01  0.13306451739E-01 -0.55590258243E-02  0.25715695663E-01  0.00000000000E+00 0. -1.
     999901    1    3    3    0    0 -0.46570196574E-01 -0.30644088342E-01 -0.11776982899E+00  0.88959405123E+00  0.88000000000E+00 0.  1.
        -11    1    4    4    0    0  0.16273666785E-01  0.91344056067E-03  0.75733369771E-01  0.77469161749E-01  0.51100000000E-03 0. -1.
         11    1    4    4    0    0  0.90049216434E-02  0.16424196042E-01  0.47595485047E-01  0.51151091360E-01  0.51100000000E-03 0.  1.
</event>
<event>
 8    1  0.9956970E+004  0.1043930E+01  0.7957747E-01            NaN
         13   -1    0    0    0    0  0.00000000000E+00  0.00000000000E+00  0.74505805969E-08  0.10566000000E+00  0.10566000000E+00 0. -1.
     999900   -1    0    0    0    0 -0.00000000000E+00 -0.00000000000E+00 -0.74505805969E-08  0.93827000000E+00  0.93827000000E+00 0. -1.
     999902    2    1    2    0    0 -0.13064760984E-02 -0.23488868150E-01  0.87735714790E-02  0.10188220458E+01  0.10185126173E+01 0.  0.
     999903    2    3    3    0    0 -0.60768107325E-01  0.54545331647E-01 -0.95608623416E-01  0.12723881104E+00  0.19512818625E-01 0.  0.
         14    1    1    2    0    0  0.13064760984E-02  0.23488868150E-01 -0.87735714790E-02  0.25107954183E-01  0.00000000000E+00 0. -1.
     999901    1    3    3    0    0  0.59461631227E-01 -0.78034199797E-01  0.10438219490E+00  0.89158323478E+00  0.88000000000E+00 0. -1.
        -11    1    4    4    0    0 -0.41550247468E-01  0.45400889052E-01 -0.61324567236E-01  0.86882837540E-01  0.51100000000E-03 0. -1.
         11    1    4    4    0    0 -0.19217859857E-01  0.91444425953E-02 -0.34284056180E-01  0.40355973499E-01  0.51100000000E-03 0.  1.
</event>
<event>
 8    1  0.9956970E+004  0.1043930E+01  0.7957747E-01            NaN
         13   -1    0    0    0    0  0.00000000000E+00  0.00000000000E+00  0.74505805969E-08  0.10566000000E+00  0.10566000000E+00 0. -1.
     999900   -1    0    0    0    0 -0.00000000000E+00 -0.00000000000E+00 -0.74505805969E-08  0.93827000000E+00  0.93827000000E+00 0. -1.
     999902    2    1    2    0    0 -0.97801171423E-02  0.21052324548E-01  0.41167505571E-02  0.10203546168E+01  0.10200822247E+01 0.  0.
     999903    2    3    3    0    0  0.34888630143E-01  0.11386879578E+00  0.55642805758E-01  0.13284961469E+00  0.19224440853E-01 0.  0.
         14    1    1    2    0    0  0.97801171423E-02 -0.21052324548E-01 -0.41167505571E-02  0.23575383250E-01  0.00000000000E+00 0.  1.
     999901    1    3    3    0    0 -0.44668747285E-01 -0.92816471228E-01 -0.51526055201E-01  0.88750500206E+00  0.88000000000E+00 0. -1.
        -11    1    4    4    0    0  0.36952748061E-01  0.10574800478E+00  0.53734283884E-01  0.12424081652E+00  0.51100000000E-03 0.  1.
         11    1    4    4    0    0 -0.20641179184E-02  0.81207909989E-02  0.19085218744E-02  0.86087981725E-02  0.51100000000E-03 0. -1.
</event>
<event>
 8    1  0.9956970E+004  0.1043930E+01  0.7957747E-01            NaN
         13   -1    0    0    0    0  0.00000000000E+00  0.00000000000E+00  0.74505805969E-08  0.10566000000E+00  0.10566000000E+00 0.  1.
     999900   -1    0    0    0    0 -0.00000000000E+00 -0.00000000000E+00 -0.74505805969E-08  0.93827000000E+00  0.93827000000E+00 0.  1.
     999902    2    1    2    0    0 -0.22571132398E-01 -0.11503886686E-02  0.81776909648E-02  0.10198955655E+01  0.10196123334E+01 0.  0.
     999903    2    3    3    0    0 -0.23969021477E-01 -0.42153675250E-01 -0.11810391750E+00  0.12993474152E+00  0.24146540074E-01 0.  0.
         14    1    1    2    0    0  0.22571132398E-01  0.11503886686E-02 -0.81776909648E-02  0.24034434492E-01  0.00000000000E+00 0. -1.
     999901    1    3    3    0    0  0.13978890784E-02  0.41003286581E-01  0.12628160846E+00  0.88996082399E+00  0.88000000000E+00 0. -1.
        -11    1    4    4    0    0  0.23282381910E-02 -0.18914328113E-01 -0.42709710583E-01  0.46771283926E-01  0.51100000000E-03 0. -1.
         11    1    4    4    0    0 -0.26297259668E-01 -0.23239347137E-01 -0.75394206913E-01  0.83163457590E-01  0.51100000000E-03 0.  1.
</event>
<event>
 8    1  0.9956970E+004  0.1043930E+01  0.7957747E-01            NaN
         13   -1    0    0    0    0  0.00000000000E+00  0.00000000000E+00  0.74505805969E-08  0.10566000000E+00  0.10566000000E+00 0.  1.
     999900   -1    0    0    0    0 -0.00000000000E+00 -0.00000000000E+00 -0.74505805969E-08  0.93827000000E+00  0.93827000000E+00 0. -1.
     999902    2    1    2    0    0 -0.16109930656E-01  0.11945302998E-01 -0.12663749243E-01  0.10202110060E+01  0.10199352461E+01 0.  0.
     999903    2    3    3    0    0 -0.82488741705E-02 -0.13120239285E-01 -0.12885438128E+00  0.13218491375E+00  0.25084163222E-01 0.  0.
         14    1    1    2    0    0  0.16109930656E-01 -0.11945302998E-01  0.12663749243E-01  0.23718993957E-01  0.00000000000E+00 0.  1.
     999901    1    3    3    0    0 -0.78610564851E-02  0.25065542284E-01  0.11619063204E+00  0.88802609229E+00  0.88000000000E+00 0.  1.
        -11    1    4    4    0    0  0.20142984564E-02  0.65104131623E-02 -0.41798765393E-01  0.42353757651E-01  0.51100000000E-03 0. -1.
         11    1    4    4    0    0 -0.10263172627E-01 -0.19630652448E-01 -0.87055615886E-01  0.89831156099E-01  0.51100000000E-03 0.  1.
</event>
<event>
 8    1  0.9956970E+004  0.1043930E+01  0.7957747E-01            NaN
         13   -1    0    0    0    0  0.00000000000E+00  0.00000000000E+00  0.74505805969E-08  0.10566000000E+00  0.10566000000E+00 0.  1.
     999900   -1    0    0    0    0 -0.00000000000E+00 -0.00000000000E+00 -0.74505805969E-08  0.93827000000E+00  0.93827000000E+00 0.  1.
     999902    2    1    2    0    0 -0.88138480756E-03 -0.44369624402E-02 -0.22892969377E-01  0.10205943723E+01  0.10203275558E+01 0.  0.
     999903    2    3    3    0    0  0.15364994422E-01 -0.34829803884E-01 -0.12665102016E+00  0.13382867449E+00  0.20504509680E-01 0.  0.
         14    1    1    2    0    0  0.88138480756E-03  0.44369624402E-02  0.22892969377E-01  0.23335627734E-01  0.00000000000E+00 0.  1.
     999901    1    3    3    0    0 -0.16246379229E-01  0.30392841443E-01  0.10375805078E+00  0.88676569778E+00  0.88000000000E+00 0. -1.
        -11    1    4    4    0    0  0.67303210952E-02 -0.51824816598E-02 -0.57081144481E-01  0.57711987615E-01  0.51100000000E-03 0. -1.
         11    1    4    4    0    0  0.86346733266E-02 -0.29647322224E-01 -0.69569875675E-01  0.76116686876E-01  0.51100000000E-03 0.  1.
</event>
<event>
 8    1  0.1074946E+005  0.1043930E+01  0.7957747E-01            NaN
         13   -1    0    0    0    0  0.00000000000E+00  0.00000000000E+00  0.74505805969E-08  0.10566000000E+00  0.10566000000E+00 0.  1.
     999900   -1    0    0    0    0 -0.00000000000E+00 -0.00000000000E+00 -0.74505805969E-08  0.93827000000E+00  0.93827000000E+00 0.  1.
     999902    2    1    2    0    0 -0.12972652332E-01 -0.17815894981E-01 -0.96270219602E-02  0.10198805639E+01  0.10195969740E+01 0.  0.
     999903    2    3    3    0    0 -0.20537525633E-01  0.29981503797E-01 -0.12516115331E+00  0.13101052050E+00  0.13332728744E-01 0.  0.
         14    1    1    2    0    0  0.12972652332E-01  0.17815894981E-01  0.96270219602E-02  0.24049436050E-01  0.00000000000E+00 0. -1.
     999901    1    3    3    0    0  0.75648733006E-02 -0.47797398778E-01  0.11553413134E+00  0.88887004345E+00  0.88000000000E+00 0. -1.
        -11    1    4    4    0    0 -0.64740734898E-02  0.44736992942E-02 -0.45742732964E-01  0.46417522046E-01  0.51100000000E-03 0. -1.
         11    1    4    4    0    0 -0.14063452143E-01  0.25507804503E-01 -0.79418420341E-01  0.84592998453E-01  0.51100000000E-03 0.  1.
</event>
<event>
 8    1  0.9956970E+004  0.1043930E+01  0.7957747E-01            NaN
         13   -1    0    0    0    0  0.00000000000E+00  0.00000000000E+00  0.74505805969E-08  0.10566000000E+00  0.10566000000E+00 0. -1.
     999900   -1    0    0    0    0 -0.00000000000E+00 -0.00000000000E+00 -0.74505805969E-08  0.93827000000E+00  0.93827000000E+00 0.  1.
     999902    2    1    2    0    0 -0.20816623207E-01 -0.10422050813E-01 -0.24796619307E-02  0.10205184715E+01  0.10202498963E+01 0.  0.
     999903    2    3    3    0    0  0.40880223052E-01 -0.79460750875E-01  0.93079750969E-01  0.13051597465E+00  0.19630996733E-01 0.  0.
         14    1    1    2    0    0  0.20816623207E-01  0.10422050813E-01  0.24796619307E-02  0.23411528531E-01  0.00000000000E+00 0. -1.
     999901    1    3    3    0    0 -0.61696846258E-01  0.69038700062E-01 -0.95559412900E-01  0.89000249682E+00  0.88000000000E+00 0.  1.
        -11    1    4    4    0    0  0.11681692131E-01 -0.16379073207E-01  0.10925799850E-01  0.22899130846E-01  0.51100000000E-03 0.  1.
         11    1    4    4    0    0  0.29198530920E-01 -0.63081677669E-01  0.82153951119E-01  0.10761684381E+00  0.51100000000E-03 0. -1.
</event>
<event>
 8    1  0.9956970E+004  0.1043930E+01  0.7957747E-01            NaN
         13   -1    0    0    0    0  0.00000000000E+00  0.00000000000E+00  0.74505805969E-08  0.10566000000E+00  0.10566000000E+00 0.  1.
     999900   -1    0    0    0    0 -0.00000000000E+00 -0.00000000000E+00 -0.74505805969E-08  0.93827000000E+00  0.93827000000E+00 0.  1.
     999902    2    1    2    0    0 -0.20183523600E-01 -0.12113719992E-01  0.13805275766E-02  0.10203498666E+01  0.10200773635E+01 0.  0.
     999903    2    3    3    0    0 -0.36745689900E-01 -0.12063538951E+00 -0.36953010528E-01  0.13270088286E+00  0.18462296644E-01 0.  0.
         14    1    1    2    0    0  0.20183523600E-01  0.12113719992E-01 -0.13805275766E-02  0.23580133447E-01  0.00000000000E+00 0.  1.
     999901    1    3    3    0    0  0.16562166299E-01  0.10852166951E+00  0.38333538105E-01  0.88764898369E+00  0.88000000000E+00 0.  1.
        -11    1    4    4    0    0 -0.26907483559E-01 -0.57579305838E-01 -0.20679130673E-01  0.66837689208E-01  0.51100000000E-03 0. -1.
         11    1    4    4    0    0 -0.98382063402E-02 -0.63056083669E-01 -0.16273879855E-01  0.65863193653E-01  0.51100000000E-03 0.  1.
</event>
<event>
 8    1  0.9956970E+004  0.1043930E+01  0.7957747E-01            NaN
         13   -1    0    0    0    0  0.00000000000E+00  0.00000000000E+00  0.74505805969E-08  0.10566000000E+00  0.10566000000E+00 0. -1.
     999900   -1    0    0    0    0 -0.00000000000E+00 -0.00000000000E+00 -0.74505805969E-08  0.93827000000E+00  0.93827000000E+00 0.  1.
     999902    2    1    2    0    0 -0.21533366029E-01  0.34500321688E-02  0.30808929895E-03  0.10221198305E+01  0.10218871094E+01 0.  0.
     999903    2    3    3    0    0  0.11536212259E+00  0.17529433931E-01 -0.53208961272E-01  0.12981793145E+00  0.20144512469E-01 0.  0.
         14    1    1    2    0    0  0.21533366029E-01 -0.34500321688E-02 -0.30808929895E-03  0.21810169498E-01  0.00000000000E+00 0. -1.
     999901    1    3    3    0    0 -0.13689548862E+00 -0.14079401762E-01  0.53517050571E-01  0.89230189906E+00  0.88000000000E+00 0.  1.
        -11    1    4    4    0    0  0.10462773448E+00  0.21446061995E-01 -0.50061912814E-01  0.11795487541E+00  0.51100000000E-03 0. -1.
         11    1    4    4    0    0  0.10734388114E-01 -0.39166280633E-02 -0.31470484575E-02  0.11863056038E-01  0.51100000000E-03 0.  1.
</event>
<event>
 8    1  0.9956970E+004  0.1043930E+01  0.7957747E-01            NaN
         13   -1    0    0    0    0  0.00000000000E+00  0.00000000000E+00  0.74505805969E-08  0.10566000000E+00  0.10566000000E+00 0.  1.
     999900   -1    0    0    0    0 -0.00000000000E+00 -0.00000000000E+00 -0.74505805969E-08  0.93827000000E+00  0.93827000000E+00 0. -1.
     999902    2    1    2    0    0 -0.18797921790E-01  0.87480478551E-02 -0.10868647517E-01  0.10205202220E+01  0.10202516875E+01 0.  0.
     999903    2    3    3    0    0 -0.81338779061E-02  0.11009305553E+00  0.68080536960E-01  0.13112857258E+00  0.19315853305E-01 0.  0.
         14    1    1    2    0    0  0.18797921790E-01 -0.87480478551E-02  0.10868647517E-01  0.23409777952E-01  0.00000000000E+00 0. -1.
     999901    1    3    3    0    0 -0.10664043884E-01 -0.10134500767E+00 -0.78949184477E-01  0.88939164947E+00  0.88000000000E+00 0. -1.
        -11    1    4    4    0    0  0.60586560208E-02  0.45998095624E-01  0.29490720599E-01  0.54977230162E-01  0.51100000000E-03 0.  1.
         11    1    4    4    0    0 -0.14192533927E-01  0.64094959905E-01  0.38589816361E-01  0.76151342419E-01  0.51100000000E-03 0. -1.
</event>
<event>
 8    1  0.9956970E+004  0.1043930E+01  0.7957747E-01            NaN
         13   -1    0    0    0    0  0.00000000000E+00  0.00000000000E+00  0.74505805969E-08  0.10566000000E+00  0.10566000000E+00 0.  1.
     999900   -1    0    0    0    0 -0.00000000000E+00 -0.00000000000E+00 -0.74505805969E-08  0.93827000000E+00  0.93827000000E+00 0. -1.
     999902    2    1    2    0    0  0.15527846106E-01  0.12441491576E-01  0.11835829899E-01  0.10207785079E+01  0.10205159335E+01 0.  0.
     999903    2    3    3    0    0  0.99037624409E-01  0.68284076067E-01 -0.51312211292E-01  0.13281457145E+00  0.23143060934E-01 0.  0.
         14    1    1    2    0    0 -0.15527846106E-01 -0.12441491576E-01 -0.11835829899E-01  0.23151492106E-01  0.00000000000E+00 0. -1.
     999901    1    3    3    0    0 -0.83509778303E-01 -0.55842584491E-01  0.63148041191E-01  0.88796393644E+00  0.88000000000E+00 0.  1.
        -11    1    4    4    0    0  0.25346957796E-01  0.68723513478E-02 -0.14975585365E-01  0.30236182970E-01  0.51100000000E-03 0.  1.
         11    1    4    4    0    0  0.73690666613E-01  0.61411724720E-01 -0.36336625928E-01  0.10257838848E+00  0.51100000000E-03 0. -1.
</event>
<event>
 7    1  0.9956970E+004  0.1043930E+01  0.7957747E-01            NaN
         13   -1    0    0    0    0  0.00000000000E+00  0.00000000000E+00  0.74505805969E-08  0.10566000000E+00  0.10566000000E+00 0. -1.
     999900   -1    0    0    0    0 -0.00000000000E+00 -0.00000000000E+00 -0.74505805969E-08  0.93827000000E+00  0.93827000000E+00 0.  1.
     999903    2    1    2    0    0 -0.16664195662E-01 -0.47729100876E-01  0.55261792870E-01  0.77234507175E-01  0.18855791150E-01 0.  0.
         14    1    1    2    0    0 -0.11354663068E-01  0.75357052869E-01  0.29564132591E-01  0.81741370960E-01  0.00000000000E+00 0. -1.
     999901    1    1    2    0    0  0.28018858730E-01 -0.27627951993E-01 -0.84825925461E-01  0.88495412187E+00  0.88000000000E+00 0.  1.
        -11    1    3    3    0    0 -0.20617550961E-02 -0.30080103308E-01  0.24360461088E-01  0.38765405125E-01  0.51100000000E-03 0. -1.
         11    1    3    3    0    0 -0.14602440566E-01 -0.17648997568E-01  0.30901331782E-01  0.38469102050E-01  0.51100000000E-03 0.  1.
</event>
<event>
 8    1  0.9956970E+004  0.1043930E+01  0.7957747E-01            NaN
         13   -1    0    0    0    0  0.00000000000E+00  0.00000000000E+00  0.74505805969E-08  0.10566000000E+00  0.10566000000E+00 0.  1.
     999900   -1    0    0    0    0 -0.00000000000E+00 -0.00000000000E+00 -0.74505805969E-08  0.93827000000E+00  0.93827000000E+00 0.  1.
     999902    2    1    2    0    0  0.61081617326E-02 -0.49964531009E-02 -0.22346061741E-01  0.10202314629E+01  0.10199561840E+01 0.  0.
     999903    2    3    3    0    0 -0.68613227910E-01  0.10807322641E+00 -0.58893783090E-02  0.12970416919E+00  0.20022223056E-01 0.  0.
         14    1    1    2    0    0 -0.61081617326E-02  0.49964531009E-02  0.22346061741E-01  0.23698537058E-01  0.00000000000E+00 0.  1.
     999901    1    3    3    0    0  0.74721389643E-01 -0.11306967951E+00 -0.16456683432E-01  0.89052729376E+00  0.88000000000E+00 0. -1.
        -11    1    4    4    0    0 -0.28999455744E-01  0.28518896725E-01 -0.29380407636E-02  0.40782215589E-01  0.51100000000E-03 0. -1.
         11    1    4    4    0    0 -0.39613772166E-01  0.79554329687E-01 -0.29513375454E-02  0.88921953597E-01  0.51100000000E-03 0.  1.
</event>
<event>
 8    1  0.1169013E+005  0.1043930E+01  0.7957747E-01            NaN
         13   -1    0    0    0    0  0.00000000000E+00  0.00000000000E+00  0.74505805969E-08  0.10566000000E+00  0.10566000000E+00 0. -1.
     999900   -1    0    0    0    0 -0.00000000000E+00 -0.00000000000E+00 -0.74505805969E-08  0.93827000000E+00  0.93827000000E+00 0.  1.
     999902    2    1    2    0    0 -0.48136588689E-02  0.11151242257E-01 -0.21194834474E-01  0.10195016860E+01  0.10192089802E+01 0.  0.
     999903    2    3    3    0    0  0.41764902771E-01 -0.67343656158E-01  0.96896878539E-01  0.12693422965E+00  0.21066999285E-01 0.  0.
         14    1    1    2    0    0  0.48136588689E-02 -0.11151242257E-01  0.21194834474E-01  0.24428313981E-01  0.00000000000E+00 0. -1.
     999901    1    3    3    0    0 -0.46578561639E-01  0.78494898414E-01 -0.11809171301E+00  0.89256745637E+00  0.88000000000E+00 0.  1.
        -11    1    4    4    0    0  0.68700590022E-02 -0.19671965811E-01  0.38967601998E-01  0.44191843999E-01  0.51100000000E-03 0.  1.
         11    1    4    4    0    0  0.34894843768E-01 -0.47671690347E-01  0.57929276541E-01  0.82742385654E-01  0.51100000000E-03 0. -1.
</event>
<event>
 8    1  0.9956970E+004  0.1043930E+01  0.7957747E-01            NaN
         13   -1    0    0    0    0  0.00000000000E+00  0.00000000000E+00  0.74505805969E-08  0.10566000000E+00  0.10566000000E+00 0.  1.
     999900   -1    0    0    0    0 -0.00000000000E+00 -0.00000000000E+00 -0.74505805969E-08  0.93827000000E+00  0.93827000000E+00 0. -1.
     999902    2    1    2    0    0 -0.20496663296E-02 -0.11480112100E-02 -0.21990719225E-01  0.10218141506E+01  0.10215747881E+01 0.  0.
     999903    2    3    3    0    0 -0.40066367537E-01  0.34519524646E-01  0.11642060701E+00  0.12947165028E+00  0.20303672074E-01 0.  0.
         14    1    1    2    0    0  0.20496663296E-02  0.11480112100E-02  0.21990719225E-01  0.22115849381E-01  0.00000000000E+00 0.  1.
     999901    1    3    3    0    0  0.38016701207E-01 -0.35667535856E-01 -0.13841132624E+00  0.89234250034E+00  0.88000000000E+00 0. -1.
        -11    1    4    4    0    0 -0.41143063883E-01  0.27836597359E-01  0.98741138847E-01  0.11053371196E+00  0.51100000000E-03 0. -1.
         11    1    4    4    0    0  0.10766963458E-02  0.66829272874E-02  0.17679468163E-01  0.18937938316E-01  0.51100000000E-03 0.  1.
</event>
<event>
 8    1  0.9956970E+004  0.1043930E+01  0.7957747E-01            NaN
         13   -1    0    0    0    0  0.00000000000E+00  0.00000000000E+00  0.74505805969E-08  0.10566000000E+00  0.10566000000E+00 0.  1.
     999900   -1    0    0    0    0 -0.00000000000E+00 -0.00000000000E+00 -0.74505805969E-08  0.93827000000E+00  0.93827000000E+00 0.  1.
     999902    2    1    2    0    0 -0.17897692134E-01 -0.15510331565E-01 -0.39713651806E-02  0.10199160559E+01  0.10196333123E+01 0.  0.
     999903    2    3    3    0    0 -0.62135636795E-01  0.42920468373E-01  0.10407129163E+00  0.13028446373E+00  0.20981033881E-01 0.  0.
         14    1    1    2    0    0  0.17897692134E-01  0.15510331565E-01  0.39713651806E-02  0.24013944082E-01  0.00000000000E+00 0.  1.
     999901    1    3    3    0    0  0.44237944661E-01 -0.58430799938E-01 -0.10804265681E+00  0.88963159219E+00  0.88000000000E+00 0.  1.
        -11    1    4    4    0    0 -0.30489416208E-02  0.52177436801E-02  0.18509899158E-02  0.63409919403E-02  0.51100000000E-03 0.  1.
         11    1    4    4    0    0 -0.59086695174E-01  0.37702724693E-01  0.10222030171E+00  0.12394347179E+00  0.51100000000E-03 0. -1.
</event>
<event>
 8    1  0.9956970E+004  0.1043930E+01  0.7957747E-01            NaN
         13   -1    0    0    0    0  0.00000000000E+00  0.00000000000E+00  0.74505805969E-08  0.10566000000E+00  0.10566000000E+00 0.  1.
     999900   -1    0    0    0    0 -0.00000000000E+00 -0.00000000000E+00 -0.74505805969E-08  0.93827000000E+00  0.93827000000E+00 0.  1.
     999902    2    1    2    0    0  0.23971504327E-01  0.10788577748E-02  0.10718181906E-02  0.10199103050E+01  0.10196274244E+01 0.  0.
     999903    2    3    3    0    0  0.50645415746E-01 -0.87754085063E-01 -0.80691568995E-01  0.13126637137E+00  0.21307120053E-01 0.  0.
         14    1    1    2    0    0 -0.23971504327E-01 -0.10788577748E-02 -0.10718181906E-02  0.24019695003E-01  0.00000000000E+00 0. -1.
     999901    1    3    3    0    0 -0.26673911419E-01  0.88832942838E-01  0.81763387186E-01  0.88864393362E+00  0.88000000000E+00 0. -1.
        -11    1    4    4    0    0  0.18887198214E-01 -0.51050566487E-01 -0.49453594243E-01  0.73544583074E-01  0.51100000000E-03 0. -1.
         11    1    4    4    0    0  0.31758217532E-01 -0.36703518576E-01 -0.31237974752E-01  0.57721788298E-01  0.51100000000E-03 0.  1.
</event>
<event>
 8    1  0.9956970E+004  0.1043930E+01  0.7957747E-01            NaN
         13   -1    0    0    0    0  0.00000000000E+00  0.00000000000E+00  0.74505805969E-08  0.10566000000E+00  0.10566000000E+00 0. -1.
     999900   -1    0    0    0    0 -0.00000000000E+00 -0.00000000000E+00 -0.74505805969E-08  0.93827000000E+00  0.93827000000E+00 0.  1.
     999902    2    1    2    0    0  0.89178991257E-02 -0.20044519524E-01 -0.30299429424E-02  0.10217829406E+01  0.10215428945E+01 0.  0.
     999903    2    3    3    0    0 -0.42106553599E-01  0.10773894156E+00 -0.50134847677E-01  0.12984629496E+00  0.31079188869E-01 0.  0.
         14    1    1    2    0    0 -0.89178991257E-02  0.20044519524E-01  0.30299429424E-02  0.22147059443E-01  0.00000000000E+00 0. -1.
     999901    1    3    3    0    0  0.51024452724E-01 -0.12778346108E+00  0.47104904734E-01  0.89193664559E+00  0.88000000000E+00 0. -1.
        -11    1    4    4    0    0 -0.91701526292E-02  0.20255383690E-01  0.28056292374E-02  0.22416622049E-01  0.51100000000E-03 0.  1.
         11    1    4    4    0    0 -0.32936400969E-01  0.87483557866E-01 -0.52940476914E-01  0.10742967291E+00  0.51100000000E-03 0. -1.
</event>
<event>
 8    1  0.9956970E+004  0.1043930E+01  0.7957747E-01            NaN
         13   -1    0    0    0    0  0.00000000000E+00  0.00000000000E+00  0.74505805969E-08  0.10566000000E+00  0.10566000000E+00 0.  1.
     999900   -1    0    0    0    0 -0.00000000000E+00 -0.00000000000E+00 -0.74505805969E-08  0.93827000000E+00  0.93827000000E+00 0.  1.
     999902    2    1    2    0    0  0.48723569094E-02 -0.14853263263E-01  0.17178413210E-01  0.10207037827E+01  0.10204394910E+01 0.  0.
     999903    2    3    3    0    0 -0.27240124948E-02 -0.10798113790E+00  0.76318697609E-01  0.13378322303E+00  0.20150949686E-01 0.  0.
         14    1    1    2    0    0 -0.48723569094E-02  0.14853263263E-01 -0.17178413210E-01  0.23226217338E-01  0.00000000000E+00 0. -1.
     999901    1    3    3    0    0  0.75963694042E-02  0.93127874636E-01 -0.59140284399E-01  0.88692055963E+00  0.88000000000E+00 0. -1.
        -11    1    4    4    0    0  0.40500151888E-04 -0.51348756845E-01  0.48460487695E-01  0.70607198347E-01  0.51100000000E-03 0.  1.
         11    1    4    4    0    0 -0.27645126467E-02 -0.56632381053E-01  0.27858209914E-01  0.63176024681E-01  0.51100000000E-03 0. -1.
</event>
<event>
 8    1  0.1059552E+005  0.1043930E+01  0.7957747E-01            NaN
         13   -1    0    0    0    0  0.00000000000E+00  0.00000000000E+00  0.74505805969E-08  0.10566000000E+00  0.10566000000E+00 0. -1.
     999900   -1    0    0    0    0 -0.00000000000E+00 -0.00000000000E+00 -0.74505805969E-08  0.93827000000E+00  0.93827000000E+00 0. -1.
     999902    2    1    2    0    0 -0.65540143113E-02 -0.31358367025E-02  0.20870688317E-01  0.10218308098E+01  0.10215918117E+01 0.  0.
     999903    2    3    3    0    0  0.69578650151E-01 -0.55999300464E-01 -0.92006010829E-01  0.12979276265E+00  0.20098382997E-01 0.  0.
         14    1    1    2    0    0  0.65540143113E-02  0.31358367025E-02 -0.20870688317E-01  0.22099190172E-01  0.00000000000E+00 0.  1.
     999901    1    3    3    0    0 -0.76132664463E-01  0.52863463761E-01  0.11287669915E+00  0.89203804718E+00  0.88000000000E+00 0.  1.
        -11    1    4    4    0    0  0.37325891702E-01 -0.18630306488E-01 -0.35688109865E-01  0.54901847127E-01  0.51100000000E-03 0. -1.
         11    1    4    4    0    0  0.32252758449E-01 -0.37368993976E-01 -0.56317900963E-01  0.74890915526E-01  0.51100000000E-03 0.  1.
</event>
<event>
 8    1  0.9956970E+004  0.1043930E+01  0.7957747E-01            NaN
         13   -1    0    0    0    0  0.00000000000E+00  0.00000000000E+00  0.74505805969E-08  0.10566000000E+00  0.10566000000E+00 0. -1.
     999900   -1    0    0    0    0 -0.00000000000E+00 -0.00000000000E+00 -0.74505805969E-08  0.93827000000E+00  0.93827000000E+00 0.  1.
     999902    2    1    2    0    0 -0.15747523397E-01  0.16122402233E-01 -0.86331324621E-02  0.10197960545E+01  0.10195104441E+01 0.  0.
     999903    2    3    3    0    0 -0.59750188804E-02  0.69600112575E-01  0.10830264617E+00  0.13039775026E+00  0.19855316306E-01 0.  0.
         14    1    1    2    0    0  0.15747523397E-01 -0.16122402233E-01  0.86331324621E-02  0.24133945450E-01  0.00000000000E+00 0. -1.
     999901    1    3    3    0    0 -0.97725045162E-02 -0.53477710342E-01 -0.11693577863E+00  0.88939830429E+00  0.88000000000E+00 0.  1.
        -11    1    4    4    0    0  0.59726373752E-02  0.40506655955E-01  0.66234943196E-01  0.77870343489E-01  0.51100000000E-03 0. -1.
         11    1    4    4    0    0 -0.11947656256E-01  0.29093456620E-01  0.42067702970E-01  0.52527406773E-01  0.51100000000E-03 0.  1.
</event>
<event>
 8    1  0.9956970E+004  0.1043930E+01  0.7957747E-01            NaN
         13   -1    0    0    0    0  0.00000000000E+00  0.00000000000E+00  0.74505805969E-08  0.10566000000E+00  0.10566000000E+00 0. -1.
     999900   -1    0    0    0    0 -0.00000000000E+00 -0.00000000000E+00 -0.74505805969E-08  0.93827000000E+00  0.93827000000E+00 0. -1.
     999902    2    1    2    0    0 -0.20116821255E-01 -0.14208658831E-01 -0.36725397607E-02  0.10190289954E+01  0.10187247093E+01 0.  0.
     999903    2    3    3    0    0 -0.10340914872E+00  0.76271803021E-01 -0.13817357244E-01  0.13041927051E+00  0.17533590158E-01 0.  0.
         14    1    1    2    0    0  0.20116821255E-01  0.14208658831E-01  0.36725397607E-02  0.24901004628E-01  0.00000000000E+00 0.  1.
     999901    1    3    3    0    0  0.83292327469E-01 -0.90480461853E-01  0.10144817484E-01  0.88860972486E+00  0.88000000000E+00 0.  1.
        -11    1    4    4    0    0 -0.93688292376E-01  0.63586701553E-01 -0.84172829896E-02  0.11354239964E+00  0.51100000000E-03 0. -1.
         11    1    4    4    0    0 -0.97208563486E-02  0.12685101468E-01 -0.54000742548E-02  0.16876870870E-01  0.51100000000E-03 0.  1.
</event>
<event>
 8    1  0.9956970E+004  0.1043930E+01  0.7957747E-01            NaN
         13   -1    0    0    0    0  0.00000000000E+00  0.00000000000E+00  0.74505805969E-08  0.10566000000E+00  0.10566000000E+00 0.  1.
     999900   -1    0    0    0    0 -0.00000000000E+00 -0.00000000000E+00 -0.74505805969E-08  0.93827000000E+00  0.93827000000E+00 0.  1.
     999902    2    1    2    0    0 -0.20166805233E-01  0.45255143032E-02  0.75203827026E-02  0.10219359902E+01  0.10216992862E+01 0.  0.
     999903    2    3    3    0    0  0.66408806414E-01 -0.41046998796E-01 -0.10189799643E+00  0.12977873262E+00  0.19087485006E-01 0.  0.
         14    1    1    2    0    0  0.20166805233E-01 -0.45255143032E-02 -0.75203827026E-02  0.21994009843E-01  0.00000000000E+00 0. -1.
     999901    1    3    3    0    0 -0.86575611647E-01  0.45572513100E-01  0.10941837914E+00  0.89215725754E+00  0.88000000000E+00 0. -1.
        -11    1    4    4    0    0  0.20227140143E-01 -0.37343481178E-02 -0.32289963439E-01  0.38288188964E-01  0.51100000000E-03 0. -1.
         11    1    4    4    0    0  0.46181666272E-01 -0.37312650679E-01 -0.69608032994E-01  0.91490543657E-01  0.51100000000E-03 0.  1.
</event>
<event>
 8    1  0.9956970E+004  0.1043930E+01  0.7957747E-01            NaN
         13   -1    0    0    0    0  0.00000000000E+00  0.00000000000E+00  0.74505805969E-08  0.10566000000E+00  0.10566000000E+00 0.  1.
     999900   -1    0    0    0    0 -0.00000000000E+00 -0.00000000000E+00 -0.74505805969E-08  0.93827000000E+00  0.93827000000E+00 0. -1.
     999902    2    1    2    0    0 -0.16076514801E-01 -0.51495996479E-02  0.13068671896E-01  0.10225813961E+01  0.10223585226E+01 0.  0.
     999903    2    3    3    0    0 -0.25583530313E-01 -0.10581116389E+00 -0.72965804653E-01  0.13262349537E+00  0.20358375420E-01 0.  0.
         14    1    1    2    0    0  0.16076514801E-01  0.51495996479E-02 -0.13068671896E-01  0.21348603931E-01  0.00000000000E+00 0. -1.
     999901    1    3    3    0    0  0.95070155126E-02  0.10066156424E+00  0.86034476549E-01  0.88995790070E+00  0.88000000000E+00 0.  1.
        -11    1    4    4    0    0 -0.18706567571E-01 -0.53086113919E-01 -0.47566393034E-01  0.73694599724E-01  0.51100000000E-03 0.  1.
         11    1    4    4    0    0 -0.68769627420E-02 -0.52725049967E-01 -0.25399411619E-01  0.58928895647E-01  0.51100000000E-03 0. -1.
</event>
<event>
 8    1  0.9956970E+004  0.1043930E+01  0.7957747E-01            NaN
         13   -1    0    0    0    0  0.00000000000E+00  0.00000000000E+00  0.74505805969E-08  0.10566000000E+00  0.10566000000E+00 0. -1.
     999900   -1    0    0    0    0 -0.00000000000E+00 -0.00000000000E+00 -0.74505805969E-08  0.93827000000E+00  0.93827000000E+00 0.  1.
     999902    2    1    2    0    0 -0.43809208518E-02  0.14023487422E-01  0.19163700448E-01  0.10197825761E+01  0.10194966427E+01 0.  0.
     999903    2    3    3    0    0 -0.98543594935E-01  0.68155873638E-01  0.52293615957E-01  0.13248639344E+00  0.21493230635E-01 0.  0.
         14    1    1    2    0    0  0.43809208518E-02 -0.14023487422E-01 -0.19163700448E-01  0.24147423917E-01  0.00000000000E+00 0.  1.
     999901    1    3    3    0    0  0.94162674084E-01 -0.54132386216E-01 -0.33129915509E-01  0.88729618264E+00  0.88000000000E+00 0. -1.
        -11    1    4    4    0    0 -0.88418586711E-01  0.51896232893E-01  0.42758992957E-01  0.11108401354E+00  0.51100000000E-03 0. -1.
         11    1    4    4    0    0 -0.10125008225E-01  0.16259640745E-01  0.95346230005E-02  0.21402379902E-01  0.51100000000E-03 0.  1.
</event>
<event>
 8    1  0.9956970E+004  0.1043930E+01  0.7957747E-01            NaN
         13   -1    0    0    0    0  0.00000000000E+00  0.00000000000E+00  0.74505805969E-08  0.10566000000E+00  0.10566000000E+00 0. -1.
     999900   -1    0    0    0    0 -0.00000000000E+00 -0.00000000000E+00 -0.74505805969E-08  0.93827000000E+00  0.93827000000E+00 0.  1.
     999902    2    1    2    0    0 -0.34293630035E-02 -0.19734420002E-02 -0.24564559920E-01  0.10190488303E+01  0.10187450348E+01 0.  0.
     999903    2    3    3    0    0  0.12427754845E+00 -0.77017323153E-02 -0.28712268979E-01  0.12980247967E+00  0.22804903163E-01 0.  0.
         14    1    1    2    0    0  0.34293630035E-02  0.19734420002E-02  0.24564559920E-01  0.24881169748E-01  0.00000000000E+00 0. -1.
     999901    1    3    3    0    0 -0.12770691145E+00  0.57282903151E-02  0.41477090589E-02  0.88924635059E+00  0.88000000000E+00 0.  1.
        -11    1    4    4    0    0  0.65906529624E-01  0.70724855542E-02 -0.17437539637E-01  0.68542100993E-01  0.51100000000E-03 0. -1.
         11    1    4    4    0    0  0.58371018825E-01 -0.14774217870E-01 -0.11274729341E-01  0.61260378672E-01  0.51100000000E-03 0.  1.
</event>
<event>
 8    1  0.9956970E+004  0.1043930E+01  0.7957747E-01            NaN
         13   -1    0    0    0    0  0.00000000000E+00  0.00000000000E+00  0.74505805969E-08  0.10566000000E+00  0.10566000000E+00 0.  1.
     999900   -1    0    0    0    0 -0.00000000000E+00 -0.00000000000E+00 -0.74505805969E-08  0.93827000000E+00  0.93827000000E+00 0. -1.
     999902    2    1    2    0    0 -0.41419787491E-02 -0.70801445417E-02  0.22164962484E-01  0.10202959145E+01  0.10200221484E+01 0.  0.
     999903    2    3    3    0    0 -0.68061654584E-01 -0.74702455459E-01 -0.80409641462E-01  0.12946481309E+00  0.90874480783E-02 0.  0.
         14    1    1    2    0    0  0.41419787491E-02  0.70801445417E-02 -0.22164962484E-01  0.23634085482E-01  0.00000000000E+00 0. -1.
     999901    1    3    3    0    0  0.63919675835E-01  0.67622310917E-01  0.10257460395E+00  0.89083110143E+00  0.88000000000E+00 0.  1.
        -11    1    4    4    0    0 -0.17835967956E-01 -0.19901214422E-01 -0.26485149445E-01  0.37628504495E-01  0.51100000000E-03 0.  1.
         11    1    4    4    0    0 -0.50225686628E-01 -0.54801241037E-01 -0.53924492017E-01  0.91836308597E-01  0.51100000000E-03 0. -1.
</event>
<event>
 8    1  0.9956970E+004  0.1043930E+01  0.7957747E-01            NaN
         13   -1    0    0    0    0  0.00000000000E+00  0.00000000000E+00  0.74505805969E-08  0.10566000000E+00  0.10566000000E+00 0.  1.
     999900   -1    0    0    0    0 -0.00000000000E+00 -0.00000000000E+00 -0.74505805969E-08  0.93827000000E+00  0.93827000000E+00 0.  1.
     999902    2    1    2    0    0 -0.12806408696E-01 -0.18550500547E-01  0.48954969779E-02  0.10208629008E+01  0.10206022591E+01 0.  0.
     999903    2    3    3    0    0 -0.11766999043E+00  0.71968287940E-02  0.57698016725E-01  0.13269208288E+00  0.19496326126E-01 0.  0.
         14    1    1    2    0    0  0.12806408696E-01  0.18550500547E-01 -0.48954969779E-02  0.23067099186E-01  0.00000000000E+00 0.  1.
     999901    1    3    3    0    0  0.10486358173E+00 -0.25747329341E-01 -0.52802519747E-01  0.88817081794E+00  0.88000000000E+00 0.  1.
        -11    1    4    4    0    0 -0.53765406168E-01  0.23087784957E-02  0.37116067014E-01  0.65375170440E-01  0.51100000000E-03 0. -1.
         11    1    4    4    0    0 -0.63904584260E-01  0.48880502983E-02  0.20581949711E-01  0.67316912437E-01  0.51100000000E-03 0.  1.
</event>
<event>
 8    1  0.9956970E+004  0.1043930E+01  0.7957747E-01            NaN
         13   -1    0    0    0    0  0.00000000000E+00  0.00000000000E+00  0.74505805969E-08  0.10566000000E+00  0.10566000000E+00 0. -1.
     999900   -1    0    0    0    0 -0.00000000000E+00 -0.00000000000E+00 -0.74505805969E-08  0.93827000000E+00  0.93827000000E+00 0. -1.
     999902    2    1    2    0    0 -0.13439762204E-01 -0.63117791351E-02  0.19354855756E-01  0.10195358162E+01  0.10192439375E+01 0.  0.
     999903    2    3    3    0    0  0.32380621177E-01  0.34927000590E-01 -0.11601885929E+00  0.12705265822E+00  0.20337213435E-01 0.  0.
         14    1    1    2    0    0  0.13439762204E-01  0.63117791351E-02 -0.19354855756E-01  0.24394183841E-01  0.00000000000E+00 0. -1.
     999901    1    3    3    0    0 -0.45820383381E-01 -0.41238779725E-01  0.13537371505E+00  0.89248315794E+00  0.88000000000E+00 0.  1.
        -11    1    4    4    0    0  0.30946327655E-01  0.28460676025E-01 -0.11108900415E+00  0.11878010456E+00  0.51100000000E-03 0.  1.
         11    1    4    4    0    0  0.14342935215E-02  0.64663245648E-02 -0.49298551436E-02  0.82725536577E-02  0.51100000000E-03 0. -1.
</event>
<event>
 8    1  0.9956970E+004  0.1043930E+01  0.7957747E-01            NaN
         13   -1    0    0    0    0  0.00000000000E+00  0.00000000000E+00  0.74505805969E-08  0.10566000000E+00  0.10566000000E+00 0.  1.
     999900   -1    0    0    0    0 -0.00000000000E+00 -0.00000000000E+00 -0.74505805969E-08  0.93827000000E+00  0.93827000000E+00 0. -1.
     999902    2    1    2    0    0  0.15492068611E-01  0.17894117866E-01 -0.16179159128E-02  0.10202061450E+01  0.10199302707E+01 0.  0.
     999903    2    3    3    0    0 -0.45096474419E-01  0.95171556123E-01 -0.76293765825E-01  0.13160091400E+00  0.20167914148E-01 0.  0.
         14    1    1    2    0    0 -0.15492068611E-01 -0.17894117866E-01  0.16179159128E-02  0.23723854998E-01  0.00000000000E+00 0. -1.
     999901    1    3    3    0    0  0.60588543030E-01 -0.77277438257E-01  0.74675849912E-01  0.88860523101E+00  0.88000000000E+00 0.  1.
        -11    1    4    4    0    0 -0.24068726261E-01  0.31511519212E-01 -0.34761118245E-01  0.52734010747E-01  0.51100000000E-03 0. -1.
         11    1    4    4    0    0 -0.21027748158E-01  0.63660036911E-01 -0.41532647580E-01  0.78866903249E-01  0.51100000000E-03 0.  1.
</event>
<event>
 8    1  0.9956970E+004  0.1043930E+01  0.7957747E-01            NaN
         13   -1    0    0    0    0  0.00000000000E+00  0.00000000000E+00  0.74505805969E-08  0.10566000000E+00  0.10566000000E+00 0. -1.
     999900   -1    0    0    0    0 -0.00000000000E+00 -0.00000000000E+00 -0.74505805969E-08  0.93827000000E+00  0.93827000000E+00 0. -1.
     999902    2    1    2    0    0 -0.55083426655E-02  0.21242282796E-01 -0.92411256841E-02  0.10201187669E+01  0.10198408326E+01 0.  0.
     999903    2    3    3    0    0 -0.48276115992E-01  0.10261402979E+00  0.65020400214E-01  0.13221943823E+00  0.19852075903E-01 0.  0.
         14    1    1    2    0    0  0.55083426655E-02 -0.21242282796E-01  0.92411256841E-02  0.23811233089E-01  0.00000000000E+00 0. -1.
     999901    1    3    3    0    0  0.42767773326E-01 -0.81371746991E-01 -0.74261525898E-01  0.88789932868E+00  0.88000000000E+00 0. -1.
        -11    1    4    4    0    0 -0.35697554374E-01  0.75669467942E-01  0.57565289775E-01  0.10155888673E+00  0.51100000000E-03 0.  1.
         11    1    4    4    0    0 -0.12578561617E-01  0.26944561844E-01  0.74551104394E-02  0.30660551496E-01  0.51100000000E-03 0. -1.
</event>
<event>
 8    1  0.9956970E+004  0.1043930E+01  0.7957747E-01            NaN
         13   -1    0    0    0    0  0.00000000000E+00  0.00000000000E+00  0.74505805969E-08  0.10566000000E+00  0.10566000000E+00 0. -1.
     999900   -1    0    0    0    0 -0.00000000000E+00 -0.00000000000E+00 -0.74505805969E-08  0.93827000000E+00  0.93827000000E+00 0. -1.
     999902    2    1    2    0    0  0.49590180195E-02 -0.21284084354E-01 -0.29613705025E-02  0.10218761155E+01  0.10216381070E+01 0.  0.
     999903    2    3    3    0    0  0.90529865956E-01 -0.88691707064E-01  0.39104706538E-01  0.13416235957E+00  0.20211014841E-01 0.  0.
         14    1    1    2    0    0 -0.49590180195E-02  0.21284084354E-01  0.29613705025E-02  0.22053884505E-01  0.00000000000E+00 0. -1.
     999901    1    3    3    0    0 -0.85570847936E-01  0.67407622710E-01 -0.42066077041E-01  0.88771375592E+00  0.88000000000E+00 0.  1.
        -11    1    4    4    0    0  0.53316481739E-01 -0.64931760779E-01  0.22393800153E-01  0.86951274798E-01  0.51100000000E-03 0. -1.
         11    1    4    4    0    0  0.37213384217E-01 -0.23759946285E-01  0.16710906385E-01  0.47211084774E-01  0.51100000000E-03 0.  1.
</event>
<event>
 8    1  0.9956970E+004  0.1043930E+01  0.7957747E-01            NaN
         13   -1    0    0    0    0  0.00000000000E+00  0.00000000000E+00  0.74505805969E-08  0.10566000000E+00  0.10566000000E+00 0. -1.
     999900   -1    0    0    0    0 -0.00000000000E+00 -0.00000000000E+00 -0.74505805969E-08  0.93827000000E+00  0.93827000000E+00 0.  1.
     999902    2    1    2    0    0 -0.22033821317E-01  0.61614406919E-02  0.67199259753E-02  0.10200844545E+01  0.10198057091E+01 0.  0.
     999903    2    3    3    0    0  0.49012840485E-01 -0.14646644999E-02  0.11874642627E+00  0.13010932994E+00  0.20574746919E-01 0.  0.
         14    1    1    2    0    0  0.22033821317E-01 -0.61614406919E-02 -0.67199259753E-02  0.23845545461E-01  0.00000000000E+00 0.  1.
     999901    1    3    3    0    0 -0.71046661802E-01  0.76261051917E-02 -0.11202650030E+00  0.88997512460E+00  0.88000000000E+00 0. -1.
        -11    1    4    4    0    0  0.64034990795E-02 -0.39385759383E-02  0.38362534023E-01  0.39095553693E-01  0.51100000000E-03 0. -1.
         11    1    4    4    0    0  0.42609341405E-01  0.24739114384E-02  0.80383892249E-01  0.91013776248E-01  0.51100000000E-03 0.  1.
</event>
<event>
 8    1  0.9956970E+004  0.1043930E+01  0.7957747E-01            NaN
         13   -1    0    0    0    0  0.00000000000E+00  0.00000000000E+00  0.74505805969E-08  0.10566000000E+00  0.10566000000E+00 0.  1.
     999900   -1    0    0    0    0 -0.00000000000E+00 -0.00000000000E+00 -0.74505805969E-08  0.93827000000E+00  0.93827000000E+00 0.  1.
     999902    2    1    2    0    0  0.97226265518E-02 -0.19063518408E-01  0.11525311021E-01  0.10196240338E+01  0.10193342878E+01 0.  0.
     999903    2    3    3    0    0 -0.10969330338E+00  0.61611627724E-01  0.94631287954E-02  0.12789935869E+00  0.20978123592E-01 0.  0.
         14    1    1    2    0    0 -0.97226265518E-02  0.19063518408E-01 -0.11525311021E-01  0.24305966249E-01  0.00000000000E+00 0.  1.
     999901    1    3    3    0    0  0.11941592993E+00 -0.80675146133E-01  0.20621822260E-02  0.89172467506E+00  0.88000000000E+00 0. -1.
        -11    1    4    4    0    0 -0.75021020619E-01  0.34172986411E-01 -0.10586789184E-02  0.82445912312E-01  0.51100000000E-03 0. -1.
         11    1    4    4    0    0 -0.34672282756E-01  0.27438641314E-01  0.10521807714E-01  0.45453446373E-01  0.51100000000E-03 0.  1.
</event>
<event>
 8    1  0.9956970E+004  0.1043930E+01  0.7957747E-01            NaN
         13   -1    0    0    0    0  0.00000000000E+00  0.00000000000E+00  0.74505805969E-08  0.10566000000E+00  0.10566000000E+00 0. -1.
     999900   -1    0    0    0    0 -0.00000000000E+00 -0.00000000000E+00 -0.74505805969E-08  0.93827000000E+00  0.93827000000E+00 0.  1.
     999902    2    1    2    0    0 -0.25291830712E-02 -0.21359141664E-01 -0.99294982798E-02  0.10202402420E+01  0.10199651694E+01 0.  0.
     999903    2    3    3    0    0  0.45558766934E-01 -0.18635498874E-02 -0.12182368214E+00  0.13163862289E+00  0.20214931242E-01 0.  0.
         14    1    1    2    0    0  0.25291830712E-02  0.21359141664E-01  0.99294982798E-02  0.23689758034E-01  0.00000000000E+00 0. -1.
     999901    1    3    3    0    0 -0.48087950005E-01 -0.19495591776E-01  0.11189418386E+00  0.88860161907E+00  0.88000000000E+00 0. -1.
        -11    1    4    4    0    0  0.24792765904E-01 -0.38385091558E-02 -0.40190819378E-01  0.47381203837E-01  0.51100000000E-03 0.  1.
         11    1    4    4    0    0  0.20766001030E-01  0.19749592684E-02 -0.81632862760E-01  0.84257419058E-01  0.51100000000E-03 0. -1.
</event>
<event>
 8    1  0.9956970E+004  0.1043930E+01  0.7957747E-01            NaN
         13   -1    0    0    0    0  0.00000000000E+00  0.00000000000E+00  0.74505805969E-08  0.10566000000E+00  0.10566000000E+00 0.  1.
     999900   -1    0    0    0    0 -0.00000000000E+00 -0.00000000000E+00 -0.74505805969E-08  0.93827000000E+00  0.93827000000E+00 0. -1.
     999902    2    1    2    0    0  0.22651177492E-01  0.18087697828E-02 -0.10507668640E-01  0.10188948529E+01  0.10185872386E+01 0.  0.
     999903    2    3    3    0    0 -0.63267093417E-01 -0.57430366067E-02 -0.11050527320E+00  0.12904177516E+00  0.20116081904E-01 0.  0.
         14    1    1    2    0    0 -0.22651177492E-01 -0.18087697828E-02  0.10507668640E-01  0.25035147096E-01  0.00000000000E+00 0.  1.
     999901    1    3    3    0    0  0.85918270909E-01  0.75518063895E-02  0.99997604563E-01  0.88985307775E+00  0.88000000000E+00 0.  1.
        -11    1    4    4    0    0 -0.27119580482E-01 -0.12463545254E-01 -0.48167300053E-01  0.56667111460E-01  0.51100000000E-03 0.  1.
         11    1    4    4    0    0 -0.36147512935E-01  0.67205086468E-02 -0.62337973150E-01  0.72374663698E-01  0.51100000000E-03 0. -1.
</event>
<event>
 8    1  0.9956970E+004  0.1043930E+01  0.7957747E-01            NaN
         13   -1    0    0    0    0  0.00000000000E+00  0.00000000000E+00  0.74505805969E-08  0.10566000000E+00  0.10566000000E+00 0. -1.
     999900   -1    0    0    0    0 -0.00000000000E+00 -0.00000000000E+00 -0.74505805969E-08  0.93827000000E+00  0.93827000000E+00 0.  1.
     999902    2    1    2    0    0 -0.40850679601E-02  0.20527135759E-01 -0.10716110303E-01  0.10204164698E+01  0.10201455218E+01 0.  0.
     999903    2    3    3    0    0 -0.81233781076E-01 -0.96313661888E-01  0.18184351326E-01  0.12887907147E+00  0.20097158394E-01 0.  0.
         14    1    1    2    0    0  0.40850679601E-02 -0.20527135759E-01  0.10716110303E-01  0.23513530205E-01  0.00000000000E+00 0. -1.
     999901    1    3    3    0    0  0.77148713116E-01  0.11684079765E+00 -0.28900461629E-01  0.89153739833E+00  0.88000000000E+00 0. -1.
        -11    1    4    4    0    0 -0.62262128322E-01 -0.71490296626E-01  0.22219404493E-01  0.97372471427E-01  0.51100000000E-03 0.  1.
         11    1    4    4    0    0 -0.18971652754E-01 -0.24823365262E-01 -0.40350531671E-02  0.31506600042E-01  0.51100000000E-03 0. -1.
</event>
<event>
 7    1  0.9956970E+004  0.1043930E+01  0.7957747E-01            NaN
         13   -1    0    0    0    0  0.00000000000E+00  0.00000000000E+00  0.74505805969E-08  0.10566000000E+00  0.10566000000E+00 0.  1.
     999900   -1    0    0    0    0 -0.00000000000E+00 -0.00000000000E+00 -0.74505805969E-08  0.93827000000E+00  0.93827000000E+00 0. -1.
     999902    2    1    2    0    0  0.38345095063E-02 -0.21290029134E-01 -0.88945102221E-02  0.10205402348E+01  0.10202721645E+01 0.  0.
         14    1    1    2    0    0 -0.38345095063E-02  0.21290029134E-01  0.88945102221E-02  0.23389765193E-01  0.00000000000E+00 0.  1.
     999901    1    3    3    0    0  0.30345905835E-01 -0.12075490792E+00  0.55645334020E-01  0.89050492699E+00  0.88000000000E+00 0.  1.
        -11    1    3    3    0    0 -0.19444239834E-01  0.18004468673E-01 -0.10726457724E-02  0.26526421637E-01  0.51100000000E-03 0. -1.
         11    1    3    3    0    0 -0.70671564941E-02  0.81460410112E-01 -0.63467198470E-01  0.10350888618E+00  0.51100000000E-03 0.  1.
</event>
<event>
 8    1  0.9956970E+004  0.1043930E+01  0.7957747E-01            NaN
         13   -1    0    0    0    0  0.00000000000E+00  0.00000000000E+00  0.74505805969E-08  0.10566000000E+00  0.10566000000E+00 0.  1.
     999900   -1    0    0    0    0 -0.00000000000E+00 -0.00000000000E+00 -0.74505805969E-08  0.93827000000E+00  0.93827000000E+00 0.  1.
     999902    2    1    2    0    0  0.15019162365E-01  0.98950785545E-02 -0.15841307508E-01  0.10199626297E+01  0.10196809947E+01 0.  0.
     999903    2    3    3    0    0 -0.52753493573E-01  0.11777236367E+00 -0.78691862883E-02  0.13075275777E+00  0.19521753069E-01 0.  0.
         14    1    1    2    0    0 -0.15019162365E-01 -0.98950785545E-02  0.15841307508E-01  0.23967370346E-01  0.00000000000E+00 0.  1.
     999901    1    3    3    0    0  0.67772655937E-01 -0.10787728512E+00 -0.79721212195E-02  0.88920987188E+00  0.88000000000E+00 0.  1.
        -11    1    4    4    0    0 -0.24718201628E-01  0.73525871864E-01  0.12523829696E-02  0.77581395381E-01  0.51100000000E-03 0.  1.
         11    1    4    4    0    0 -0.28035291945E-01  0.44246491808E-01 -0.91215692580E-02  0.53171362390E-01  0.51100000000E-03 0. -1.
</event>
<event>
 8    1  0.9956970E+004  0.1043930E+01  0.7957747E-01            NaN
         13   -1    0    0    0    0  0.00000000000E+00  0.00000000000E+00  0.74505805969E-08  0.10566000000E+00  0.10566000000E+00 0. -1.
     999900   -1    0    0    0    0 -0.00000000000E+00 -0.00000000000E+00 -0.74505805969E-08  0.93827000000E+00  0.93827000000E+00 0. -1.
     999902    2    1    2    0    0  0.87706748611E-02  0.71333917633E-02  0.19799782566E-01  0.10211299692E+01  0.10208753952E+01 0.  0.
     999903    2    3    3    0    0  0.10147689878E+00 -0.66547812623E-01 -0.44909433261E-01  0.13084313538E+00  0.19413823117E-01 0.  0.
         14    1    1    2    0    0 -0.87706748611E-02 -0.71333917633E-02 -0.19799782566E-01  0.22800030816E-01  0.00000000000E+00 0.  1.
     999901    1    3    3    0    0 -0.92706223924E-01  0.73681204387E-01  0.64709215826E-01  0.89028683381E+00  0.88000000000E+00 0.  1.
        -11    1    4    4    0    0  0.65561971491E-02 -0.20640541271E-02 -0.74053389652E-02  0.10116531357E-01  0.51100000000E-03 0.  1.
         11    1    4    4    0    0  0.94920701636E-01 -0.64483758496E-01 -0.37504094295E-01  0.12072660402E+00  0.51100000000E-03 0. -1.
</event>
<event>
 8    1  0.9956970E+004  0.1043930E+01  0.7957747E-01            NaN
         13   -1    0    0    0    0  0.00000000000E+00  0.00000000000E+00  0.74505805969E-08  0.10566000000E+00  0.10566000000E+00 0. -1.
     999900   -1    0    0    0    0 -0.00000000000E+00 -0.00000000000E+00 -0.74505805969E-08  0.93827000000E+00  0.93827000000E+00 0. -1.
     999902    2    1    2    0    0 -0.32380119588E-02 -0.15806667368E-01  0.17918160102E-01  0.10198178471E+01  0.10195327584E+01 0.  0.
     999903    2    3    3    0    0  0.68642274660E-01  0.80743902698E-01 -0.67986650691E-01  0.12747910836E+00  0.19934861503E-01 0.  0.
         14    1    1    2    0    0  0.32380119588E-02  0.15806667368E-01 -0.17918160102E-01  0.24112152873E-01  0.00000000000E+00 0.  1.
     999901    1    3    3    0    0 -0.71880286619E-01 -0.96550570066E-01  0.85904810793E-01  0.89233873877E+00  0.88000000000E+00 0.  1.
        -11    1    4    4    0    0  0.46362902379E-03  0.60998353885E-02 -0.74154325592E-02  0.96266663326E-02  0.51100000000E-03 0.  1.
         11    1    4    4    0    0  0.68178645636E-01  0.74644067309E-01 -0.60571218131E-01  0.11785244203E+00  0.51100000000E-03 0. -1.
</event>
<event>
 8    1  0.9956970E+004  0.1043930E+01  0.7957747E-01            NaN
         13   -1    0    0    0    0  0.00000000000E+00  0.00000000000E+00  0.74505805969E-08  0.10566000000E+00  0.10566000000E+00 0. -1.
     999900   -1    0    0    0    0 -0.00000000000E+00 -0.00000000000E+00 -0.74505805969E-08  0.93827000000E+00  0.93827000000E+00 0. -1.
     999902    2    1    2    0    0  0.10566148592E-02 -0.65814952670E-02 -0.24333112044E-01  0.10187003972E+01  0.10183879253E+01 0.  0.
     999903    2    3    3    0    0 -0.61455524633E-01 -0.74495362924E-01  0.81109501532E-01  0.12761218286E+00  0.19487877535E-01 0.  0.
         14    1    1    2    0    0 -0.10566148592E-02  0.65814952670E-02  0.24333112044E-01  0.25229602784E-01  0.00000000000E+00 0. -1.
     999901    1    3    3    0    0  0.62512139492E-01  0.67913867657E-01 -0.10544261358E+00  0.89108821435E+00  0.88000000000E+00 0. -1.
        -11    1    4    4    0    0 -0.42897766385E-01 -0.36983445986E-01  0.45256047676E-01  0.72500790410E-01  0.51100000000E-03 0. -1.
         11    1    4    4    0    0 -0.18557758249E-01 -0.37511916938E-01  0.35853453856E-01  0.55111392452E-01  0.51100000000E-03 0.  1.
</event>
<event>
 7    1  0.1292313E+005  0.1043930E+01  0.7957747E-01            NaN
         13   -1    0    0    0    0  0.00000000000E+00  0.00000000000E+00  0.74505805969E-08  0.10566000000E+00  0.10566000000E+00 0.  1.
     999900   -1    0    0    0    0 -0.00000000000E+00 -0.00000000000E+00 -0.74505805969E-08  0.93827000000E+00  0.93827000000E+00 0. -1.
     999903    2    1    2    0    0  0.82863716421E-01 -0.71830290933E-01 -0.25156335645E-01  0.11432524107E+00  0.20283819352E-01 0.  0.
         14    1    1    2    0    0  0.23484168350E-01  0.29919099910E-01 -0.15987431092E-01  0.41258413148E-01  0.00000000000E+00 0. -1.
     999901    1    1    2    0    0 -0.10634788477E+00  0.41911191023E-01  0.41143766737E-01  0.88834634578E+00  0.88000000000E+00 0. -1.
        -11    1    3    3    0    0  0.39378733834E-01 -0.47444842099E-01 -0.13381564755E-01  0.63095365253E-01  0.51100000000E-03 0. -1.
         11    1    3    3    0    0  0.43484982587E-01 -0.24385448834E-01 -0.11774770890E-01  0.51229875814E-01  0.51100000000E-03 0.  1.
</event>
<event>
 8    1  0.9956970E+004  0.1043930E+01  0.7957747E-01            NaN
         13   -1    0    0    0    0  0.00000000000E+00  0.00000000000E+00  0.74505805969E-08  0.10566000000E+00  0.10566000000E+00 0. -1.
     999900   -1    0    0    0    0 -0.00000000000E+00 -0.00000000000E+00 -0.74505805969E-08  0.93827000000E+00  0.93827000000E+00 0. -1.
     999902    2    1    2    0    0 -0.22313983776E-01  0.73507195200E-02 -0.42900906823E-02  0.10200479601E+01  0.10197683507E+01 0.  0.
     999903    2    3    3    0    0  0.98853178115E-01  0.27849537438E-01  0.73537908525E-01  0.12810688580E+00  0.21354218294E-01 0.  0.
         14    1    1    2    0    0  0.22313983776E-01 -0.73507195200E-02  0.42900906823E-02  0.23882039852E-01  0.00000000000E+00 0.  1.
     999901    1    3    3    0    0 -0.12116716189E+00 -0.20498817918E-01 -0.77827999208E-01  0.89194107435E+00  0.88000000000E+00 0. -1.
        -11    1    4    4    0    0  0.20508565988E-01 -0.10259587844E-03  0.22798774270E-01  0.30670132606E-01  0.51100000000E-03 0. -1.
         11    1    4    4    0    0  0.78344612126E-01  0.27952133316E-01  0.50739134255E-01  0.97436753190E-01  0.51100000000E-03 0.  1.
</event>
<event>
 8    1  0.9956970E+004  0.1043930E+01  0.7957747E-01            NaN
         13   -1    0    0    0    0  0.00000000000E+00  0.00000000000E+00  0.74505805969E-08  0.10566000000E+00  0.10566000000E+00 0.  1.
     999900   -1    0    0    0    0 -0.00000000000E+00 -0.00000000000E+00 -0.74505805969E-08  0.93827000000E+00  0.93827000000E+00 0.  1.
     999902    2    1    2    0    0 -0.48494894726E-02 -0.20454286652E-01 -0.11399131779E-01  0.10200169158E+01  0.10197365704E+01 0.  0.
     999903    2    3    3    0    0 -0.11820851867E-01 -0.69356011461E-01 -0.11110981351E+00  0.13300947579E+00  0.19903294398E-01 0.  0.
         14    1    1    2    0    0  0.48494894726E-02  0.20454286652E-01  0.11399131779E-01  0.23913084198E-01  0.00000000000E+00 0.  1.
     999901    1    3    3    0    0  0.69713623943E-02  0.48901724810E-01  0.99710681729E-01  0.88700744001E+00  0.88000000000E+00 0. -1.
        -11    1    4    4    0    0  0.31191491673E-02 -0.35149824144E-01 -0.61743772087E-01  0.71118167450E-01  0.51100000000E-03 0. -1.
         11    1    4    4    0    0 -0.14940001034E-01 -0.34206187317E-01 -0.49366041420E-01  0.61891308341E-01  0.51100000000E-03 0.  1.
</event>
<event>
 8    1  0.9956970E+004  0.1043930E+01  0.7957747E-01            NaN
         13   -1    0    0    0    0  0.00000000000E+00  0.00000000000E+00  0.74505805969E-08  0.10566000000E+00  0.10566000000E+00 0. -1.
     999900   -1    0    0    0    0 -0.00000000000E+00 -0.00000000000E+00 -0.74505805969E-08  0.93827000000E+00  0.93827000000E+00 0. -1.
     999902    2    1    2    0    0 -0.15201741799E-01 -0.10292815222E-01  0.14010057332E-01  0.10208363492E+01  0.10205751002E+01 0.  0.
     999903    2    3    3    0    0  0.22670070075E-01  0.42507498609E-01 -0.11774843268E+00  0.12865786544E+00  0.19165944417E-01 0.  0.
         14    1    1    2    0    0  0.15201741799E-01  0.10292815222E-01 -0.14010057332E-01  0.23093650758E-01  0.00000000000E+00 0.  1.
     999901    1    3    3    0    0 -0.37871811873E-01 -0.52800313831E-01  0.13175849001E+00  0.89217848381E+00  0.88000000000E+00 0.  1.
        -11    1    4    4    0    0  0.14226318727E-01  0.90960349643E-02 -0.47395003296E-01  0.50315737648E-01  0.51100000000E-03 0.  1.
         11    1    4    4    0    0  0.84437513476E-02  0.33411463645E-01 -0.70353429381E-01  0.78342127789E-01  0.51100000000E-03 0. -1.
</event>
<event>
 8    1  0.9956970E+004  0.1043930E+01  0.7957747E-01            NaN
         13   -1    0    0    0    0  0.00000000000E+00  0.00000000000E+00  0.74505805969E-08  0.10566000000E+00  0.10566000000E+00 0. -1.
     999900   -1    0    0    0    0 -0.00000000000E+00 -0.00000000000E+00 -0.74505805969E-08  0.93827000000E+00  0.93827000000E+00 0. -1.
     999902    2    1    2    0    0 -0.15787422280E-01 -0.13493211127E-01  0.12331951309E-01  0.10197766054E+01  0.10194905288E+01 0.  0.
     999903    2    3    3    0    0 -0.38446135010E-01  0.11365964699E+00 -0.43024728464E-01  0.12862811686E+00  0.17246580413E-01 0.  0.
         14    1    1    2    0    0  0.15787422280E-01  0.13493211127E-01 -0.12331951309E-01  0.24153394624E-01  0.00000000000E+00 0. -1.
     999901    1    3    3    0    0  0.22658712729E-01 -0.12715285812E+00  0.55356679773E-01  0.89114848852E+00  0.88000000000E+00 0. -1.
        -11    1    4    4    0    0 -0.10571010634E-01  0.50109625084E-01 -0.11944307112E-01  0.52589432259E-01  0.51100000000E-03 0. -1.
         11    1    4    4    0    0 -0.27875124375E-01  0.63550021907E-01 -0.31080421352E-01  0.76038684600E-01  0.51100000000E-03 0.  1.
</event>
<event>
 7    1  0.9956970E+004  0.1043930E+01  0.7957747E-01            NaN
         13   -1    0    0    0    0  0.00000000000E+00  0.00000000000E+00  0.74505805969E-08  0.10566000000E+00  0.10566000000E+00 0.  1.
     999900   -1    0    0    0    0 -0.00000000000E+00 -0.00000000000E+00 -0.74505805969E-08  0.93827000000E+00  0.93827000000E+00 0. -1.
     999902    2    1    2    0    0 -0.16512839724E-02  0.17318098915E-01 -0.15221366097E-01  0.10208143500E+01  0.10205525973E+01 0.  0.
         14    1    1    2    0    0  0.16512839724E-02 -0.17318098915E-01  0.15221366097E-01  0.23115649993E-01  0.00000000000E+00 0.  1.
     999901    1    3    3    0    0 -0.20590686780E-01  0.76714772922E-01  0.10057919962E+00  0.88928359265E+00  0.88000000000E+00 0.  1.
        -11    1    3    3    0    0  0.14206866458E-01 -0.42187335949E-01 -0.82359815657E-01  0.93621614625E-01  0.51100000000E-03 0. -1.
         11    1    3    3    0    0  0.47325363495E-02 -0.17209338058E-01 -0.33440750061E-01  0.37909142727E-01  0.51100000000E-03 0.  1.
</event>
<event>
 8    1  0.9956970E+004  0.1043930E+01  0.7957747E-01            NaN
         13   -1    0    0    0    0  0.00000000000E+00  0.00000000000E+00  0.74505805969E-08  0.10566000000E+00  0.10566000000E+00 0. -1.
     999900   -1    0    0    0    0 -0.00000000000E+00 -0.00000000000E+00 -0.74505805969E-08  0.93827000000E+00  0.93827000000E+00 0. -1.
     999902    2    1    2    0    0  0.21898357085E-01 -0.84314806917E-03 -0.92257022652E-02  0.10201526468E+01  0.10198755122E+01 0.  0.
     999903    2    3    3    0    0 -0.96295883318E-01  0.66484516871E-01  0.47609875016E-01  0.12788969468E+00  0.19899388886E-01 0.  0.
         14    1    1    2    0    0 -0.21898357085E-01  0.84314806917E-03  0.92257022652E-02  0.23777353175E-01  0.00000000000E+00 0. -1.
     999901    1    3    3    0    0  0.11819424040E+00 -0.67327664940E-01 -0.56835577281E-01  0.89226295215E+00  0.88000000000E+00 0.  1.
        -11    1    4    4    0    0 -0.46838920243E-01  0.43216681728E-01  0.21047765714E-01  0.67118072020E-01  0.51100000000E-03 0.  1.
         11    1    4    4    0    0 -0.49456963075E-01  0.23267835143E-01  0.26562109302E-01  0.60771622658E-01  0.51100000000E-03 0. -1.
</event>
<event>
 8    1  0.9956970E+004  0.1043930E+01  0.7957747E-01            NaN
         13   -1    0    0    0    0  0.00000000000E+00  0.00000000000E+00  0.74505805969E-08  0.10566000000E+00  0.10566000000E+00 0.  1.
     999900   -1    0    0    0    0 -0.00000000000E+00 -0.00000000000E+00 -0.74505805969E-08  0.93827000000E+00  0.93827000000E+00 0.  1.
     999902    2    1    2    0    0 -0.22713204595E-01 -0.83209370724E-02  0.26591802411E-02  0.10195948629E+01  0.10193044126E+01 0.  0.
     999903    2    3    3    0    0  0.11302495305E+00  0.34960010723E-01  0.41671478321E-01  0.12728323167E+00  0.21625600481E-01 0.  0.
         14    1    1    2    0    0  0.22713204595E-01  0.83209370724E-02 -0.26591802411E-02  0.24335137071E-01  0.00000000000E+00 0.  1.
     999901    1    3    3    0    0 -0.13573815765E+00 -0.43280947796E-01 -0.39012298080E-01  0.89231163126E+00  0.88000000000E+00 0.  1.
        -11    1    4    4    0    0  0.26698315918E-01  0.18187677406E-01  0.10239069087E-01  0.33892349270E-01  0.51100000000E-03 0.  1.
         11    1    4    4    0    0  0.86326637133E-01  0.16772333318E-01  0.31432409234E-01  0.93390882397E-01  0.51100000000E-03 0. -1.
</event>
<event>
 8    1  0.9956970E+004  0.1043930E+01  0.7957747E-01            NaN
         13   -1    0    0    0    0  0.00000000000E+00  0.00000000000E+00  0.74505805969E-08  0.10566000000E+00  0.10566000000E+00 0. -1.
     999900   -1    0    0    0    0 -0.00000000000E+00 -0.00000000000E+00 -0.74505805969E-08  0.93827000000E+00  0.93827000000E+00 0. -1.
     999902    2    1    2    0    0  0.63501179113E-02  0.15765954394E-01  0.15005446125E-01  0.10212572690E+01  0.10210055616E+01 0.  0.
     999903    2    3    3    0    0 -0.93976181143E-01 -0.77889972279E-01  0.41805664855E-01  0.13021571524E+00  0.17608193504E-01 0.  0.
         14    1    1    2    0    0 -0.63501179113E-02 -0.15765954394E-01 -0.15005446125E-01  0.22672730952E-01  0.00000000000E+00 0. -1.
     999901    1    3    3    0    0  0.10032629905E+00  0.93655926673E-01 -0.26800218730E-01  0.89104155380E+00  0.88000000000E+00 0. -1.
        -11    1    4    4    0    0 -0.53314001616E-01 -0.50992289561E-01  0.17909074645E-01  0.75918327422E-01  0.51100000000E-03 0.  1.
         11    1    4    4    0    0 -0.40662179527E-01 -0.26897682718E-01  0.23896590210E-01  0.54297387820E-01  0.51100000000E-03 0. -1.
</event>
<event>
 8    1  0.9956970E+004  0.1043930E+01  0.7957747E-01            NaN
         13   -1    0    0    0    0  0.00000000000E+00  0.00000000000E+00  0.74505805969E-08  0.10566000000E+00  0.10566000000E+00 0. -1.
     999900   -1    0    0    0    0 -0.00000000000E+00 -0.00000000000E+00 -0.74505805969E-08  0.93827000000E+00  0.93827000000E+00 0.  1.
     999902    2    1    2    0    0 -0.71199941446E-03 -0.16833320385E-01  0.14581309923E-01  0.10216481191E+01  0.10214051092E+01 0.  0.
     999903    2    3    3    0    0 -0.67579568918E-01 -0.11346820245E+00 -0.21175380741E-02  0.13367941253E+00  0.20583252051E-01 0.  0.
         14    1    1    2    0    0  0.71199941446E-03  0.16833320385E-01 -0.14581309923E-01  0.22281880922E-01  0.00000000000E+00 0.  1.
     999901    1    3    3    0    0  0.66867569504E-01  0.96634882064E-01  0.16698847997E-01  0.88796870655E+00  0.88000000000E+00 0. -1.
        -11    1    4    4    0    0 -0.31162163475E-01 -0.35096984264E-01 -0.50534138406E-02  0.47208864096E-01  0.51100000000E-03 0.  1.
         11    1    4    4    0    0 -0.36417405444E-01 -0.78371218185E-01  0.29358757666E-02  0.86470548434E-01  0.51100000000E-03 0. -1.
</event>
<event>
 8    1  0.9956970E+004  0.1043930E+01  0.7957747E-01            NaN
         13   -1    0    0    0    0  0.00000000000E+00  0.00000000000E+00  0.74505805969E-08  0.10566000000E+00  0.10566000000E+00 0.  1.
     999900   -1    0    0    0    0 -0.00000000000E+00 -0.00000000000E+00 -0.74505805969E-08  0.93827000000E+00  0.93827000000E+00 0.  1.
     999902    2    1    2    0    0  0.19319513470E-01  0.95176243775E-02  0.84978532694E-02  0.10207774130E+01  0.10205148135E+01 0.  0.
     999903    2    3    3    0    0 -0.97325019690E-01 -0.70994939548E-01  0.41163974776E-01  0.12883834806E+00  0.19809245660E-01 0.  0.
         14    1    1    2    0    0 -0.19319513470E-01 -0.95176243775E-02 -0.84978532694E-02  0.23152586998E-01  0.00000000000E+00 0. -1.
     999901    1    3    3    0    0  0.11664453316E+00  0.80512563925E-01 -0.32666121507E-01  0.89193906494E+00  0.88000000000E+00 0. -1.
        -11    1    4    4    0    0 -0.28623354431E-01 -0.10441896036E-01  0.11576974761E-01  0.32597807861E-01  0.51100000000E-03 0.  1.
         11    1    4    4    0    0 -0.68701665260E-01 -0.60553043511E-01  0.29587000015E-01  0.96240540204E-01  0.51100000000E-03 0. -1.
</event>
<event>
 8    1  0.9956970E+004  0.1043930E+01  0.7957747E-01            NaN
         13   -1    0    0    0    0  0.00000000000E+00  0.00000000000E+00  0.74505805969E-08  0.10566000000E+00  0.10566000000E+00 0. -1.
     999900   -1    0    0    0    0 -0.00000000000E+00 -0.00000000000E+00 -0.74505805969E-08  0.93827000000E+00  0.93827000000E+00 0.  1.
     999902    2    1    2    0    0  0.21533593271E-01 -0.22199889765E-02  0.91766434098E-02  0.10204175613E+01  0.10201466388E+01 0.  0.
     999903    2    3    3    0    0 -0.31290707090E-01  0.12411809752E+00  0.42575019325E-02  0.12981331878E+00  0.21188698107E-01 0.  0.
         14    1    1    2    0    0 -0.21533593271E-01  0.22199889765E-02 -0.91766434098E-02  0.23512438718E-01  0.00000000000E+00 0.  1.
     999901    1    3    3    0    0  0.52824300361E-01 -0.12633808650E+00  0.49191414773E-02  0.89060424250E+00  0.88000000000E+00 0.  1.
        -11    1    4    4    0    0 -0.18959034653E-01  0.10530708632E+00  0.65291317041E-02  0.10720036430E+00  0.51100000000E-03 0.  1.
         11    1    4    4    0    0 -0.12331672438E-01  0.18811011203E-01 -0.22716297716E-02  0.22612954482E-01  0.51100000000E-03 0. -1.
</event>
<event>
 8    1  0.1187530E+005  0.1043930E+01  0.7957747E-01            NaN
         13   -1    0    0    0    0  0.00000000000E+00  0.00000000000E+00  0.74505805969E-08  0.10566000000E+00  0.10566000000E+00 0. -1.
     999900   -1    0    0    0    0 -0.00000000000E+00 -0.00000000000E+00 -0.74505805969E-08  0.93827000000E+00  0.93827000000E+00 0. -1.
     999902    2    1    2    0    0  0.25836343362E-01 -0.18875958691E-03 -0.35323492668E-02  0.10178526198E+01  0.10175185137E+01 0.  0.
     999903    2    3    3    0    0 -0.10063863631E+00  0.36306597579E-01 -0.63501867632E-01  0.12604312514E+00  0.20200941973E-01 0.  0.
         14    1    1    2    0    0 -0.25836343362E-01  0.18875958691E-03  0.35323492668E-02  0.26077380233E-01  0.00000000000E+00 0.  1.
     999901    1    3    3    0    0  0.12647497967E+00 -0.36495357166E-01  0.59969518365E-01  0.89180949463E+00  0.88000000000E+00 0.  1.
        -11    1    4    4    0    0 -0.68550128827E-01  0.27322177050E-01 -0.32899699024E-01  0.80797727925E-01  0.51100000000E-03 0. -1.
         11    1    4    4    0    0 -0.32088507478E-01  0.89844205289E-02 -0.30602168609E-01  0.45245397213E-01  0.51100000000E-03 0.  1.
</event>
<event>
 8    1  0.9956970E+004  0.1043930E+01  0.7957747E-01            NaN
         13   -1    0    0    0    0  0.00000000000E+00  0.00000000000E+00  0.74505805969E-08  0.10566000000E+00  0.10566000000E+00 0.  1.
     999900   -1    0    0    0    0 -0.00000000000E+00 -0.00000000000E+00 -0.74505805969E-08  0.93827000000E+00  0.93827000000E+00 0.  1.
     999902    2    1    2    0    0  0.23864481543E-02  0.20406567553E-01  0.13455766402E-01  0.10193702609E+01  0.10190743585E+01 0.  0.
     999903    2    3    3    0    0 -0.20211042694E-01 -0.11570866159E+00  0.46108369139E-01  0.12802061310E+00  0.21594329353E-01 0.  0.
         14    1    1    2    0    0 -0.23864481543E-02 -0.20406567553E-01 -0.13455766402E-01  0.24559739078E-01  0.00000000000E+00 0. -1.
     999901    1    3    3    0    0  0.22597490848E-01  0.13611522915E+00 -0.32652602737E-01  0.89134964782E+00  0.88000000000E+00 0. -1.
        -11    1    4    4    0    0 -0.20077214636E-01 -0.53705931174E-01  0.24577234473E-01  0.62383677081E-01  0.51100000000E-03 0. -1.
         11    1    4    4    0    0 -0.13382805807E-03 -0.62002730421E-01  0.21531134666E-01  0.65636936024E-01  0.51100000000E-03 0.  1.
</event>
<event>
 8    1  0.9956970E+004  0.1043930E+01  0.7957747E-01            NaN
         13   -1    0    0    0    0  0.00000000000E+00  0.00000000000E+00  0.74505805969E-08  0.10566000000E+00  0.10566000000E+00 0.  1.
     999900   -1    0    0    0    0 -0.00000000000E+00 -0.00000000000E+00 -0.74505805969E-08  0.93827000000E+00  0.93827000000E+00 0.  1.
     999902    2    1    2    0    0  0.75524653057E-02  0.33609026885E-02  0.22471967121E-01  0.10199858002E+01  0.10197047160E+01 0.  0.
     999903    2    3    3    0    0 -0.12497536142E+00 -0.23955564975E-01  0.14564871575E-01  0.12960816320E+00  0.19835080764E-01 0.  0.
         14    1    1    2    0    0 -0.75524653057E-02 -0.33609026885E-02 -0.22471967121E-01  0.23944199827E-01  0.00000000000E+00 0. -1.
     999901    1    3    3    0    0  0.13252782672E+00  0.27316467664E-01  0.79070955456E-02  0.89037763697E+00  0.88000000000E+00 0. -1.
        -11    1    4    4    0    0 -0.45175205212E-01 -0.12364649413E-01  0.14281771759E-01  0.48968498513E-01  0.51100000000E-03 0.  1.
         11    1    4    4    0    0 -0.79800156208E-01 -0.11590915562E-01  0.28309981601E-03  0.80639664687E-01  0.51100000000E-03 0. -1.
</event>
<event>
 8    1  0.9956970E+004  0.1043930E+01  0.7957747E-01            NaN
         13   -1    0    0    0    0  0.00000000000E+00  0.00000000000E+00  0.74505805969E-08  0.10566000000E+00  0.10566000000E+00 0.  1.
     999900   -1    0    0    0    0 -0.00000000000E+00 -0.00000000000E+00 -0.74505805969E-08  0.93827000000E+00  0.93827000000E+00 0.  1.
     999902    2    1    2    0    0 -0.20727805294E-01  0.91105781363E-02 -0.70842611662E-02  0.10202059341E+01  0.10199300548E+01 0.  0.
     999903    2    3    3    0    0 -0.53829117631E-01  0.67188968946E-01  0.97910895401E-01  0.13144681080E+00  0.16726899840E-01 0.  0.
         14    1    1    2    0    0  0.20727805294E-01 -0.91105781363E-02  0.70842611662E-02  0.23724065894E-01  0.00000000000E+00 0.  1.
     999901    1    3    3    0    0  0.33101312337E-01 -0.58078390810E-01 -0.10499515657E+00  0.88875912331E+00  0.88000000000E+00 0.  1.
        -11    1    4    4    0    0 -0.18961303633E-01  0.20483900399E-01  0.43639427278E-01  0.51805230867E-01  0.51100000000E-03 0. -1.
         11    1    4    4    0    0 -0.34867813998E-01  0.46705068547E-01  0.54271468123E-01  0.79641579933E-01  0.51100000000E-03 0.  1.
</event>
<event>
 8    1  0.9956970E+004  0.1043930E+01  0.7957747E-01            NaN
         13   -1    0    0    0    0  0.00000000000E+00  0.00000000000E+00  0.74505805969E-08  0.10566000000E+00  0.10566000000E+00 0. -1.
     999900   -1    0    0    0    0 -0.00000000000E+00 -0.00000000000E+00 -0.74505805969E-08  0.93827000000E+00  0.93827000000E+00 0. -1.
     999902    2    1    2    0    0 -0.36065650179E-02 -0.19365396312E-01  0.12905731700E-01  0.10203803971E+01  0.10201086075E+01 0.  0.
     999903    2    3    3    0    0  0.17674611807E-01 -0.75158053227E-01 -0.10345813400E+00  0.13071402240E+00  0.20529132821E-01 0.  0.
         14    1    1    2    0    0  0.36065650179E-02  0.19365396312E-01 -0.12905731700E-01  0.23549602889E-01  0.00000000000E+00 0.  1.
     999901    1    3    3    0    0 -0.21281176824E-01  0.55792656915E-01  0.11636386570E+00  0.88966637471E+00  0.88000000000E+00 0.  1.
        -11    1    4    4    0    0  0.21787610708E-01 -0.63616439617E-01 -0.82529493473E-01  0.10645717347E+00  0.51100000000E-03 0. -1.
         11    1    4    4    0    0 -0.41129989016E-02 -0.11541613610E-01 -0.20928640523E-01  0.24256848926E-01  0.51100000000E-03 0.  1.
</event>
<event>
 8    1  0.9956970E+004  0.1043930E+01  0.7957747E-01            NaN
         13   -1    0    0    0    0  0.00000000000E+00  0.00000000000E+00  0.74505805969E-08  0.10566000000E+00  0.10566000000E+00 0. -1.
     999900   -1    0    0    0    0 -0.00000000000E+00 -0.00000000000E+00 -0.74505805969E-08  0.93827000000E+00  0.93827000000E+00 0.  1.
     999902    2    1    2    0    0  0.17616006494E-01  0.51696341653E-02 -0.16406155427E-01  0.10193086528E+01  0.10190112457E+01 0.  0.
     999903    2    3    3    0    0  0.77251996980E-01 -0.46929238516E-02 -0.10592176431E+00  0.13270458917E+00  0.20029809278E-01 0.  0.
         14    1    1    2    0    0 -0.17616006494E-01 -0.51696341653E-02  0.16406155427E-01  0.24621347203E-01  0.00000000000E+00 0.  1.
     999901    1    3    3    0    0 -0.59635990486E-01  0.98625580169E-02  0.89515608883E-01  0.88660406363E+00  0.88000000000E+00 0. -1.
        -11    1    4    4    0    0  0.42889038084E-01  0.57177390395E-02 -0.48680632661E-01  0.65132382459E-01  0.51100000000E-03 0. -1.
         11    1    4    4    0    0  0.34362958896E-01 -0.10410662891E-01 -0.57241131649E-01  0.67572206708E-01  0.51100000000E-03 0.  1.
</event>
<event>
 8    1  0.9956970E+004  0.1043930E+01  0.7957747E-01            NaN
         13   -1    0    0    0    0  0.00000000000E+00  0.00000000000E+00  0.74505805969E-08  0.10566000000E+00  0.10566000000E+00 0.  1.
     999900   -1    0    0    0    0 -0.00000000000E+00 -0.00000000000E+00 -0.74505805969E-08  0.93827000000E+00  0.93827000000E+00 0. -1.
     999902    2    1    2    0    0 -0.20544310781E-01 -0.11250557969E-01 -0.52622830874E-02  0.10199230139E+01  0.10196404360E+01 0.  0.
     999903    2    3    3    0    0 -0.12894702018E+00  0.30826972005E-02  0.23773072258E-01  0.13268029540E+00  0.20051553205E-01 0.  0.
         14    1    1    2    0    0  0.20544310781E-01  0.11250557969E-01  0.52622830874E-02  0.24006986137E-01  0.00000000000E+00 0.  1.
     999901    1    3    3    0    0  0.10840270940E+00 -0.14333255170E-01 -0.29035355346E-01  0.88724271847E+00  0.88000000000E+00 0.  1.
        -11    1    4    4    0    0 -0.25031512577E-01  0.40264308748E-02 -0.25237734641E-02  0.25483706971E-01  0.51100000000E-03 0.  1.
         11    1    4    4    0    0 -0.10391550761E+00 -0.94373367423E-03  0.26296845722E-01  0.10719658843E+00  0.51100000000E-03 0. -1.
</event>
<event>
 8    1  0.9956970E+004  0.1043930E+01  0.7957747E-01            NaN
         13   -1    0    0    0    0  0.00000000000E+00  0.00000000000E+00  0.74505805969E-08  0.10566000000E+00  0.10566000000E+00 0. -1.
     999900   -1    0    0    0    0 -0.00000000000E+00 -0.00000000000E+00 -0.74505805969E-08  0.93827000000E+00  0.93827000000E+00 0.  1.
     999902    2    1    2    0    0  0.10350641436E-01 -0.21310702395E-01 -0.54473887682E-03  0.10202323513E+01  0.10199570932E+01 0.  0.
     999903    2    3    3    0    0 -0.64883362460E-01 -0.11302102588E+00 -0.49085223038E-02  0.13226276768E+00  0.22039580509E-01 0.  0.
         14    1    1    2    0    0 -0.10350641436E-01  0.21310702395E-01  0.54473887682E-03  0.23697648726E-01  0.00000000000E+00 0. -1.
     999901    1    3    3    0    0  0.75234003896E-01  0.91710323485E-01  0.43637834269E-02  0.88796958359E+00  0.88000000000E+00 0.  1.
        -11    1    4    4    0    0 -0.31727674218E-01 -0.73317992094E-01  0.29266650086E-02  0.79943728741E-01  0.51100000000E-03 0.  1.
         11    1    4    4    0    0 -0.33155688242E-01 -0.39703033787E-01 -0.78351873124E-02  0.52319038943E-01  0.51100000000E-03 0. -1.
</event>
<event>
 8    1  0.9956970E+004  0.1043930E+01  0.7957747E-01            NaN
         13   -1    0    0    0    0  0.00000000000E+00  0.00000000000E+00  0.74505805969E-08  0.10566000000E+00  0.10566000000E+00 0. -1.
     999900   -1    0    0    0    0 -0.00000000000E+00 -0.00000000000E+00 -0.74505805969E-08  0.93827000000E+00  0.93827000000E+00 0. -1.
     999902    2    1    2    0    0 -0.21242523377E-01  0.97164949731E-02 -0.29943851606E-02  0.10203795984E+01  0.10201077901E+01 0.  0.
     999903    2    3    3    0    0  0.12015755577E-01  0.14654422997E-01 -0.12785368405E+00  0.13093013901E+00  0.20904695188E-01 0.  0.
         14    1    1    2    0    0  0.21242523377E-01 -0.97164949731E-02  0.29943851606E-02  0.23550401620E-01  0.00000000000E+00 0. -1.
     999901    1    3    3    0    0 -0.33258278954E-01 -0.49379280241E-02  0.12485929889E+00  0.88944945937E+00  0.88000000000E+00 0.  1.
        -11    1    4    4    0    0  0.15715071526E-01  0.49712455897E-02 -0.96624811613E-01  0.98021896004E-01  0.51100000000E-03 0. -1.
         11    1    4    4    0    0 -0.36993159495E-02  0.96831774075E-02 -0.31228872436E-01  0.32908243007E-01  0.51100000000E-03 0.  1.
</event>
<event>
 8    1  0.9956970E+004  0.1043930E+01  0.7957747E-01            NaN
         13   -1    0    0    0    0  0.00000000000E+00  0.00000000000E+00  0.74505805969E-08  0.10566000000E+00  0.10566000000E+00 0. -1.
     999900   -1    0    0    0    0 -0.00000000000E+00 -0.00000000000E+00 -0.74505805969E-08  0.93827000000E+00  0.93827000000E+00 0. -1.
     999902    2    1    2    0    0  0.17998366365E-01  0.16288576221E-01 -0.36928782443E-02  0.10193760541E+01  0.10190802930E+01 0.  0.
     999903    2    3    3    0    0  0.71705806005E-01  0.85010903122E-01 -0.68630831527E-01  0.13268321835E+00  0.22936196945E-01 0.  0.
         14    1    1    2    0    0 -0.17998366365E-01 -0.16288576221E-01  0.36928782443E-02  0.24553945850E-01  0.00000000000E+00 0. -1.
     999901    1    3    3    0    0 -0.53707439640E-01 -0.68722326901E-01  0.64937953283E-01  0.88669283580E+00  0.88000000000E+00 0.  1.
        -11    1    4    4    0    0  0.42138396662E-01  0.47924555893E-01 -0.26008860327E-01  0.68913927963E-01  0.51100000000E-03 0. -1.
         11    1    4    4    0    0  0.29567409343E-01  0.37086347229E-01 -0.42621971200E-01  0.63769290384E-01  0.51100000000E-03 0.  1.
</event>
<event>
 8    1  0.9956970E+004  0.1043930E+01  0.7957747E-01            NaN
         13   -1    0    0    0    0  0.00000000000E+00  0.00000000000E+00  0.74505805969E-08  0.10566000000E+00  0.10566000000E+00 0. -1.
     999900   -1    0    0    0    0 -0.00000000000E+00 -0.00000000000E+00 -0.74505805969E-08  0.93827000000E+00  0.93827000000E+00 0.  1.
     999902    2    1    2    0    0 -0.20271609286E-01  0.89481657296E-02 -0.78249103498E-02  0.10204302759E+01  0.10201596497E+01 0.  0.
     999903    2    3    3    0    0 -0.11477488839E+00 -0.62169317031E-01 -0.13665409972E-01  0.13249859067E+00  0.18188845881E-01 0.  0.
         14    1    1    2    0    0  0.20271609286E-01 -0.89481657296E-02  0.78249103498E-02  0.23499724146E-01  0.00000000000E+00 0. -1.
     999901    1    3    3    0    0  0.94503279106E-01  0.71117482760E-01  0.58404996223E-02  0.88793168518E+00  0.88000000000E+00 0.  1.
        -11    1    4    4    0    0 -0.58791654973E-01 -0.34352234477E-01  0.17278387249E-02  0.68115939807E-01  0.51100000000E-03 0.  1.
         11    1    4    4    0    0 -0.55983233419E-01 -0.27817082553E-01 -0.15393248697E-01  0.64382650864E-01  0.51100000000E-03 0. -1.
</event>
<event>
 8    1  0.9956970E+004  0.1043930E+01  0.7957747E-01            NaN
         13   -1    0    0    0    0  0.00000000000E+00  0.00000000000E+00  0.74505805969E-08  0.10566000000E+00  0.10566000000E+00 0. -1.
     999900   -1    0    0    0    0 -0.00000000000E+00 -0.00000000000E+00 -0.74505805969E-08  0.93827000000E+00  0.93827000000E+00 0. -1.
     999902    2    1    2    0    0 -0.25851382257E-01  0.47875529193E-02 -0.15227948757E-01  0.10135473561E+01  0.10130918705E+01 0.  0.
     999903    2    3    3    0    0  0.22399193459E-01 -0.12215122519E-01  0.11776758808E+00  0.12208506197E+00  0.19611845069E-01 0.  0.
         14    1    1    2    0    0  0.25851382257E-01 -0.47875529193E-02  0.15227948757E-01  0.30382643909E-01  0.00000000000E+00 0. -1.
     999901    1    3    3    0    0 -0.48250575715E-01  0.17002675439E-01 -0.13299553684E+00  0.89146229413E+00  0.88000000000E+00 0. -1.
        -11    1    4    4    0    0  0.42930997839E-02 -0.94825038936E-02  0.19357565191E-01  0.21984654579E-01  0.51100000000E-03 0. -1.
         11    1    4    4    0    0  0.18106093675E-01 -0.27326186257E-02  0.98410022890E-01  0.10010040739E+00  0.51100000000E-03 0.  1.
</event>
<event>
 8    1  0.9956970E+004  0.1043930E+01  0.7957747E-01            NaN
         13   -1    0    0    0    0  0.00000000000E+00  0.00000000000E+00  0.74505805969E-08  0.10566000000E+00  0.10566000000E+00 0.  1.
     999900   -1    0    0    0    0 -0.00000000000E+00 -0.00000000000E+00 -0.74505805969E-08  0.93827000000E+00  0.93827000000E+00 0.  1.
     999902    2    1    2    0    0  0.18820379060E-01  0.32542557181E-02  0.13727023509E-01  0.10204092002E+01  0.10201380827E+01 0.  0.
     999903    2    3    3    0    0  0.73046686132E-01 -0.10665189482E+00 -0.13559410758E-01  0.13149727893E+00  0.19930672899E-01 0.  0.
         14    1    1    2    0    0 -0.18820379060E-01 -0.32542557181E-02 -0.13727023509E-01  0.23520799788E-01  0.00000000000E+00 0. -1.
     999901    1    3    3    0    0 -0.54226307071E-01  0.10990615054E+00  0.27286434267E-01  0.88891192128E+00  0.88000000000E+00 0. -1.
        -11    1    4    4    0    0  0.36547263171E-01 -0.36181377572E-01 -0.57466794397E-02  0.51750168830E-01  0.51100000000E-03 0. -1.
         11    1    4    4    0    0  0.36499422961E-01 -0.70470517247E-01 -0.78127313179E-02  0.79747110099E-01  0.51100000000E-03 0.  1.
</event>
<event>
 7    1  0.9956970E+004  0.1043930E+01  0.7957747E-01            NaN
         13   -1    0    0    0    0  0.00000000000E+00  0.00000000000E+00  0.74505805969E-08  0.10566000000E+00  0.10566000000E+00 0.  1.
     999900   -1    0    0    0    0 -0.00000000000E+00 -0.00000000000E+00 -0.74505805969E-08  0.93827000000E+00  0.93827000000E+00 0. -1.
     999903    2    1    2    0    0  0.69923242698E-01  0.48511333315E-01  0.10890764011E-01  0.88448552674E-01  0.21492519628E-01 0.  0.
         14    1    1    2    0    0 -0.62909413127E-01 -0.41489510973E-01 -0.73210546589E-04  0.75359001722E-01  0.00000000000E+00 0. -1.
     999901    1    1    2    0    0 -0.70138295710E-02 -0.70218223424E-02 -0.10817553465E-01  0.88012244560E+00  0.88000000000E+00 0. -1.
        -11    1    3    3    0    0  0.25631641457E-01  0.30728387964E-01  0.60420229529E-02  0.40471990722E-01  0.51100000000E-03 0. -1.
         11    1    3    3    0    0  0.44291601241E-01  0.17782945351E-01  0.48487410585E-02  0.47976561952E-01  0.51100000000E-03 0.  1.
</event>
<event>
 8    1  0.9956970E+004  0.1043930E+01  0.7957747E-01            NaN
         13   -1    0    0    0    0  0.00000000000E+00  0.00000000000E+00  0.74505805969E-08  0.10566000000E+00  0.10566000000E+00 0.  1.
     999900   -1    0    0    0    0 -0.00000000000E+00 -0.00000000000E+00 -0.74505805969E-08  0.93827000000E+00  0.93827000000E+00 0.  1.
     999902    2    1    2    0    0  0.24462896320E-01  0.13271071143E-02  0.31027865049E-02  0.10192354299E+01  0.10189362295E+01 0.  0.
     999903    2    3    3    0    0  0.50026096660E-01  0.83772370691E-01 -0.84684907790E-01  0.13066501738E+00  0.19529278533E-01 0.  0.
         14    1    1    2    0    0 -0.24462896320E-01 -0.13271071143E-02 -0.31027865049E-02  0.24694570126E-01  0.00000000000E+00 0.  1.
     999901    1    3    3    0    0 -0.25563200340E-01 -0.82445263576E-01  0.87787694295E-01  0.88857041250E+00  0.88000000000E+00 0. -1.
        -11    1    4    4    0    0  0.48310434042E-01  0.80809437793E-01 -0.74973596634E-01  0.12035516020E+00  0.51100000000E-03 0. -1.
         11    1    4    4    0    0  0.17156626178E-02  0.29629328978E-02 -0.97113111568E-02  0.10309857175E-01  0.51100000000E-03 0.  1.
</event>
<event>
 8    1  0.9956970E+004  0.1043930E+01  0.7957747E-01            NaN
         13   -1    0    0    0    0  0.00000000000E+00  0.00000000000E+00  0.74505805969E-08  0.10566000000E+00  0.10566000000E+00 0. -1.
     999900   -1    0    0    0    0 -0.00000000000E+00 -0.00000000000E+00 -0.74505805969E-08  0.93827000000E+00  0.93827000000E+00 0.  1.
     999902    2    1    2    0    0  0.11839149752E-01  0.80385583060E-02 -0.18658834691E-01  0.10204154088E+01  0.10201444361E+01 0.  0.
     999903    2    3    3    0    0 -0.50321262323E-01 -0.77834933633E-01  0.85900984827E-01  0.12790718515E+00  0.19767713179E-01 0.  0.
         14    1    1    2    0    0 -0.11839149752E-01 -0.80385583060E-02  0.18658834691E-01  0.23514591184E-01  0.00000000000E+00 0. -1.
     999901    1    3    3    0    0  0.62160412076E-01  0.85873491939E-01 -0.10455981952E+00  0.89250822366E+00  0.88000000000E+00 0.  1.
        -11    1    4    4    0    0 -0.20118372544E-01 -0.38334397872E-01  0.27895696037E-01  0.51504426532E-01  0.51100000000E-03 0. -1.
         11    1    4    4    0    0 -0.30202889779E-01 -0.39500535761E-01  0.58005288790E-01  0.76402758622E-01  0.51100000000E-03 0.  1.
</event>
<event>
 8    1  0.9956970E+004  0.1043930E+01  0.7957747E-01            NaN
         13   -1    0    0    0    0  0.00000000000E+00  0.00000000000E+00  0.74505805969E-08  0.10566000000E+00  0.10566000000E+00 0.  1.
     999900   -1    0    0    0    0 -0.00000000000E+00 -0.00000000000E+00 -0.74505805969E-08  0.93827000000E+00  0.93827000000E+00 0.  1.
     999902    2    1    2    0    0 -0.20631562075E-02  0.23432031036E-01 -0.53064224612E-03  0.10204013308E+01  0.10201300298E+01 0.  0.
     999903    2    3    3    0    0 -0.39968534219E-01  0.10040968846E+00 -0.74967098494E-01  0.13310027513E+00  0.20396767354E-01 0.  0.
         14    1    1    2    0    0  0.20631562075E-02 -0.23432031036E-01  0.53064224612E-03  0.23528669176E-01  0.00000000000E+00 0. -1.
     999901    1    3    3    0    0  0.37905378012E-01 -0.76977657420E-01  0.74436456248E-01  0.88730105570E+00  0.88000000000E+00 0.  1.
        -11    1    4    4    0    0 -0.88645344836E-02  0.49464409424E-01 -0.35891940581E-01  0.61755973727E-01  0.51100000000E-03 0. -1.
         11    1    4    4    0    0 -0.31103999736E-01  0.50945279032E-01 -0.39075157913E-01  0.71344301399E-01  0.51100000000E-03 0.  1.
</event>
<event>
 8    1  0.9956970E+004  0.1043930E+01  0.7957747E-01            NaN
         13   -1    0    0    0    0  0.00000000000E+00  0.00000000000E+00  0.74505805969E-08  0.10566000000E+00  0.10566000000E+00 0.  1.
     999900   -1    0    0    0    0 -0.00000000000E+00 -0.00000000000E+00 -0.74505805969E-08  0.93827000000E+00  0.93827000000E+00 0.  1.
     999902    2    1    2    0    0  0.66154845635E-02 -0.15925128919E-01 -0.15175380961E-01  0.10209590062E+01  0.10207005564E+01 0.  0.
     999903    2    3    3    0    0 -0.19783640648E-01 -0.30280252288E-01  0.12315326398E+00  0.12964660456E+00  0.18254575577E-01 0.  0.
         14    1    1    2    0    0 -0.66154845635E-02  0.15925128919E-01  0.15175380961E-01  0.22970993762E-01  0.00000000000E+00 0.  1.
     999901    1    3    3    0    0  0.26399125212E-01  0.14355123369E-01 -0.13832864494E+00  0.89131240168E+00  0.88000000000E+00 0.  1.
        -11    1    4    4    0    0 -0.12025704247E-01 -0.21971127763E-01  0.53562682808E-01  0.59131803020E-01  0.51100000000E-03 0.  1.
         11    1    4    4    0    0 -0.77579364010E-02 -0.83091245245E-02  0.69590581169E-01  0.70514801538E-01  0.51100000000E-03 0. -1.
</event>
<event>
 8    1  0.9956970E+004  0.1043930E+01  0.7957747E-01            NaN
         13   -1    0    0    0    0  0.00000000000E+00  0.00000000000E+00  0.74505805969E-08  0.10566000000E+00  0.10566000000E+00 0. -1.
     999900   -1    0    0    0    0 -0.00000000000E+00 -0.00000000000E+00 -0.74505805969E-08  0.93827000000E+00  0.93827000000E+00 0.  1.
     999902    2    1    2    0    0  0.23045192260E-02  0.21086108043E-01 -0.96001217370E-02  0.10206470213E+01  0.10203814213E+01 0.  0.
     999903    2    3    3    0    0  0.12346103836E+00  0.32703328124E-01 -0.27843957916E-01  0.13208261759E+00  0.18931355248E-01 0.  0.
         14    1    1    2    0    0 -0.23045192260E-02 -0.21086108043E-01  0.96001217370E-02  0.23282978732E-01  0.00000000000E+00 0.  1.
     999901    1    3    3    0    0 -0.12115651914E+00 -0.11617220082E-01  0.18243836179E-01  0.88856440368E+00  0.88000000000E+00 0.  1.
        -11    1    4    4    0    0  0.54883234424E-01  0.24239038418E-01 -0.13933468456E-01  0.61596291029E-01  0.51100000000E-03 0. -1.
         11    1    4    4    0    0  0.68577803941E-01  0.84642897062E-02 -0.13910489459E-01  0.70486326558E-01  0.51100000000E-03 0.  1.
</event>
<event>
 8    1  0.9956970E+004  0.1043930E+01  0.7957747E-01            NaN
         13   -1    0    0    0    0  0.00000000000E+00  0.00000000000E+00  0.74505805969E-08  0.10566000000E+00  0.10566000000E+00 0.  1.
     999900   -1    0    0    0    0 -0.00000000000E+00 -0.00000000000E+00 -0.74505805969E-08  0.93827000000E+00  0.93827000000E+00 0. -1.
     999902    2    1    2    0    0  0.15960853206E-01 -0.15205280946E-01  0.10900175724E-01  0.10193380657E+01  0.10190413774E+01 0.  0.
     999903    2    3    3    0    0 -0.13957099101E-01 -0.98828746249E-01  0.83724850922E-01  0.13187460098E+00  0.20472860626E-01 0.  0.
         14    1    1    2    0    0 -0.15960853206E-01  0.15205280946E-01 -0.10900175724E-01  0.24591934339E-01  0.00000000000E+00 0. -1.
     999901    1    3    3    0    0  0.29917952307E-01  0.83623465304E-01 -0.72824675198E-01  0.88746346468E+00  0.88000000000E+00 0. -1.
        -11    1    4    4    0    0 -0.11359037662E-01 -0.69713431976E-01  0.46605357505E-01  0.84624528380E-01  0.51100000000E-03 0.  1.
         11    1    4    4    0    0 -0.25980614387E-02 -0.29115314273E-01  0.37119493417E-01  0.47250072603E-01  0.51100000000E-03 0. -1.
</event>
<event>
 8    1  0.9956970E+004  0.1043930E+01  0.7957747E-01            NaN
         13   -1    0    0    0    0  0.00000000000E+00  0.00000000000E+00  0.74505805969E-08  0.10566000000E+00  0.10566000000E+00 0.  1.
     999900   -1    0    0    0    0 -0.00000000000E+00 -0.00000000000E+00 -0.74505805969E-08  0.93827000000E+00  0.93827000000E+00 0.  1.
     999902    2    1    2    0    0 -0.17558982431E-01  0.69104909231E-02  0.14111961516E-01  0.10203668889E+01  0.10200947837E+01 0.  0.
     999903    2    3    3    0    0 -0.54665246411E-01 -0.11694628015E+00 -0.27820958702E-02  0.13075866962E+00  0.20624451939E-01 0.  0.
         14    1    1    2    0    0  0.17558982431E-01 -0.69104909231E-02 -0.14111961516E-01  0.23563111141E-01  0.00000000000E+00 0. -1.
     999901    1    3    3    0    0  0.37106263981E-01  0.12385677107E+00  0.16894057386E-01  0.88960821924E+00  0.88000000000E+00 0. -1.
        -11    1    4    4    0    0 -0.84101421857E-02 -0.14610538661E-01  0.64902404010E-02  0.18071598519E-01  0.51100000000E-03 0.  1.
         11    1    4    4    0    0 -0.46255104226E-01 -0.10233574148E+00 -0.92723362712E-02  0.11268707110E+00  0.51100000000E-03 0. -1.
</event>
<event>
 8    1  0.1123857E+005  0.1043930E+01  0.7957747E-01            NaN
         13   -1    0    0    0    0  0.00000000000E+00  0.00000000000E+00  0.74505805969E-08  0.10566000000E+00  0.10566000000E+00 0.  1.
     999900   -1    0    0    0    0 -0.00000000000E+00 -0.00000000000E+00 -0.74505805969E-08  0.93827000000E+00  0.93827000000E+00 0. -1.
     999902    2    1    2    0    0  0.24880408864E-02  0.15981416435E-01 -0.25041459717E-01  0.10141194193E+01  0.10136811756E+01 0.  0.
     999903    2    3    3    0    0  0.25905977691E-01  0.10598779460E+00 -0.64565497980E-01  0.12833632083E+00  0.19924242322E-01 0.  0.
         14    1    1    2    0    0 -0.24880408864E-02 -0.15981416435E-01  0.25041459717E-01  0.29810580730E-01  0.00000000000E+00 0.  1.
     999901    1    3    3    0    0 -0.23417936805E-01 -0.90006378162E-01  0.39524038263E-01  0.88578309844E+00  0.88000000000E+00 0. -1.
        -11    1    4    4    0    0  0.86366245840E-02  0.64406434601E-01 -0.30022091384E-01  0.71584685473E-01  0.51100000000E-03 0. -1.
         11    1    4    4    0    0  0.17269353107E-01  0.41581359996E-01 -0.34543406596E-01  0.56751635361E-01  0.51100000000E-03 0.  1.
</event>
<event>
 8    1  0.9956970E+004  0.1043930E+01  0.7957747E-01            NaN
         13   -1    0    0    0    0  0.00000000000E+00  0.00000000000E+00  0.74505805969E-08  0.10566000000E+00  0.10566000000E+00 0.  1.
     999900   -1    0    0    0    0 -0.00000000000E+00 -0.00000000000E+00 -0.74505805969E-08  0.93827000000E+00  0.93827000000E+00 0. -1.
     999902    2    1    2    0    0  0.20060295324E-01  0.21127598278E-02  0.13911882673E-01  0.10194265373E+01  0.10191320059E+01 0.  0.
     999903    2    3    3    0    0 -0.14869811999E-01  0.11110197890E+00  0.63280763884E-01  0.13064307176E+00  0.22324786555E-01 0.  0.
         14    1    1    2    0    0 -0.20060295324E-01 -0.21127598278E-02 -0.13911882673E-01  0.24503462655E-01  0.00000000000E+00 0. -1.
     999901    1    3    3    0    0  0.34930107323E-01 -0.10898921908E+00 -0.49368881211E-01  0.88878346559E+00  0.88000000000E+00 0.  1.
        -11    1    4    4    0    0 -0.67542256690E-02  0.86005892465E-01  0.38587498300E-01  0.94508672878E-01  0.51100000000E-03 0. -1.
         11    1    4    4    0    0 -0.81155863300E-02  0.25096086438E-01  0.24693265584E-01  0.36134398877E-01  0.51100000000E-03 0.  1.
</event>
<event>
 8    1  0.9956970E+004  0.1043930E+01  0.7957747E-01            NaN
         13   -1    0    0    0    0  0.00000000000E+00  0.00000000000E+00  0.74505805969E-08  0.10566000000E+00  0.10566000000E+00 0. -1.
     999900   -1    0    0    0    0 -0.00000000000E+00 -0.00000000000E+00 -0.74505805969E-08  0.93827000000E+00  0.93827000000E+00 0. -1.
     999902    2    1    2    0    0  0.11865837210E-03 -0.12043023434E-01 -0.20151367898E-01  0.10204539245E+01  0.10201838491E+01 0.  0.
     999903    2    3    3    0    0 -0.87592500359E-01 -0.41257893114E-01  0.84459777101E-01  0.12944873503E+00  0.15775334886E-01 0.  0.
         14    1    1    2    0    0 -0.11865837210E-03  0.12043023434E-01  0.20151367898E-01  0.23476075511E-01  0.00000000000E+00 0. -1.
     999901    1    3    3    0    0  0.87711158731E-01  0.29214869680E-01 -0.10461114500E+00  0.89100518945E+00  0.88000000000E+00 0.  1.
        -11    1    4    4    0    0 -0.30967760171E-01 -0.11407598238E-01  0.38118053993E-01  0.50422045067E-01  0.51100000000E-03 0.  1.
         11    1    4    4    0    0 -0.56624740188E-01 -0.29850294876E-01  0.46341723108E-01  0.79026689967E-01  0.51100000000E-03 0. -1.
</event>
<event>
 8    1  0.9956970E+004  0.1043930E+01  0.7957747E-01            NaN
         13   -1    0    0    0    0  0.00000000000E+00  0.00000000000E+00  0.74505805969E-08  0.10566000000E+00  0.10566000000E+00 0. -1.
     999900   -1    0    0    0    0 -0.00000000000E+00 -0.00000000000E+00 -0.74505805969E-08  0.93827000000E+00  0.93827000000E+00 0.  1.
     999902    2    1    2    0    0 -0.30987797836E-01 -0.48277836917E-02 -0.16824323117E-01  0.10083405499E+01  0.10077122881E+01 0.  0.
     999903    2    3    3    0    0  0.32414912443E-01 -0.50698884602E-01  0.98914937059E-01  0.11731886783E+00  0.18932736927E-01 0.  0.
         14    1    1    2    0    0  0.30987797836E-01  0.48277836917E-02  0.16824323117E-01  0.35589450100E-01  0.00000000000E+00 0. -1.
     999901    1    3    3    0    0 -0.63402710278E-01  0.45871100910E-01 -0.11573926018E+00  0.89102168207E+00  0.88000000000E+00 0.  1.
        -11    1    4    4    0    0  0.16498241924E-01 -0.38200884987E-01  0.76713361826E-01  0.87273710841E-01  0.51100000000E-03 0. -1.
         11    1    4    4    0    0  0.15916670519E-01 -0.12497999615E-01  0.22201575233E-01  0.30045156991E-01  0.51100000000E-03 0.  1.
</event>
<event>
 8    1  0.9956970E+004  0.1043930E+01  0.7957747E-01            NaN
         13   -1    0    0    0    0  0.00000000000E+00  0.00000000000E+00  0.74505805969E-08  0.10566000000E+00  0.10566000000E+00 0. -1.
     999900   -1    0    0    0    0 -0.00000000000E+00 -0.00000000000E+00 -0.74505805969E-08  0.93827000000E+00  0.93827000000E+00 0. -1.
     999902    2    1    2    0    0  0.12373384194E-01  0.11789810783E-01 -0.13848087177E-01  0.10219329594E+01  0.10216961896E+01 0.  0.
     999903    2    3    3    0    0  0.34011351856E-01 -0.12390403620E+00  0.14121769401E-01  0.13083064510E+00  0.20205224221E-01 0.  0.
         14    1    1    2    0    0 -0.12373384194E-01 -0.11789810783E-01  0.13848087177E-01  0.21997040555E-01  0.00000000000E+00 0. -1.
     999901    1    3    3    0    0 -0.21637967662E-01  0.13569384698E+00 -0.27969856578E-01  0.89110231434E+00  0.88000000000E+00 0. -1.
        -11    1    4    4    0    0 -0.23218895650E-03 -0.81996265361E-02  0.54320612042E-02  0.98517103576E-02  0.51100000000E-03 0. -1.
         11    1    4    4    0    0  0.34243540813E-01 -0.11570440966E+00  0.86897081972E-02  0.12097893474E+00  0.51100000000E-03 0.  1.
</event>
<event>
 8    1  0.9956970E+004  0.1043930E+01  0.7957747E-01            NaN
         13   -1    0    0    0    0  0.00000000000E+00  0.00000000000E+00  0.74505805969E-08  0.10566000000E+00  0.10566000000E+00 0. -1.
     999900   -1    0    0    0    0 -0.00000000000E+00 -0.00000000000E+00 -0.74505805969E-08  0.93827000000E+00  0.93827000000E+00 0. -1.
     999902    2    1    2    0    0  0.21375507562E-01  0.36072928756E-02 -0.17010772099E-01  0.10163747600E+01  0.10160011621E+01 0.  0.
     999903    2    3    3    0    0 -0.10964270577E+00  0.55111066136E-01 -0.13956602244E-01  0.12518020274E+00  0.20409406479E-01 0.  0.
         14    1    1    2    0    0 -0.21375507562E-01 -0.36072928756E-02  0.17010772099E-01  0.27555240025E-01  0.00000000000E+00 0. -1.
     999901    1    3    3    0    0  0.13101821334E+00 -0.51503773260E-01 -0.30541698558E-02  0.89119455723E+00  0.88000000000E+00 0.  1.
        -11    1    4    4    0    0 -0.36333957883E-01  0.21470174245E-01 -0.14162613294E-01  0.44519272387E-01  0.51100000000E-03 0. -1.
         11    1    4    4    0    0 -0.73308747890E-01  0.33640891891E-01  0.20601105000E-03  0.80660930357E-01  0.51100000000E-03 0.  1.
</event>
<event>
 8    1  0.9956970E+004  0.1043930E+01  0.7957747E-01            NaN
         13   -1    0    0    0    0  0.00000000000E+00  0.00000000000E+00  0.74505805969E-08  0.10566000000E+00  0.10566000000E+00 0.  1.
     999900   -1    0    0    0    0 -0.00000000000E+00 -0.00000000000E+00 -0.74505805969E-08  0.93827000000E+00  0.93827000000E+00 0.  1.
     999902    2    1    2    0    0  0.11812707635E-02 -0.13720871132E-01 -0.19707387756E-01  0.10198875617E+01  0.10196041388E+01 0.  0.
     999903    2    3    3    0    0 -0.31761860701E-01 -0.34339889983E-01  0.11780554111E+00  0.12836066958E+00  0.20255175571E-01 0.  0.
         14    1    1    2    0    0 -0.11812707635E-02  0.13720871132E-01  0.19707387756E-01  0.24042438259E-01  0.00000000000E+00 0.  1.
     999901    1    3    3    0    0  0.32943131465E-01  0.20619018851E-01 -0.13751292887E+00  0.89152689217E+00  0.88000000000E+00 0. -1.
        -11    1    4    4    0    0 -0.15035797291E-01 -0.45312107446E-02  0.25775804687E-01  0.30187088287E-01  0.51100000000E-03 0.  1.
         11    1    4    4    0    0 -0.16726063410E-01 -0.29808679239E-01  0.92029736427E-01  0.98173581288E-01  0.51100000000E-03 0. -1.
</event>
<event>
 8    1  0.9956970E+004  0.1043930E+01  0.7957747E-01            NaN
         13   -1    0    0    0    0  0.00000000000E+00  0.00000000000E+00  0.74505805969E-08  0.10566000000E+00  0.10566000000E+00 0. -1.
     999900   -1    0    0    0    0 -0.00000000000E+00 -0.00000000000E+00 -0.74505805969E-08  0.93827000000E+00  0.93827000000E+00 0. -1.
     999902    2    1    2    0    0  0.83423209297E-03 -0.17130671327E-01  0.15972510486E-01  0.10204933421E+01  0.10202241833E+01 0.  0.
     999903    2    3    3    0    0 -0.43954919303E-01 -0.34002465142E-01  0.11750667315E+00  0.13336318720E+00  0.29828156146E-01 0.  0.
         14    1    1    2    0    0 -0.83423209297E-03  0.17130671327E-01 -0.15972510486E-01  0.23436657921E-01  0.00000000000E+00 0.  1.
     999901    1    3    3    0    0  0.44789151396E-01  0.16871793814E-01 -0.10153416266E+00  0.88713015488E+00  0.88000000000E+00 0. -1.
        -11    1    4    4    0    0 -0.22918748856E-01 -0.34856186821E-01  0.71854267426E-01  0.83087421895E-01  0.51100000000E-03 0.  1.
         11    1    4    4    0    0 -0.21036170447E-01  0.85372167905E-03  0.45652405721E-01  0.50275765304E-01  0.51100000000E-03 0. -1.
</event>
<event>
 8    1  0.9956970E+004  0.1043930E+01  0.7957747E-01            NaN
         13   -1    0    0    0    0  0.00000000000E+00  0.00000000000E+00  0.74505805969E-08  0.10566000000E+00  0.10566000000E+00 0. -1.
     999900   -1    0    0    0    0 -0.00000000000E+00 -0.00000000000E+00 -0.74505805969E-08  0.93827000000E+00  0.93827000000E+00 0.  1.
     999902    2    1    2    0    0  0.15677911027E-01  0.89471330824E-02 -0.14513703995E-01  0.10207676234E+01  0.10205047993E+01 0.  0.
     999903    2    3    3    0    0  0.38093321133E-01 -0.65428198302E-01  0.10224669340E+00  0.12966317898E+00  0.25024056882E-01 0.  0.
         14    1    1    2    0    0 -0.15677911027E-01 -0.89471330824E-02  0.14513703995E-01  0.23162376566E-01  0.00000000000E+00 0. -1.
     999901    1    3    3    0    0 -0.22415410106E-01  0.74375331384E-01 -0.11676039740E+00  0.89110444446E+00  0.88000000000E+00 0.  1.
        -11    1    4    4    0    0  0.22859795585E-01 -0.48078906632E-01  0.86977824660E-01  0.10197820660E+00  0.51100000000E-03 0. -1.
         11    1    4    4    0    0  0.15233525547E-01 -0.17349291669E-01  0.15268868743E-01  0.27684972381E-01  0.51100000000E-03 0.  1.
</event>
<event>
 8    1  0.9956970E+004  0.1043930E+01  0.7957747E-01            NaN
         13   -1    0    0    0    0  0.00000000000E+00  0.00000000000E+00  0.74505805969E-08  0.10566000000E+00  0.10566000000E+00 0.  1.
     999900   -1    0    0    0    0 -0.00000000000E+00 -0.00000000000E+00 -0.74505805969E-08  0.93827000000E+00  0.93827000000E+00 0. -1.
     999902    2    1    2    0    0 -0.14900612953E-01 -0.15868850389E-02 -0.18597309296E-01  0.10200468180E+01  0.10197671815E+01 0.  0.
     999903    2    3    3    0    0 -0.12558591442E+00  0.35785324937E-01  0.37685178448E-03  0.13212343343E+00  0.20100951785E-01 0.  0.
         14    1    1    2    0    0  0.14900612953E-01  0.15868850389E-02  0.18597309296E-01  0.23883182023E-01  0.00000000000E+00 0.  1.
     999901    1    3    3    0    0  0.11068530147E+00 -0.37372209976E-01 -0.18974161080E-01  0.88792338455E+00  0.88000000000E+00 0.  1.
        -11    1    4    4    0    0 -0.10420787220E+00  0.24591214435E-01  0.63465525799E-02  0.10725925744E+00  0.51100000000E-03 0.  1.
         11    1    4    4    0    0 -0.21378042214E-01  0.11194110502E-01 -0.59697007955E-02  0.24864175986E-01  0.51100000000E-03 0. -1.
</event>
<event>
 8    1  0.9956970E+004  0.1043930E+01  0.7957747E-01            NaN
         13   -1    0    0    0    0  0.00000000000E+00  0.00000000000E+00  0.74505805969E-08  0.10566000000E+00  0.10566000000E+00 0. -1.
     999900   -1    0    0    0    0 -0.00000000000E+00 -0.00000000000E+00 -0.74505805969E-08  0.93827000000E+00  0.93827000000E+00 0. -1.
     999902    2    1    2    0    0  0.21559862879E-01  0.78904146492E-02  0.38799758852E-02  0.10206460883E+01  0.10203804668E+01 0.  0.
     999903    2    3    3    0    0  0.71551684909E-02  0.78834943445E-01  0.10369492649E+00  0.13204964124E+00  0.20453000455E-01 0.  0.
         14    1    1    2    0    0 -0.21559862879E-01 -0.78904146492E-02 -0.38799758852E-02  0.23283911690E-01  0.00000000000E+00 0. -1.
     999901    1    3    3    0    0  0.14404694388E-01 -0.70944528795E-01 -0.99814950603E-01  0.88859644707E+00  0.88000000000E+00 0. -1.
        -11    1    4    4    0    0 -0.16661467448E-02  0.62430686333E-01  0.72283278732E-01  0.95527483722E-01  0.51100000000E-03 0.  1.
         11    1    4    4    0    0  0.88213152357E-02  0.16404257112E-01  0.31411647756E-01  0.36522157516E-01  0.51100000000E-03 0. -1.
</event>
<event>
 8    1  0.9956970E+004  0.1043930E+01  0.7957747E-01            NaN
         13   -1    0    0    0    0  0.00000000000E+00  0.00000000000E+00  0.74505805969E-08  0.10566000000E+00  0.10566000000E+00 0. -1.
     999900   -1    0    0    0    0 -0.00000000000E+00 -0.00000000000E+00 -0.74505805969E-08  0.93827000000E+00  0.93827000000E+00 0.  1.
     999902    2    1    2    0    0  0.11047463597E-01 -0.14140271334E-01  0.15941169158E-01  0.10199276126E+01  0.10196451444E+01 0.  0.
     999903    2    3    3    0    0 -0.18561238663E-01  0.12278159624E+00 -0.23689714219E-01  0.12796635787E+00  0.19858152782E-01 0.  0.
         14    1    1    2    0    0 -0.11047463597E-01  0.14140271334E-01 -0.15941169158E-01  0.24002387370E-01  0.00000000000E+00 0.  1.
     999901    1    3    3    0    0  0.29608702261E-01 -0.13692186757E+00  0.39630883377E-01  0.89196125476E+00  0.88000000000E+00 0. -1.
        -11    1    4    4    0    0 -0.11899146402E-01  0.10963644339E+00 -0.25259279800E-01  0.11313722527E+00  0.51100000000E-03 0.  1.
         11    1    4    4    0    0 -0.66620922615E-02  0.13145152851E-01  0.15695655810E-02  0.14829132607E-01  0.51100000000E-03 0. -1.
</event>
<event>
 8    1  0.9956970E+004  0.1043930E+01  0.7957747E-01            NaN
         13   -1    0    0    0    0  0.00000000000E+00  0.00000000000E+00  0.74505805969E-08  0.10566000000E+00  0.10566000000E+00 0. -1.
     999900   -1    0    0    0    0 -0.00000000000E+00 -0.00000000000E+00 -0.74505805969E-08  0.93827000000E+00  0.93827000000E+00 0.  1.
     999902    2    1    2    0    0 -0.22685789928E-01 -0.31046674869E-02  0.57733752499E-02  0.10203161082E+01  0.10200428151E+01 0.  0.
     999903    2    3    3    0    0 -0.60598243298E-02  0.76508040024E-01  0.10441751291E+00  0.13107751713E+00  0.19700173460E-01 0.  0.
         14    1    1    2    0    0  0.22685789928E-01  0.31046674869E-02 -0.57733752499E-02  0.23613891814E-01  0.00000000000E+00 0.  1.
     999901    1    3    3    0    0 -0.16625965598E-01 -0.79612707511E-01 -0.98644137664E-01  0.88923859106E+00  0.88000000000E+00 0.  1.
        -11    1    4    4    0    0  0.50311299688E-02  0.46064576844E-01  0.68495373805E-01  0.82699062040E-01  0.51100000000E-03 0. -1.
         11    1    4    4    0    0 -0.11090954299E-01  0.30443463181E-01  0.35922139108E-01  0.48378455089E-01  0.51100000000E-03 0.  1.
</event>
<event>
 8    1  0.9956970E+004  0.1043930E+01  0.7957747E-01            NaN
         13   -1    0    0    0    0  0.00000000000E+00  0.00000000000E+00  0.74505805969E-08  0.10566000000E+00  0.10566000000E+00 0.  1.
     999900   -1    0    0    0    0 -0.00000000000E+00 -0.00000000000E+00 -0.74505805969E-08  0.93827000000E+00  0.93827000000E+00 0.  1.
     999902    2    1    2    0    0  0.49172313989E-02  0.19895955586E-01 -0.11776429412E-01  0.10202928999E+01  0.10200190631E+01 0.  0.
     999903    2    3    3    0    0 -0.12626133960E+00  0.89494364292E-02  0.21300940950E-01  0.12988751117E+00  0.19875039214E-01 0.  0.
         14    1    1    2    0    0 -0.49172313989E-02 -0.19895955586E-01  0.11776429412E-01  0.23637100140E-01  0.00000000000E+00 0. -1.
     999901    1    3    3    0    0  0.13117857100E+00  0.10946519157E-01 -0.33077370362E-01  0.89040538869E+00  0.88000000000E+00 0.  1.
        -11    1    4    4    0    0 -0.85703531843E-01  0.15237907135E-01  0.15874762399E-01  0.88484791837E-01  0.51100000000E-03 0.  1.
         11    1    4    4    0    0 -0.40557807757E-01 -0.62884707058E-02  0.54261785509E-02  0.41402719337E-01  0.51100000000E-03 0. -1.
</event>
<event>
 8    1  0.1360055E+005  0.1043930E+01  0.7957747E-01            NaN
         13   -1    0    0    0    0  0.00000000000E+00  0.00000000000E+00  0.74505805969E-08  0.10566000000E+00  0.10566000000E+00 0. -1.
     999900   -1    0    0    0    0 -0.00000000000E+00 -0.00000000000E+00 -0.74505805969E-08  0.93827000000E+00  0.93827000000E+00 0. -1.
     999902    2    1    2    0    0  0.16075385734E-01  0.22789577535E-01 -0.52842016710E-02  0.10155450452E+01  0.10151482814E+01 0.  0.
     999903    2    3    3    0    0  0.11010511488E-01  0.71313656849E-01 -0.10467659141E+00  0.12860700546E+00  0.19383086687E-01 0.  0.
         14    1    1    2    0    0 -0.16075385734E-01 -0.22789577535E-01  0.52842016710E-02  0.28384954782E-01  0.00000000000E+00 0. -1.
     999901    1    3    3    0    0  0.50648742459E-02 -0.48524079314E-01  0.99392389735E-01  0.88693803975E+00  0.88000000000E+00 0.  1.
        -11    1    4    4    0    0 -0.96700268081E-03  0.22613763057E-01 -0.47036441347E-01  0.52201583399E-01  0.51100000000E-03 0.  1.
         11    1    4    4    0    0  0.11977514169E-01  0.48699893792E-01 -0.57640150059E-01  0.76405422065E-01  0.51100000000E-03 0. -1.
</event>
<event>
 8    1  0.9956970E+004  0.1043930E+01  0.7957747E-01            NaN
         13   -1    0    0    0    0  0.00000000000E+00  0.00000000000E+00  0.74505805969E-08  0.10566000000E+00  0.10566000000E+00 0.  1.
     999900   -1    0    0    0    0 -0.00000000000E+00 -0.00000000000E+00 -0.74505805969E-08  0.93827000000E+00  0.93827000000E+00 0. -1.
     999902    2    1    2    0    0  0.53221299435E-02  0.22747703875E-01  0.55257399066E-02  0.10199233988E+01  0.10196408302E+01 0.  0.
     999903    2    3    3    0    0  0.11158191974E+00 -0.54766618865E-01 -0.30501721324E-01  0.12941927692E+00  0.19211634005E-01 0.  0.
         14    1    1    2    0    0 -0.53221299435E-02 -0.22747703875E-01 -0.55257399066E-02  0.24006601180E-01  0.00000000000E+00 0.  1.
     999901    1    3    3    0    0 -0.10625978979E+00  0.77514322740E-01  0.36027461230E-01  0.89050412190E+00  0.88000000000E+00 0.  1.
        -11    1    4    4    0    0  0.36894749724E-01 -0.84343696035E-02 -0.10501762770E-01  0.39279884039E-01  0.51100000000E-03 0. -1.
         11    1    4    4    0    0  0.74687170011E-01 -0.46332249262E-01 -0.19999958554E-01  0.90139392882E-01  0.51100000000E-03 0.  1.
</event>
<event>
 8    1  0.9956970E+004  0.1043930E+01  0.7957747E-01            NaN
         13   -1    0    0    0    0  0.00000000000E+00  0.00000000000E+00  0.74505805969E-08  0.10566000000E+00  0.10566000000E+00 0. -1.
     999900   -1    0    0    0    0 -0.00000000000E+00 -0.00000000000E+00 -0.74505805969E-08  0.93827000000E+00  0.93827000000E+00 0. -1.
     999902    2    1    2    0    0 -0.49503021506E-02  0.19753123940E-01  0.15914607792E-01  0.10180849591E+01  0.10177568560E+01 0.  0.
     999903    2    3    3    0    0  0.78654844266E-01  0.39182895113E-02  0.10123651358E+00  0.12987305305E+00  0.20401978010E-01 0.  0.
         14    1    1    2    0    0  0.49503021506E-02 -0.19753123940E-01 -0.15914607792E-01  0.25845040878E-01  0.00000000000E+00 0.  1.
     999901    1    3    3    0    0 -0.83605146417E-01  0.15834834429E-01 -0.85321905786E-01  0.88821190608E+00  0.88000000000E+00 0. -1.
        -11    1    4    4    0    0  0.45630622832E-01  0.10601826006E-01  0.67716764778E-01  0.82343025252E-01  0.51100000000E-03 0. -1.
         11    1    4    4    0    0  0.33024221435E-01 -0.66835364945E-02  0.33519748800E-01  0.47530027794E-01  0.51100000000E-03 0.  1.
</event>
<event>
 7    1  0.1043157E+005  0.1043930E+01  0.7957747E-01            NaN
         13   -1    0    0    0    0  0.00000000000E+00  0.00000000000E+00  0.74505805969E-08  0.10566000000E+00  0.10566000000E+00 0.  1.
     999900   -1    0    0    0    0 -0.00000000000E+00 -0.00000000000E+00 -0.74505805969E-08  0.93827000000E+00  0.93827000000E+00 0.  1.
     999903    2    1    2    0    0  0.24679860441E-01 -0.30773054929E-01  0.83997105328E-01  0.95090450898E-01  0.20750993411E-01 0.  0.
         14    1    1    2    0    0 -0.36464005087E-01 -0.23316746147E-01 -0.50436565488E-01  0.66461578796E-01  0.00000000000E+00 0. -1.
     999901    1    1    2    0    0  0.11784144645E-01  0.54089801076E-01 -0.33560539839E-01  0.88237797031E+00  0.88000000000E+00 0. -1.
        -11    1    3    3    0    0  0.75574346861E-02 -0.10227391677E-01  0.51249245738E-01  0.52805877223E-01  0.51100000000E-03 0.  1.
         11    1    3    3    0    0  0.17122425755E-01 -0.20545663252E-01  0.32747859590E-01  0.42284573676E-01  0.51100000000E-03 0. -1.
</event>
<event>
 8    1  0.9956970E+004  0.1043930E+01  0.7957747E-01            NaN
         13   -1    0    0    0    0  0.00000000000E+00  0.00000000000E+00  0.74505805969E-08  0.10566000000E+00  0.10566000000E+00 0.  1.
     999900   -1    0    0    0    0 -0.00000000000E+00 -0.00000000000E+00 -0.74505805969E-08  0.93827000000E+00  0.93827000000E+00 0. -1.
     999902    2    1    2    0    0 -0.21077001041E-02 -0.22189181506E-01 -0.85158101238E-02  0.10200695474E+01  0.10197904492E+01 0.  0.
     999903    2    3    3    0    0  0.31043639406E-01  0.34196896079E-02 -0.12586196230E+00  0.13129232841E+00  0.20519262156E-01 0.  0.
         14    1    1    2    0    0  0.21077001041E-02  0.22189181506E-01  0.85158101238E-02  0.23860452588E-01  0.00000000000E+00 0.  1.
     999901    1    3    3    0    0 -0.33151339511E-01 -0.25608871114E-01  0.11734615218E+00  0.88877721900E+00  0.88000000000E+00 0.  1.
        -11    1    4    4    0    0  0.11619965455E-01  0.11349856104E-01 -0.49529992768E-01  0.52127959248E-01  0.51100000000E-03 0. -1.
         11    1    4    4    0    0  0.19423673951E-01 -0.79301664959E-02 -0.76331969534E-01  0.79164369159E-01  0.51100000000E-03 0.  1.
</event>
<event>
 8    1  0.9956970E+004  0.1043930E+01  0.7957747E-01            NaN
         13   -1    0    0    0    0  0.00000000000E+00  0.00000000000E+00  0.74505805969E-08  0.10566000000E+00  0.10566000000E+00 0. -1.
     999900   -1    0    0    0    0 -0.00000000000E+00 -0.00000000000E+00 -0.74505805969E-08  0.93827000000E+00  0.93827000000E+00 0.  1.
     999902    2    1    2    0    0  0.19410037512E-02  0.29934320036E-03 -0.23426803332E-01  0.10204210184E+01  0.10201501765E+01 0.  0.
     999903    2    3    3    0    0  0.43098061521E-01 -0.10520197239E+00 -0.64569851421E-01  0.13221091858E+00  0.19635767830E-01 0.  0.
         14    1    1    2    0    0 -0.19410037512E-02 -0.29934320036E-03  0.23426803332E-01  0.23508981608E-01  0.00000000000E+00 0. -1.
     999901    1    3    3    0    0 -0.41157057770E-01  0.10550131559E+00  0.41143048090E-01  0.88821009981E+00  0.88000000000E+00 0. -1.
        -11    1    4    4    0    0  0.33345989124E-01 -0.81687469865E-01 -0.40174733271E-01  0.96948790802E-01  0.51100000000E-03 0.  1.
         11    1    4    4    0    0  0.97520723968E-02 -0.23514502525E-01 -0.24395118151E-01  0.35262127781E-01  0.51100000000E-03 0. -1.
</event>
<event>
 8    1  0.9956970E+004  0.1043930E+01  0.7957747E-01            NaN
         13   -1    0    0    0    0  0.00000000000E+00  0.00000000000E+00  0.74505805969E-08  0.10566000000E+00  0.10566000000E+00 0.  1.
     999900   -1    0    0    0    0 -0.00000000000E+00 -0.00000000000E+00 -0.74505805969E-08  0.93827000000E+00  0.93827000000E+00 0. -1.
     999902    2    1    2    0    0 -0.21290941563E-01 -0.85484259074E-02  0.30383688300E-02  0.10207867188E+01  0.10205243328E+01 0.  0.
     999903    2    3    3    0    0 -0.26725690685E-01 -0.11703939089E+00  0.52928818291E-01  0.13270514435E+00  0.19917679816E-01 0.  0.
         14    1    1    2    0    0  0.21290941563E-01  0.85484259074E-02 -0.30383688300E-02  0.23143281169E-01  0.00000000000E+00 0.  1.
     999901    1    3    3    0    0  0.54347491224E-02  0.10849096498E+00 -0.49890449461E-01  0.88808157448E+00  0.88000000000E+00 0. -1.
        -11    1    4    4    0    0 -0.25390402404E-01 -0.77156518813E-01  0.29449540200E-01  0.86402184397E-01  0.51100000000E-03 0.  1.
         11    1    4    4    0    0 -0.13352882813E-02 -0.39882872077E-01  0.23479278091E-01  0.46302959955E-01  0.51100000000E-03 0. -1.
</event>
<event>
 8    1  0.9956970E+004  0.1043930E+01  0.7957747E-01            NaN
         13   -1    0    0    0    0  0.00000000000E+00  0.00000000000E+00  0.74505805969E-08  0.10566000000E+00  0.10566000000E+00 0. -1.
     999900   -1    0    0    0    0 -0.00000000000E+00 -0.00000000000E+00 -0.74505805969E-08  0.93827000000E+00  0.93827000000E+00 0.  1.
     999902    2    1    2    0    0 -0.48246534827E-02 -0.21694237620E-01  0.75776811069E-02  0.10204494021E+01  0.10201792214E+01 0.  0.
     999903    2    3    3    0    0  0.18645085058E-02 -0.11401658494E+00 -0.64696033973E-01  0.13264781920E+00  0.20164550375E-01 0.  0.
         14    1    1    2    0    0  0.48246534827E-02  0.21694237620E-01 -0.75776811069E-02  0.23480597907E-01  0.00000000000E+00 0.  1.
     999901    1    3    3    0    0 -0.66891619885E-02  0.92322347322E-01  0.72273715080E-01  0.88780158290E+00  0.88000000000E+00 0. -1.
        -11    1    4    4    0    0  0.99012748214E-02 -0.56469836573E-01 -0.37357542700E-01  0.68430437696E-01  0.51100000000E-03 0.  1.
         11    1    4    4    0    0 -0.80367663156E-02 -0.57546748368E-01 -0.27338491273E-01  0.64217381500E-01  0.51100000000E-03 0. -1.
</event>
<event>
 8    1  0.9956970E+004  0.1043930E+01  0.7957747E-01            NaN
         13   -1    0    0    0    0  0.00000000000E+00  0.00000000000E+00  0.74505805969E-08  0.10566000000E+00  0.10566000000E+00 0.  1.
     999900   -1    0    0    0    0 -0.00000000000E+00 -0.00000000000E+00 -0.74505805969E-08  0.93827000000E+00  0.93827000000E+00 0.  1.
     999902    2    1    2    0    0  0.16467961726E-01  0.13648649605E-01 -0.22650493539E-01  0.10127767617E+01  0.10122975080E+01 0.  0.
     999903    2    3    3    0    0 -0.57337877820E-01 -0.10018648124E+00 -0.34972044012E-01  0.12229511698E+00  0.20201200901E-01 0.  0.
         14    1    1    2    0    0 -0.16467961726E-01 -0.13648649605E-01  0.22650493539E-01  0.31153238307E-01  0.00000000000E+00 0.  1.
     999901    1    3    3    0    0  0.73805839547E-01  0.11383513085E+00  0.12321550474E-01  0.89048164471E+00  0.88000000000E+00 0. -1.
        -11    1    4    4    0    0 -0.45732892917E-01 -0.88092804875E-01 -0.35772429418E-01  0.10550719214E+00  0.51100000000E-03 0. -1.
         11    1    4    4    0    0 -0.11604984904E-01 -0.12093676368E-01  0.80038540529E-03  0.16787924842E-01  0.51100000000E-03 0.  1.
</event>
<event>
 8    1  0.9956970E+004  0.1043930E+01  0.7957747E-01            NaN
         13   -1    0    0    0    0  0.00000000000E+00  0.00000000000E+00  0.74505805969E-08  0.10566000000E+00  0.10566000000E+00 0.  1.
     999900   -1    0    0    0    0 -0.00000000000E+00 -0.00000000000E+00 -0.74505805969E-08  0.93827000000E+00  0.93827000000E+00 0. -1.
     999902    2    1    2    0    0  0.56350692725E-02  0.18093264940E-01  0.14064292873E-01  0.10203307505E+01  0.10200578003E+01 0.  0.
     999903    2    3    3    0    0  0.11445034342E-01  0.85050075832E-01 -0.96789157298E-01  0.13083344438E+00  0.19614917485E-01 0.  0.
         14    1    1    2    0    0 -0.56350692725E-02 -0.18093264940E-01 -0.14064292873E-01  0.23599249477E-01  0.00000000000E+00 0. -1.
     999901    1    3    3    0    0 -0.58099650695E-02 -0.66956810892E-01  0.11085345017E+00  0.88949730614E+00  0.88000000000E+00 0.  1.
        -11    1    4    4    0    0 -0.22417951906E-02  0.39807805658E-01 -0.35146240103E-01  0.53152670218E-01  0.51100000000E-03 0.  1.
         11    1    4    4    0    0  0.13686829533E-01  0.45242270175E-01 -0.61642917195E-01  0.77680774162E-01  0.51100000000E-03 0. -1.
</event>
<event>
 8    1  0.9956970E+004  0.1043930E+01  0.7957747E-01            NaN
         13   -1    0    0    0    0  0.00000000000E+00  0.00000000000E+00  0.74505805969E-08  0.10566000000E+00  0.10566000000E+00 0.  1.
     999900   -1    0    0    0    0 -0.00000000000E+00 -0.00000000000E+00 -0.74505805969E-08  0.93827000000E+00  0.93827000000E+00 0. -1.
     999902    2    1    2    0    0 -0.16541144425E-01 -0.15932677860E-01  0.60087737606E-02  0.10201904751E+01  0.10199142319E+01 0.  0.
     999903    2    3    3    0    0  0.35380206371E-01  0.72512579395E-01  0.99048656933E-01  0.12936231538E+00  0.20350406075E-01 0.  0.
         14    1    1    2    0    0  0.16541144425E-01  0.15932677860E-01 -0.60087737606E-02  0.23739524949E-01  0.00000000000E+00 0.  1.
     999901    1    3    3    0    0 -0.51921350796E-01 -0.88445257255E-01 -0.93039883172E-01  0.89082815967E+00  0.88000000000E+00 0. -1.
        -11    1    4    4    0    0  0.17831248937E-01  0.40562945048E-01  0.38575445213E-01  0.58750591861E-01  0.51100000000E-03 0.  1.
         11    1    4    4    0    0  0.17548957434E-01  0.31949634347E-01  0.60473211719E-01  0.70611723521E-01  0.51100000000E-03 0. -1.
</event>
<event>
 8    1  0.9956970E+004  0.1043930E+01  0.7957747E-01            NaN
         13   -1    0    0    0    0  0.00000000000E+00  0.00000000000E+00  0.74505805969E-08  0.10566000000E+00  0.10566000000E+00 0.  1.
     999900   -1    0    0    0    0 -0.00000000000E+00 -0.00000000000E+00 -0.74505805969E-08  0.93827000000E+00  0.93827000000E+00 0. -1.
     999902    2    1    2    0    0  0.20584764517E-01  0.11180644296E-01  0.52696528644E-02  0.10199194070E+01  0.10196367432E+01 0.  0.
     999903    2    3    3    0    0 -0.62444018930E-02 -0.10976028592E-01  0.12845709421E+00  0.13065798981E+00  0.20268682455E-01 0.  0.
         14    1    1    2    0    0 -0.20584764517E-01 -0.11180644296E-01 -0.52696528644E-02  0.24010593045E-01  0.00000000000E+00 0. -1.
     999901    1    3    3    0    0  0.26829166410E-01  0.22156672888E-01 -0.12318744135E+00  0.88926141715E+00  0.88000000000E+00 0. -1.
        -11    1    4    4    0    0 -0.39899664362E-02 -0.87935018184E-02  0.20627923568E-01  0.22781963439E-01  0.51100000000E-03 0. -1.
         11    1    4    4    0    0 -0.22544354568E-02 -0.21825267738E-02  0.10782917064E+00  0.10787602637E+00  0.51100000000E-03 0.  1.
</event>
<event>
 8    1  0.9956970E+004  0.1043930E+01  0.7957747E-01            NaN
         13   -1    0    0    0    0  0.00000000000E+00  0.00000000000E+00  0.74505805969E-08  0.10566000000E+00  0.10566000000E+00 0. -1.
     999900   -1    0    0    0    0 -0.00000000000E+00 -0.00000000000E+00 -0.74505805969E-08  0.93827000000E+00  0.93827000000E+00 0.  1.
     999902    2    1    2    0    0  0.13273340239E-01 -0.11044756111E-01 -0.17125272941E-01  0.10196103953E+01  0.10193203201E+01 0.  0.
     999903    2    3    3    0    0  0.38128102280E-01  0.14103625609E-01  0.11998518163E+00  0.12829144171E+00  0.20238225436E-01 0.  0.
         14    1    1    2    0    0 -0.13273340239E-01  0.11044756111E-01  0.17125272941E-01  0.24319604683E-01  0.00000000000E+00 0. -1.
     999901    1    3    3    0    0 -0.24854762041E-01 -0.25148381720E-01 -0.13711045457E+00  0.89131895360E+00  0.88000000000E+00 0.  1.
        -11    1    4    4    0    0  0.18903882868E-01  0.14146019618E-01  0.86611019594E-01  0.89773027657E-01  0.51100000000E-03 0. -1.
         11    1    4    4    0    0  0.19224219412E-01 -0.42394009458E-04  0.33374162031E-01  0.38518414058E-01  0.51100000000E-03 0.  1.
</event>
<event>
 8    1  0.9956970E+004  0.1043930E+01  0.7957747E-01            NaN
         13   -1    0    0    0    0  0.00000000000E+00  0.00000000000E+00  0.74505805969E-08  0.10566000000E+00  0.10566000000E+00 0.  1.
     999900   -1    0    0    0    0 -0.00000000000E+00 -0.00000000000E+00 -0.74505805969E-08  0.93827000000E+00  0.93827000000E+00 0.  1.
     999902    2    1    2    0    0 -0.47290997512E-02 -0.17823736230E-01 -0.14946261942E-01  0.10201930941E+01  0.10199169125E+01 0.  0.
     999903    2    3    3    0    0  0.91564629539E-01  0.24009226989E-01  0.84504596296E-01  0.12838989137E+00  0.19555384140E-01 0.  0.
         14    1    1    2    0    0  0.47290997512E-02  0.17823736230E-01  0.14946261942E-01  0.23736905942E-01  0.00000000000E+00 0. -1.
     999901    1    3    3    0    0 -0.96293729291E-01 -0.41832963219E-01 -0.99450858238E-01  0.89180320268E+00  0.88000000000E+00 0.  1.
        -11    1    4    4    0    0  0.46024897468E-01  0.15530558617E-01  0.31039696933E-01  0.57647318624E-01  0.51100000000E-03 0.  1.
         11    1    4    4    0    0  0.45539732072E-01  0.84786683724E-02  0.53464899363E-01  0.70742572751E-01  0.51100000000E-03 0. -1.
</event>
<event>
 8    1  0.9956970E+004  0.1043930E+01  0.7957747E-01            NaN
         13   -1    0    0    0    0  0.00000000000E+00  0.00000000000E+00  0.74505805969E-08  0.10566000000E+00  0.10566000000E+00 0. -1.
     999900   -1    0    0    0    0 -0.00000000000E+00 -0.00000000000E+00 -0.74505805969E-08  0.93827000000E+00  0.93827000000E+00 0. -1.
     999902    2    1    2    0    0 -0.13598496008E-01 -0.74621701862E-02  0.18146743884E-01  0.10200572668E+01  0.10197778778E+01 0.  0.
     999903    2    3    3    0    0 -0.84224213237E-01  0.37322409388E-01  0.93656649406E-01  0.13287329695E+00  0.19926483034E-01 0.  0.
         14    1    1    2    0    0  0.13598496008E-01  0.74621701862E-02 -0.18146743884E-01  0.23872733215E-01  0.00000000000E+00 0.  1.
     999901    1    3    3    0    0  0.70625717229E-01 -0.44784579574E-01 -0.75509905522E-01  0.88718396984E+00  0.88000000000E+00 0. -1.
        -11    1    4    4    0    0 -0.54661883451E-01  0.33859328497E-01  0.67808378072E-01  0.93448450423E-01  0.51100000000E-03 0.  1.
         11    1    4    4    0    0 -0.29562329786E-01  0.34630808914E-02  0.25848271335E-01  0.39424846526E-01  0.51100000000E-03 0. -1.
</event>
<event>
 7    1  0.9956970E+004  0.1043930E+01  0.7957747E-01            NaN
         13   -1    0    0    0    0  0.00000000000E+00  0.00000000000E+00  0.74505805969E-08  0.10566000000E+00  0.10566000000E+00 0.  1.
     999900   -1    0    0    0    0 -0.00000000000E+00 -0.00000000000E+00 -0.74505805969E-08  0.93827000000E+00  0.93827000000E+00 0.  1.
     999903    2    1    2    0    0 -0.33301149923E-02 -0.92136126478E-01  0.37648738408E-01  0.10114550278E+00  0.17686994137E-01 0.  0.
         14    1    1    2    0    0  0.31166230919E-02 -0.13005210132E-01 -0.54751020132E-01  0.56360651483E-01  0.00000000000E+00 0. -1.
     999901    1    1    2    0    0  0.21349190043E-03  0.10514133661E+00  0.17102281723E-01  0.88642384573E+00  0.88000000000E+00 0. -1.
        -11    1    3    3    0    0 -0.16938905740E-02 -0.69102218412E-01  0.19651048799E-01  0.71863834400E-01  0.51100000000E-03 0.  1.
         11    1    3    3    0    0 -0.16362244183E-02 -0.23033908066E-01  0.17997689609E-01  0.29281668385E-01  0.51100000000E-03 0. -1.
</event>
<event>
 8    1  0.9956970E+004  0.1043930E+01  0.7957747E-01            NaN
         13   -1    0    0    0    0  0.00000000000E+00  0.00000000000E+00  0.74505805969E-08  0.10566000000E+00  0.10566000000E+00 0.  1.
     999900   -1    0    0    0    0 -0.00000000000E+00 -0.00000000000E+00 -0.74505805969E-08  0.93827000000E+00  0.93827000000E+00 0.  1.
     999902    2    1    2    0    0 -0.17414646057E-01  0.16386385842E-01  0.12840273097E-02  0.10199835542E+01  0.10197024167E+01 0.  0.
     999903    2    3    3    0    0  0.10014180856E+00  0.16165357013E-01  0.76669542929E-01  0.12897146407E+00  0.21580526905E-01 0.  0.
         14    1    1    2    0    0  0.17414646057E-01 -0.16386385842E-01 -0.12840273097E-02  0.23946445757E-01  0.00000000000E+00 0. -1.
     999901    1    3    3    0    0 -0.11755645462E+00  0.22102882959E-03 -0.75385515619E-01  0.89101209018E+00  0.88000000000E+00 0.  1.
        -11    1    4    4    0    0  0.86849746937E-01  0.18657810218E-01  0.58697280194E-01  0.10647358474E+00  0.51100000000E-03 0.  1.
         11    1    4    4    0    0  0.13292061622E-01 -0.24924532055E-02  0.17972262735E-01  0.22497879321E-01  0.51100000000E-03 0. -1.
</event>
<event>
 8    1  0.9956970E+004  0.1043930E+01  0.7957747E-01            NaN
         13   -1    0    0    0    0  0.00000000000E+00  0.00000000000E+00  0.74505805969E-08  0.10566000000E+00  0.10566000000E+00 0.  1.
     999900   -1    0    0    0    0 -0.00000000000E+00 -0.00000000000E+00 -0.74505805969E-08  0.93827000000E+00  0.93827000000E+00 0.  1.
     999902    2    1    2    0    0  0.11796825187E-01 -0.13053937847E-01  0.20001271111E-01  0.10172912834E+01  0.10169424438E+01 0.  0.
     999903    2    3    3    0    0 -0.93315892016E-01  0.74960468087E-01  0.35528638975E-01  0.12654085922E+00  0.20576136315E-01 0.  0.
         14    1    1    2    0    0 -0.11796825187E-01  0.13053937847E-01 -0.20001271111E-01  0.26638716633E-01  0.00000000000E+00 0. -1.
     999901    1    3    3    0    0  0.10511271720E+00 -0.88014405934E-01 -0.15527367864E-01  0.89075042415E+00  0.88000000000E+00 0. -1.
        -11    1    4    4    0    0 -0.40989381205E-01  0.21239976240E-01  0.17785199978E-01  0.49475654837E-01  0.51100000000E-03 0.  1.
         11    1    4    4    0    0 -0.52326510811E-01  0.53720491846E-01  0.17743438997E-01  0.77065204381E-01  0.51100000000E-03 0. -1.
</event>
<event>
 8    1  0.9956970E+004  0.1043930E+01  0.7957747E-01            NaN
         13   -1    0    0    0    0  0.00000000000E+00  0.00000000000E+00  0.74505805969E-08  0.10566000000E+00  0.10566000000E+00 0.  1.
     999900   -1    0    0    0    0 -0.00000000000E+00 -0.00000000000E+00 -0.74505805969E-08  0.93827000000E+00  0.93827000000E+00 0.  1.
     999902    2    1    2    0    0 -0.93658237762E-02 -0.13919348218E-01  0.15382905606E-01  0.10211681746E+01  0.10209144627E+01 0.  0.
     999903    2    3    3    0    0 -0.21237037002E-01 -0.20940346612E-01  0.12867270417E+00  0.13379857936E+00  0.21351467967E-01 0.  0.
         14    1    1    2    0    0  0.93658237762E-02  0.13919348218E-01 -0.15382905606E-01  0.22761825382E-01  0.00000000000E+00 0. -1.
     999901    1    3    3    0    0  0.11871213225E-01  0.70209983944E-02 -0.11328979856E+00  0.88736959525E+00  0.88000000000E+00 0.  1.
        -11    1    4    4    0    0  0.25490686791E-03 -0.11188030564E-01  0.23841211649E-01  0.26342010161E-01  0.51100000000E-03 0.  1.
         11    1    4    4    0    0 -0.21491943869E-01 -0.97523160481E-02  0.10483149252E+00  0.10745656920E+00  0.51100000000E-03 0. -1.
</event>
<event>
 8    1  0.9956970E+004  0.1043930E+01  0.7957747E-01            NaN
         13   -1    0    0    0    0  0.00000000000E+00  0.00000000000E+00  0.74505805969E-08  0.10566000000E+00  0.10566000000E+00 0.  1.
     999900   -1    0    0    0    0 -0.00000000000E+00 -0.00000000000E+00 -0.74505805969E-08  0.93827000000E+00  0.93827000000E+00 0. -1.
     999902    2    1    2    0    0 -0.15270349684E-01  0.94103392097E-02  0.48536295537E-02  0.10253478639E+01  0.10251794702E+01 0.  0.
     999903    2    3    3    0    0 -0.43805616946E-01  0.33027621223E-01 -0.12228572813E+00  0.13543974852E+00  0.19503085285E-01 0.  0.
         14    1    1    2    0    0  0.15270349684E-01 -0.94103392097E-02 -0.48536295537E-02  0.18582136135E-01  0.00000000000E+00 0. -1.
     999901    1    3    3    0    0  0.28535267262E-01 -0.23617282013E-01  0.12713935768E+00  0.88990811535E+00  0.88000000000E+00 0.  1.
        -11    1    4    4    0    0 -0.20187688725E-01  0.25765035136E-01 -0.58552211059E-01  0.67082056860E-01  0.51100000000E-03 0. -1.
         11    1    4    4    0    0 -0.23617928221E-01  0.72625860869E-02 -0.63733517068E-01  0.68357691659E-01  0.51100000000E-03 0.  1.
</event>
<event>
 8    1  0.9956970E+004  0.1043930E+01  0.7957747E-01            NaN
         13   -1    0    0    0    0  0.00000000000E+00  0.00000000000E+00  0.74505805969E-08  0.10566000000E+00  0.10566000000E+00 0.  1.
     999900   -1    0    0    0    0 -0.00000000000E+00 -0.00000000000E+00 -0.74505805969E-08  0.93827000000E+00  0.93827000000E+00 0. -1.
     999902    2    1    2    0    0  0.84065937749E-02  0.12912909487E-01 -0.15863690920E-01  0.10218150562E+01  0.10215757134E+01 0.  0.
     999903    2    3    3    0    0 -0.10387471406E+00  0.78440343949E-01 -0.12207816066E-01  0.13225656897E+00  0.19998136987E-01 0.  0.
         14    1    1    2    0    0 -0.84065937749E-02 -0.12912909487E-01  0.15863690920E-01  0.22114943814E-01  0.00000000000E+00 0.  1.
     999901    1    3    3    0    0  0.11228130783E+00 -0.65527434463E-01 -0.36558748538E-02  0.88955848722E+00  0.88000000000E+00 0. -1.
        -11    1    4    4    0    0 -0.75570276331E-01  0.65011872055E-01 -0.35550536776E-02  0.99751239093E-01  0.51100000000E-03 0.  1.
         11    1    4    4    0    0 -0.28304437728E-01  0.13428471894E-01 -0.86527623883E-02  0.32505329878E-01  0.51100000000E-03 0. -1.
</event>
<event>
 8    1  0.9956970E+004  0.1043930E+01  0.7957747E-01            NaN
         13   -1    0    0    0    0  0.00000000000E+00  0.00000000000E+00  0.74505805969E-08  0.10566000000E+00  0.10566000000E+00 0. -1.
     999900   -1    0    0    0    0 -0.00000000000E+00 -0.00000000000E+00 -0.74505805969E-08  0.93827000000E+00  0.93827000000E+00 0.  1.
     999902    2    1    2    0    0  0.55752260958E-02  0.58268276850E-02 -0.22723401245E-01  0.10198180106E+01  0.10195329258E+01 0.  0.
     999903    2    3    3    0    0  0.83052727895E-02 -0.20175018864E-01  0.12396018104E+00  0.12729371265E+00  0.19014569567E-01 0.  0.
         14    1    1    2    0    0 -0.55752260958E-02 -0.58268276850E-02  0.22723401245E-01  0.24111989363E-01  0.00000000000E+00 0. -1.
     999901    1    3    3    0    0 -0.27300466937E-02  0.26001846549E-01 -0.14668358228E+00  0.89252429798E+00  0.88000000000E+00 0.  1.
        -11    1    4    4    0    0  0.60138574685E-02 -0.17380088822E-01  0.50570111179E-01  0.53812928138E-01  0.51100000000E-03 0.  1.
         11    1    4    4    0    0  0.22914153210E-02 -0.27949300425E-02  0.73390069859E-01  0.73480784516E-01  0.51100000000E-03 0. -1.
</event>
<event>
 8    1  0.9956970E+004  0.1043930E+01  0.7957747E-01            NaN
         13   -1    0    0    0    0  0.00000000000E+00  0.00000000000E+00  0.74505805969E-08  0.10566000000E+00  0.10566000000E+00 0. -1.
     999900   -1    0    0    0    0 -0.00000000000E+00 -0.00000000000E+00 -0.74505805969E-08  0.93827000000E+00  0.93827000000E+00 0.  1.
     999902    2    1    2    0    0  0.11441983759E-01  0.19857973416E-01 -0.57212129412E-02  0.10203081800E+01  0.10200347013E+01 0.  0.
     999903    2    3    3    0    0  0.13031725302E+00 -0.38712005026E-02 -0.49816842767E-02  0.13199801448E+00  0.20027132128E-01 0.  0.
         14    1    1    2    0    0 -0.11441983759E-01 -0.19857973416E-01  0.57212129412E-02  0.23621819956E-01  0.00000000000E+00 0.  1.
     999901    1    3    3    0    0 -0.11887526926E+00  0.23729173918E-01 -0.73952866451E-03  0.88831016556E+00  0.88000000000E+00 0. -1.
        -11    1    4    4    0    0  0.61241396354E-01  0.81592013924E-02 -0.19877447595E-02  0.61816611400E-01  0.51100000000E-03 0.  1.
         11    1    4    4    0    0  0.69075856666E-01 -0.12030401895E-01 -0.29939395172E-02  0.70181403083E-01  0.51100000000E-03 0. -1.
</event>
<event>
 8    1  0.9956970E+004  0.1043930E+01  0.7957747E-01            NaN
         13   -1    0    0    0    0  0.00000000000E+00  0.00000000000E+00  0.74505805969E-08  0.10566000000E+00  0.10566000000E+00 0.  1.
     999900   -1    0    0    0    0 -0.00000000000E+00 -0.00000000000E+00 -0.74505805969E-08  0.93827000000E+00  0.93827000000E+00 0.  1.
     999902    2    1    2    0    0  0.41861875988E-02  0.17857841087E-02 -0.24206847405E-01  0.10192990306E+01  0.10190013882E+01 0.  0.
     999903    2    3    3    0    0  0.16381951965E-01  0.12716095955E+00 -0.86375757351E-02  0.13019269642E+00  0.20910583539E-01 0.  0.
         14    1    1    2    0    0 -0.41861875988E-02 -0.17857841087E-02  0.24206847405E-01  0.24630969384E-01  0.00000000000E+00 0.  1.
     999901    1    3    3    0    0 -0.12195764366E-01 -0.12537517544E+00 -0.15569271670E-01  0.88910633419E+00  0.88000000000E+00 0.  1.
        -11    1    4    4    0    0 -0.19233585577E-02  0.57625048373E-01  0.82946891948E-03  0.57665367838E-01  0.51100000000E-03 0.  1.
         11    1    4    4    0    0  0.18305310522E-01  0.69535911173E-01 -0.94670446545E-02  0.72527328584E-01  0.51100000000E-03 0. -1.
</event>
<event>
 8    1  0.9956970E+004  0.1043930E+01  0.7957747E-01            NaN
         13   -1    0    0    0    0  0.00000000000E+00  0.00000000000E+00  0.74505805969E-08  0.10566000000E+00  0.10566000000E+00 0. -1.
     999900   -1    0    0    0    0 -0.00000000000E+00 -0.00000000000E+00 -0.74505805969E-08  0.93827000000E+00  0.93827000000E+00 0.  1.
     999902    2    1    2    0    0  0.64059813501E-02  0.23587459537E-01  0.35165036900E-02  0.10192364656E+01  0.10189372906E+01 0.  0.
     999903    2    3    3    0    0  0.23253942824E-01  0.13699102260E-01  0.12620848252E+00  0.13050987371E+00  0.19386459563E-01 0.  0.
         14    1    1    2    0    0 -0.64059813501E-02 -0.23587459537E-01 -0.35165036900E-02  0.24693534431E-01  0.00000000000E+00 0. -1.
     999901    1    3    3    0    0 -0.16847961474E-01  0.98883572773E-02 -0.12269197883E+00  0.88872659186E+00  0.88000000000E+00 0.  1.
        -11    1    4    4    0    0  0.51956241139E-02  0.14125923408E-01  0.52370653172E-01  0.54492959698E-01  0.51100000000E-03 0. -1.
         11    1    4    4    0    0  0.18058318710E-01 -0.42682114791E-03  0.73837829351E-01  0.76016914007E-01  0.51100000000E-03 0.  1.
</event>
<event>
 7    1  0.9956970E+004  0.1043930E+01  0.7957747E-01            NaN
         13   -1    0    0    0    0  0.00000000000E+00  0.00000000000E+00  0.74505805969E-08  0.10566000000E+00  0.10566000000E+00 0.  1.
     999900   -1    0    0    0    0 -0.00000000000E+00 -0.00000000000E+00 -0.74505805969E-08  0.93827000000E+00  0.93827000000E+00 0.  1.
     999902    2    1    2    0    0 -0.15177020773E-01  0.17907683796E-01 -0.30683375970E-02  0.10202563481E+01  0.10199816538E+01 0.  0.
         14    1    1    2    0    0  0.15177020773E-01 -0.17907683796E-01  0.30683375970E-02  0.23673651895E-01  0.00000000000E+00 0.  1.
     999901    1    3    3    0    0 -0.94738102862E-01  0.11038965564E+00 -0.20085359517E-01  0.89216848514E+00  0.88000000000E+00 0.  1.
        -11    1    3    3    0    0  0.37743876822E-01 -0.60069495956E-01  0.23604839601E-01  0.74768938441E-01  0.51100000000E-03 0. -1.
         11    1    3    3    0    0  0.41817205268E-01 -0.32412475891E-01 -0.65878176811E-02  0.53318924526E-01  0.51100000000E-03 0.  1.
</event>
<event>
 8    1  0.9956970E+004  0.1043930E+01  0.7957747E-01            NaN
         13   -1    0    0    0    0  0.00000000000E+00  0.00000000000E+00  0.74505805969E-08  0.10566000000E+00  0.10566000000E+00 0. -1.
     999900   -1    0    0    0    0 -0.00000000000E+00 -0.00000000000E+00 -0.74505805969E-08  0.93827000000E+00  0.93827000000E+00 0. -1.
     999902    2    1    2    0    0  0.20000231835E-01  0.10266523686E-01  0.32981103478E-02  0.10212080213E+01  0.10209552069E+01 0.  0.
     999903    2    3    3    0    0  0.12802837097E+00 -0.16321484692E-01  0.29036722482E-01  0.13383015528E+00  0.20241654446E-01 0.  0.
         14    1    1    2    0    0 -0.20000231835E-01 -0.10266523686E-01 -0.32981103478E-02  0.22721978653E-01  0.00000000000E+00 0. -1.
     999901    1    3    3    0    0 -0.10802813913E+00  0.26588008378E-01 -0.25738612134E-01  0.88737786607E+00  0.88000000000E+00 0.  1.
        -11    1    4    4    0    0  0.65887049714E-01 -0.16997795703E-01  0.20708115145E-01  0.71127459765E-01  0.51100000000E-03 0.  1.
         11    1    4    4    0    0  0.62141321252E-01  0.67631101116E-03  0.83286073369E-02  0.62702695514E-01  0.51100000000E-03 0. -1.
</event>
<event>
 8    1  0.9956970E+004  0.1043930E+01  0.7957747E-01            NaN
         13   -1    0    0    0    0  0.00000000000E+00  0.00000000000E+00  0.74505805969E-08  0.10566000000E+00  0.10566000000E+00 0.  1.
     999900   -1    0    0    0    0 -0.00000000000E+00 -0.00000000000E+00 -0.74505805969E-08  0.93827000000E+00  0.93827000000E+00 0.  1.
     999902    2    1    2    0    0  0.95604029146E-02 -0.21923878709E-01 -0.15533501903E-02  0.10199618825E+01  0.10196802298E+01 0.  0.
     999903    2    3    3    0    0  0.23112012096E-01  0.23934959950E-01 -0.12426115138E+00  0.13016197031E+00  0.19855915038E-01 0.  0.
         14    1    1    2    0    0 -0.95604029146E-02  0.21923878709E-01  0.15533501903E-02  0.23968117539E-01  0.00000000000E+00 0.  1.
     999901    1    3    3    0    0 -0.13551609182E-01 -0.45858838660E-01  0.12270780119E+00  0.88979991215E+00  0.88000000000E+00 0. -1.
        -11    1    4    4    0    0  0.15381176873E-01  0.56336226298E-02 -0.34063414334E-01  0.37800735748E-01  0.51100000000E-03 0. -1.
         11    1    4    4    0    0  0.77308352231E-02  0.18301337320E-01 -0.90197737043E-01  0.92361234561E-01  0.51100000000E-03 0.  1.
</event>
<event>
 8    1  0.9956970E+004  0.1043930E+01  0.7957747E-01            NaN
         13   -1    0    0    0    0  0.00000000000E+00  0.00000000000E+00  0.74505805969E-08  0.10566000000E+00  0.10566000000E+00 0. -1.
     999900   -1    0    0    0    0 -0.00000000000E+00 -0.00000000000E+00 -0.74505805969E-08  0.93827000000E+00  0.93827000000E+00 0.  1.
     999902    2    1    2    0    0 -0.89304451067E-02  0.41146686923E-02 -0.23112384661E-01  0.10188129605E+01  0.10185033053E+01 0.  0.
     999903    2    3    3    0    0 -0.98714230261E-01  0.56085550434E-02 -0.85660077471E-01  0.13203476183E+00  0.17876641549E-01 0.  0.
         14    1    1    2    0    0  0.89304451067E-02 -0.41146686923E-02  0.23112384661E-01  0.25117039495E-01  0.00000000000E+00 0. -1.
     999901    1    3    3    0    0  0.89783785154E-01 -0.14938863511E-02  0.62547692809E-01  0.88677819868E+00  0.88000000000E+00 0. -1.
        -11    1    4    4    0    0 -0.47850019383E-01  0.91550856928E-02 -0.50002062637E-01  0.69813375065E-01  0.51100000000E-03 0. -1.
         11    1    4    4    0    0 -0.50864210878E-01 -0.35465306494E-02 -0.35658014834E-01  0.62221386763E-01  0.51100000000E-03 0.  1.
</event>
<event>
 8    1  0.9956970E+004  0.1043930E+01  0.7957747E-01            NaN
         13   -1    0    0    0    0  0.00000000000E+00  0.00000000000E+00  0.74505805969E-08  0.10566000000E+00  0.10566000000E+00 0.  1.
     999900   -1    0    0    0    0 -0.00000000000E+00 -0.00000000000E+00 -0.74505805969E-08  0.93827000000E+00  0.93827000000E+00 0. -1.
     999902    2    1    2    0    0  0.94471699148E-02 -0.68590892351E-02 -0.21369101153E-01  0.10195797514E+01  0.10192889359E+01 0.  0.
     999903    2    3    3    0    0 -0.72020638727E-01 -0.13255856247E-01 -0.10749936630E+00  0.13160658451E+00  0.20037195549E-01 0.  0.
         14    1    1    2    0    0 -0.94471699148E-02  0.68590892351E-02  0.21369101153E-01  0.24350248636E-01  0.00000000000E+00 0.  1.
     999901    1    3    3    0    0  0.81467808642E-01  0.63967670120E-02  0.86130265144E-01  0.88797316685E+00  0.88000000000E+00 0.  1.
        -11    1    4    4    0    0 -0.71072942969E-01 -0.91863378379E-02 -0.10041801662E+00  0.12336851790E+00  0.51100000000E-03 0. -1.
         11    1    4    4    0    0 -0.94769575835E-03 -0.40695184092E-02 -0.70813496739E-02  0.82380666141E-02  0.51100000000E-03 0.  1.
</event>
<event>
 8    1  0.9956970E+004  0.1043930E+01  0.7957747E-01            NaN
         13   -1    0    0    0    0  0.00000000000E+00  0.00000000000E+00  0.74505805969E-08  0.10566000000E+00  0.10566000000E+00 0.  1.
     999900   -1    0    0    0    0 -0.00000000000E+00 -0.00000000000E+00 -0.74505805969E-08  0.93827000000E+00  0.93827000000E+00 0. -1.
     999902    2    1    2    0    0 -0.39133517382E-02 -0.21303485349E-02  0.23354828604E-01  0.10201539464E+01  0.10198768424E+01 0.  0.
     999903    2    3    3    0    0  0.95855680911E-02  0.20233050481E-01  0.12976154713E+00  0.13335930713E+00  0.21104175807E-01 0.  0.
         14    1    1    2    0    0  0.39133517382E-02  0.21303485349E-02 -0.23354828604E-01  0.23776053622E-01  0.00000000000E+00 0. -1.
     999901    1    3    3    0    0 -0.13498919829E-01 -0.22363399016E-01 -0.10640671853E+00  0.88679463925E+00  0.88000000000E+00 0. -1.
        -11    1    4    4    0    0 -0.79127833015E-03 -0.39483755031E-02  0.11233164769E-01  0.11944073938E-01  0.51100000000E-03 0. -1.
         11    1    4    4    0    0  0.10376846421E-01  0.24181425984E-01  0.11852838236E+00  0.12141523319E+00  0.51100000000E-03 0.  1.
</event>
<event>
 8    1  0.9956970E+004  0.1043930E+01  0.7957747E-01            NaN
         13   -1    0    0    0    0  0.00000000000E+00  0.00000000000E+00  0.74505805969E-08  0.10566000000E+00  0.10566000000E+00 0.  1.
     999900   -1    0    0    0    0 -0.00000000000E+00 -0.00000000000E+00 -0.74505805969E-08  0.93827000000E+00  0.93827000000E+00 0.  1.
     999902    2    1    2    0    0 -0.11998687664E-02 -0.66217562146E-02  0.22299460249E-01  0.10206372271E+01  0.10203714011E+01 0.  0.
     999903    2    3    3    0    0  0.25892970259E-01 -0.12361047901E+00 -0.28654466522E-01  0.13102119432E+00  0.19886640692E-01 0.  0.
         14    1    1    2    0    0  0.11998687664E-02  0.66217562146E-02 -0.22299460249E-01  0.23292772866E-01  0.00000000000E+00 0. -1.
     999901    1    3    3    0    0 -0.27092839025E-01  0.11698872280E+00  0.50953926771E-01  0.88961603282E+00  0.88000000000E+00 0. -1.
        -11    1    4    4    0    0 -0.64155284388E-03 -0.39218965936E-01 -0.58335197283E-02  0.39658920215E-01  0.51100000000E-03 0.  1.
         11    1    4    4    0    0  0.26534523103E-01 -0.84391513078E-01 -0.22820946794E-01  0.91362274104E-01  0.51100000000E-03 0. -1.
</event>
<event>
 8    1  0.9956970E+004  0.1043930E+01  0.7957747E-01            NaN
         13   -1    0    0    0    0  0.00000000000E+00  0.00000000000E+00  0.74505805969E-08  0.10566000000E+00  0.10566000000E+00 0.  1.
     999900   -1    0    0    0    0 -0.00000000000E+00 -0.00000000000E+00 -0.74505805969E-08  0.93827000000E+00  0.93827000000E+00 0. -1.
     999902    2    1    2    0    0  0.51691543285E-02  0.12226385348E-01  0.19746913798E-01  0.10201361928E+01  0.10198586699E+01 0.  0.
     999903    2    3    3    0    0  0.11527878905E+00 -0.14862672359E-03 -0.56528033574E-01  0.12991423164E+00  0.19825935270E-01 0.  0.
         14    1    1    2    0    0 -0.51691543285E-02 -0.12226385348E-01 -0.19746913798E-01  0.23793807171E-01  0.00000000000E+00 0. -1.
     999901    1    3    3    0    0 -0.11010963472E+00  0.12375012072E-01  0.76274947372E-01  0.89022196119E+00  0.88000000000E+00 0.  1.
        -11    1    4    4    0    0  0.94944015478E-01  0.49132017018E-02 -0.39678583651E-01  0.10302017641E+00  0.51100000000E-03 0. -1.
         11    1    4    4    0    0  0.20334773570E-01 -0.50618284254E-02 -0.16849449923E-01  0.26894055233E-01  0.51100000000E-03 0.  1.
</event>
<event>
 8    1  0.9956970E+004  0.1043930E+01  0.7957747E-01            NaN
         13   -1    0    0    0    0  0.00000000000E+00  0.00000000000E+00  0.74505805969E-08  0.10566000000E+00  0.10566000000E+00 0. -1.
     999900   -1    0    0    0    0 -0.00000000000E+00 -0.00000000000E+00 -0.74505805969E-08  0.93827000000E+00  0.93827000000E+00 0.  1.
     999902    2    1    2    0    0 -0.93749895005E-03 -0.17984606466E-01  0.12441365748E-01  0.10220413601E+01  0.10218069432E+01 0.  0.
     999903    2    3    3    0    0  0.51516556256E-01 -0.10346388572E+00  0.66182209627E-01  0.13471604583E+00  0.20238500790E-01 0.  0.
         14    1    1    2    0    0  0.93749895005E-03  0.17984606466E-01 -0.12441365748E-01  0.21888639878E-01  0.00000000000E+00 0.  1.
     999901    1    3    3    0    0 -0.52454055206E-01  0.85479279258E-01 -0.53740843879E-01  0.88732531430E+00  0.88000000000E+00 0. -1.
        -11    1    4    4    0    0  0.39910507372E-01 -0.88127687687E-01  0.62356941478E-01  0.11509990099E+00  0.51100000000E-03 0.  1.
         11    1    4    4    0    0  0.11606048884E-01 -0.15336198037E-01  0.38252681497E-02  0.19616144839E-01  0.51100000000E-03 0. -1.
</event>
<event>
 8    1  0.9956970E+004  0.1043930E+01  0.7957747E-01            NaN
         13   -1    0    0    0    0  0.00000000000E+00  0.00000000000E+00  0.74505805969E-08  0.10566000000E+00  0.10566000000E+00 0. -1.
     999900   -1    0    0    0    0 -0.00000000000E+00 -0.00000000000E+00 -0.74505805969E-08  0.93827000000E+00  0.93827000000E+00 0.  1.
     999902    2    1    2    0    0 -0.21955482689E-01  0.38137882994E-02  0.34475754306E-02  0.10213806324E+01  0.10211316871E+01 0.  0.
     999903    2    3    3    0    0 -0.21049343491E-01  0.73702668688E-01  0.10633373448E+00  0.13263385274E+00  0.20241481441E-01 0.  0.
         14    1    1    2    0    0  0.21955482689E-01 -0.38137882994E-02 -0.34475754306E-02  0.22549367567E-01  0.00000000000E+00 0.  1.
     999901    1    3    3    0    0 -0.90613919776E-03 -0.69888880388E-01 -0.10288615905E+00  0.88874677969E+00  0.88000000000E+00 0.  1.
        -11    1    4    4    0    0 -0.17130152350E-01  0.50938768801E-01  0.58063651472E-01  0.79119207717E-01  0.51100000000E-03 0. -1.
         11    1    4    4    0    0 -0.39191911412E-02  0.22763899887E-01  0.48270083009E-01  0.53514645023E-01  0.51100000000E-03 0.  1.
</event>
<event>
 8    1  0.9956970E+004  0.1043930E+01  0.7957747E-01            NaN
         13   -1    0    0    0    0  0.00000000000E+00  0.00000000000E+00  0.74505805969E-08  0.10566000000E+00  0.10566000000E+00 0. -1.
     999900   -1    0    0    0    0 -0.00000000000E+00 -0.00000000000E+00 -0.74505805969E-08  0.93827000000E+00  0.93827000000E+00 0. -1.
     999902    2    1    2    0    0 -0.15947210526E-01 -0.20727032941E-01  0.13979852960E-01  0.10142760002E+01  0.10138424161E+01 0.  0.
     999903    2    3    3    0    0 -0.74416595688E-01  0.46443431477E-01  0.89116443598E-01  0.12659585081E+00  0.19747072716E-01 0.  0.
         14    1    1    2    0    0  0.15947210526E-01  0.20727032941E-01 -0.13979852960E-01  0.29653999846E-01  0.00000000000E+00 0. -1.
     999901    1    3    3    0    0  0.58469385162E-01 -0.67170464418E-01 -0.75136590638E-01  0.88768014935E+00  0.88000000000E+00 0. -1.
        -11    1    4    4    0    0 -0.58937751792E-01  0.41077010921E-01  0.81118382725E-01  0.10835789103E+00  0.51100000000E-03 0.  1.
         11    1    4    4    0    0 -0.15478843896E-01  0.53664205554E-02  0.79980608735E-02  0.18237959773E-01  0.51100000000E-03 0. -1.
</event>
<event>
 8    1  0.9956970E+004  0.1043930E+01  0.7957747E-01            NaN
         13   -1    0    0    0    0  0.00000000000E+00  0.00000000000E+00  0.74505805969E-08  0.10566000000E+00  0.10566000000E+00 0. -1.
     999900   -1    0    0    0    0 -0.00000000000E+00 -0.00000000000E+00 -0.74505805969E-08  0.93827000000E+00  0.93827000000E+00 0.  1.
     999902    2    1    2    0    0 -0.95526970886E-02  0.12251373673E-01  0.19163870703E-01  0.10192600969E+01  0.10189615012E+01 0.  0.
     999903    2    3    3    0    0 -0.85264237019E-01  0.24242614933E-01 -0.91688141893E-01  0.12899935092E+00  0.19401615391E-01 0.  0.
         14    1    1    2    0    0  0.95526970886E-02 -0.12251373673E-01 -0.19163870703E-01  0.24669903098E-01  0.00000000000E+00 0.  1.
     999901    1    3    3    0    0  0.75711539931E-01 -0.11991241259E-01  0.11085201260E+00  0.89026074599E+00  0.88000000000E+00 0. -1.
        -11    1    4    4    0    0 -0.37415585944E-01  0.19269699856E-01 -0.49855311877E-01  0.65246154273E-01  0.51100000000E-03 0. -1.
         11    1    4    4    0    0 -0.47848651075E-01  0.49729150764E-02 -0.41832830017E-01  0.63753196644E-01  0.51100000000E-03 0.  1.
</event>
<event>
 8    1  0.9956970E+004  0.1043930E+01  0.7957747E-01            NaN
         13   -1    0    0    0    0  0.00000000000E+00  0.00000000000E+00  0.74505805969E-08  0.10566000000E+00  0.10566000000E+00 0. -1.
     999900   -1    0    0    0    0 -0.00000000000E+00 -0.00000000000E+00 -0.74505805969E-08  0.93827000000E+00  0.93827000000E+00 0.  1.
     999902    2    1    2    0    0 -0.14722845167E-01 -0.12279823782E-01 -0.13344023728E-01  0.10205715067E+01  0.10203041610E+01 0.  0.
     999903    2    3    3    0    0  0.25272681514E-01  0.10864435060E+00 -0.64214259600E-01  0.12994808511E+00  0.17908945802E-01 0.  0.
         14    1    1    2    0    0  0.14722845167E-01  0.12279823782E-01  0.13344023728E-01  0.23358493341E-01  0.00000000000E+00 0.  1.
     999901    1    3    3    0    0 -0.39995526681E-01 -0.12092417439E+00  0.50870235872E-01  0.89062342154E+00  0.88000000000E+00 0. -1.
        -11    1    4    4    0    0  0.69729772325E-03  0.34892140087E-01 -0.24561291588E-01  0.42678634343E-01  0.51100000000E-03 0.  1.
         11    1    4    4    0    0  0.24575383791E-01  0.73752210518E-01 -0.39652968012E-01  0.87269450771E-01  0.51100000000E-03 0. -1.
</event>
<event>
 8    1  0.1189565E+005  0.1043930E+01  0.7957747E-01            NaN
         13   -1    0    0    0    0  0.00000000000E+00  0.00000000000E+00  0.74505805969E-08  0.10566000000E+00  0.10566000000E+00 0.  1.
     999900   -1    0    0    0    0 -0.00000000000E+00 -0.00000000000E+00 -0.74505805969E-08  0.93827000000E+00  0.93827000000E+00 0. -1.
     999902    2    1    2    0    0  0.19273549127E-01  0.12388706968E-01 -0.63551608902E-02  0.10201531662E+01  0.10198760438E+01 0.  0.
     999903    2    3    3    0    0 -0.51267972326E-01  0.35381756245E-01 -0.11288339394E+00  0.13062910749E+00  0.21000700826E-01 0.  0.
         14    1    1    2    0    0 -0.19273549127E-01 -0.12388706968E-01  0.63551608902E-02  0.23776833814E-01  0.00000000000E+00 0. -1.
     999901    1    3    3    0    0  0.70541521453E-01 -0.22993049277E-01  0.10652823305E+00  0.88952405870E+00  0.88000000000E+00 0.  1.
        -11    1    4    4    0    0 -0.15411839486E-01  0.51490215831E-02 -0.47176314708E-01  0.49898927945E-01  0.51100000000E-03 0. -1.
         11    1    4    4    0    0 -0.35856132841E-01  0.30232734662E-01 -0.65707079229E-01  0.80730179544E-01  0.51100000000E-03 0.  1.
</event>
<event>
 8    1  0.9956970E+004  0.1043930E+01  0.7957747E-01            NaN
         13   -1    0    0    0    0  0.00000000000E+00  0.00000000000E+00  0.74505805969E-08  0.10566000000E+00  0.10566000000E+00 0. -1.
     999900   -1    0    0    0    0 -0.00000000000E+00 -0.00000000000E+00 -0.74505805969E-08  0.93827000000E+00  0.93827000000E+00 0.  1.
     999902    2    1    2    0    0  0.56787430332E-02  0.79132451768E-02  0.23141234047E-01  0.10188225452E+01  0.10185131292E+01 0.  0.
     999903    2    3    3    0    0  0.10757984550E+00 -0.24341675421E-01 -0.62165509601E-01  0.12826010773E+00  0.20497910352E-01 0.  0.
         14    1    1    2    0    0 -0.56787430332E-02 -0.79132451768E-02 -0.23141234047E-01  0.25107454767E-01  0.00000000000E+00 0.  1.
     999901    1    3    3    0    0 -0.10190110247E+00  0.32254920598E-01  0.85306743648E-01  0.89056243751E+00  0.88000000000E+00 0. -1.
        -11    1    4    4    0    0  0.54741381326E-01 -0.13840722803E-01 -0.20202531732E-01  0.59971558647E-01  0.51100000000E-03 0.  1.
         11    1    4    4    0    0  0.52838464179E-01 -0.10500952618E-01 -0.41962977869E-01  0.68288549079E-01  0.51100000000E-03 0. -1.
</event>
<event>
 7    1  0.9956970E+004  0.1043930E+01  0.7957747E-01            NaN
         13   -1    0    0    0    0  0.00000000000E+00  0.00000000000E+00  0.74505805969E-08  0.10566000000E+00  0.10566000000E+00 0. -1.
     999900   -1    0    0    0    0 -0.00000000000E+00 -0.00000000000E+00 -0.74505805969E-08  0.93827000000E+00  0.93827000000E+00 0. -1.
     999903    2    1    2    0    0  0.45448777670E-01  0.39643690953E-02 -0.81307343596E-01  0.94232452327E-01  0.13695376409E-01 0.  0.
         14    1    1    2    0    0 -0.23110353792E-01 -0.23604343347E-01 -0.49521592374E-01  0.59528493921E-01  0.00000000000E+00 0.  1.
     999901    1    1    2    0    0 -0.22338423878E-01  0.19639974251E-01  0.13082893597E+00  0.89016905375E+00  0.88000000000E+00 0.  1.
        -11    1    3    3    0    0  0.27114785536E-01  0.84289323500E-02 -0.54359395759E-01  0.61330771424E-01  0.51100000000E-03 0. -1.
         11    1    3    3    0    0  0.18333992134E-01 -0.44645632547E-02 -0.26947947837E-01  0.32901680903E-01  0.51100000000E-03 0.  1.
</event>
<event>
 8    1  0.9956970E+004  0.1043930E+01  0.7957747E-01            NaN
         13   -1    0    0    0    0  0.00000000000E+00  0.00000000000E+00  0.74505805969E-08  0.10566000000E+00  0.10566000000E+00 0. -1.
     999900   -1    0    0    0    0 -0.00000000000E+00 -0.00000000000E+00 -0.74505805969E-08  0.93827000000E+00  0.93827000000E+00 0.  1.
     999902    2    1    2    0    0 -0.14039934644E-01  0.13055433503E-01 -0.61329215974E-02  0.10238009952E+01  0.10236030973E+01 0.  0.
     999903    2    3    3    0    0  0.68904335061E-01 -0.11145071038E-01 -0.11173807088E+00  0.13328549060E+00  0.20189242697E-01 0.  0.
         14    1    1    2    0    0  0.14039934644E-01 -0.13055433503E-01  0.61329215974E-02  0.20129004846E-01  0.00000000000E+00 0.  1.
     999901    1    3    3    0    0 -0.82944269705E-01  0.24200504541E-01  0.10560514929E+00  0.89051550455E+00  0.88000000000E+00 0. -1.
        -11    1    4    4    0    0  0.60853196805E-01 -0.72960945464E-02 -0.82921172120E-01  0.10311414289E+00  0.51100000000E-03 0. -1.
         11    1    4    4    0    0  0.80511382562E-02 -0.38489764913E-02 -0.28816898764E-01  0.30171347710E-01  0.51100000000E-03 0.  1.
</event>
<event>
 8    1  0.9956970E+004  0.1043930E+01  0.7957747E-01            NaN
         13   -1    0    0    0    0  0.00000000000E+00  0.00000000000E+00  0.74505805969E-08  0.10566000000E+00  0.10566000000E+00 0. -1.
     999900   -1    0    0    0    0 -0.00000000000E+00 -0.00000000000E+00 -0.74505805969E-08  0.93827000000E+00  0.93827000000E+00 0.  1.
     999902    2    1    2    0    0 -0.97238437928E-02  0.63605747209E-02  0.20263130363E-01  0.10205718215E+01  0.10203044832E+01 0.  0.
     999903    2    3    3    0    0 -0.58579189040E-01  0.11638682884E+00  0.13511915377E-01  0.13234988967E+00  0.18881369701E-01 0.  0.
         14    1    1    2    0    0  0.97238437928E-02 -0.63605747209E-02 -0.20263130363E-01  0.23358178461E-01  0.00000000000E+00 0.  1.
     999901    1    3    3    0    0  0.48855345248E-01 -0.11002625412E+00  0.67512149862E-02  0.88822193187E+00  0.88000000000E+00 0. -1.
        -11    1    4    4    0    0 -0.46558815449E-01  0.72720481367E-01  0.98198362449E-02  0.86906167855E-01  0.51100000000E-03 0.  1.
         11    1    4    4    0    0 -0.12020373591E-01  0.43666347472E-01  0.36920791319E-02  0.45443721813E-01  0.51100000000E-03 0. -1.
</event>
<event>
 8    1  0.9956970E+004  0.1043930E+01  0.7957747E-01            NaN
         13   -1    0    0    0    0  0.00000000000E+00  0.00000000000E+00  0.74505805969E-08  0.10566000000E+00  0.10566000000E+00 0. -1.
     999900   -1    0    0    0    0 -0.00000000000E+00 -0.00000000000E+00 -0.74505805969E-08  0.93827000000E+00  0.93827000000E+00 0.  1.
     999902    2    1    2    0    0  0.18185786397E-02 -0.10189029787E-01 -0.21455637663E-01  0.10201084143E+01  0.10198302354E+01 0.  0.
     999903    2    3    3    0    0 -0.98015476131E-01  0.70893151798E-01 -0.43849201454E-01  0.13047779977E+00  0.21652510984E-01 0.  0.
         14    1    1    2    0    0 -0.18185786397E-02  0.10189029787E-01  0.21455637663E-01  0.23821585669E-01  0.00000000000E+00 0. -1.
     999901    1    3    3    0    0  0.99834054771E-01 -0.81082181585E-01  0.22393563790E-01  0.88963061456E+00  0.88000000000E+00 0. -1.
        -11    1    4    4    0    0 -0.46302981209E-01  0.38108332135E-01 -0.32474838463E-01  0.68198880498E-01  0.51100000000E-03 0. -1.
         11    1    4    4    0    0 -0.51712494922E-01  0.32784819663E-01 -0.11374362991E-01  0.62278919273E-01  0.51100000000E-03 0.  1.
</event>
<event>
 8    1  0.9956970E+004  0.1043930E+01  0.7957747E-01            NaN
         13   -1    0    0    0    0  0.00000000000E+00  0.00000000000E+00  0.74505805969E-08  0.10566000000E+00  0.10566000000E+00 0. -1.
     999900   -1    0    0    0    0 -0.00000000000E+00 -0.00000000000E+00 -0.74505805969E-08  0.93827000000E+00  0.93827000000E+00 0. -1.
     999902    2    1    2    0    0  0.80102840370E-02 -0.70163292370E-02 -0.21178749186E-01  0.10202248752E+01  0.10199494414E+01 0.  0.
     999903    2    3    3    0    0  0.17453608178E-01  0.98339719252E-01 -0.83234237221E-01  0.13172053814E+00  0.21143157291E-01 0.  0.
         14    1    1    2    0    0 -0.80102840370E-02  0.70163292370E-02  0.21178749186E-01  0.23705124834E-01  0.00000000000E+00 0. -1.
     999901    1    3    3    0    0 -0.94433241405E-02 -0.10535604849E+00  0.62055488035E-01  0.88850433703E+00  0.88000000000E+00 0. -1.
        -11    1    4    4    0    0  0.97079134334E-02  0.24563644907E-01 -0.12523400993E-01  0.29235473791E-01  0.51100000000E-03 0. -1.
         11    1    4    4    0    0  0.77456947441E-02  0.73776074345E-01 -0.70710836229E-01  0.10248506435E+00  0.51100000000E-03 0.  1.
</event>
<event>
 8    1  0.9956970E+004  0.1043930E+01  0.7957747E-01            NaN
         13   -1    0    0    0    0  0.00000000000E+00  0.00000000000E+00  0.74505805969E-08  0.10566000000E+00  0.10566000000E+00 0.  1.
     999900   -1    0    0    0    0 -0.00000000000E+00 -0.00000000000E+00 -0.74505805969E-08  0.93827000000E+00  0.93827000000E+00 0. -1.
     999902    2    1    2    0    0 -0.19326097453E-01 -0.12861009019E-01 -0.22230950355E-02  0.10206094994E+01  0.10203430328E+01 0.  0.
     999903    2    3    3    0    0 -0.16247711705E-01  0.76942468042E-01 -0.10167228856E+00  0.13046103818E+00  0.22331518058E-01 0.  0.
         14    1    1    2    0    0  0.19326097453E-01  0.12861009019E-01  0.22230950355E-02  0.23320500580E-01  0.00000000000E+00 0.  1.
     999901    1    3    3    0    0 -0.30783857485E-02 -0.89803477061E-01  0.99449193523E-01  0.89014846124E+00  0.88000000000E+00 0.  1.
        -11    1    4    4    0    0 -0.68665212817E-02  0.59034847827E-01 -0.87459713108E-01  0.10574367551E+00  0.51100000000E-03 0.  1.
         11    1    4    4    0    0 -0.93811904232E-02  0.17907620215E-01 -0.14212575451E-01  0.24717362672E-01  0.51100000000E-03 0. -1.
</event>
<event>
 8    1  0.9956970E+004  0.1043930E+01  0.7957747E-01            NaN
         13   -1    0    0    0    0  0.00000000000E+00  0.00000000000E+00  0.74505805969E-08  0.10566000000E+00  0.10566000000E+00 0.  1.
     999900   -1    0    0    0    0 -0.00000000000E+00 -0.00000000000E+00 -0.74505805969E-08  0.93827000000E+00  0.93827000000E+00 0.  1.
     999902    2    1    2    0    0 -0.12406875822E-01  0.16253323070E-01  0.11773697046E-01  0.10203350637E+01  0.10200622143E+01 0.  0.
     999903    2    3    3    0    0 -0.41710265429E-01  0.59195889632E-01  0.11012531160E+00  0.13333123461E+00  0.20142846783E-01 0.  0.
         14    1    1    2    0    0  0.12406875822E-01 -0.16253323070E-01 -0.11773697046E-01  0.23594936334E-01  0.00000000000E+00 0.  1.
     999901    1    3    3    0    0  0.29303389607E-01 -0.42942566562E-01 -0.98351614558E-01  0.88700382905E+00  0.88000000000E+00 0.  1.
        -11    1    4    4    0    0 -0.23413776029E-01  0.30725718273E-01  0.40822915159E-01  0.56205392930E-01  0.51100000000E-03 0. -1.
         11    1    4    4    0    0 -0.18296489400E-01  0.28470171359E-01  0.69302396445E-01  0.77125841685E-01  0.51100000000E-03 0.  1.
</event>
<event>
 8    1  0.9956970E+004  0.1043930E+01  0.7957747E-01            NaN
         13   -1    0    0    0    0  0.00000000000E+00  0.00000000000E+00  0.74505805969E-08  0.10566000000E+00  0.10566000000E+00 0.  1.
     999900   -1    0    0    0    0 -0.00000000000E+00 -0.00000000000E+00 -0.74505805969E-08  0.93827000000E+00  0.93827000000E+00 0.  1.
     999902    2    1    2    0    0 -0.10534963997E-01 -0.20770378528E-01  0.29008423962E-02  0.10204606801E+01  0.10201907619E+01 0.  0.
     999903    2    3    3    0    0  0.32632972168E-01 -0.15721561565E-01 -0.12268948085E+00  0.13048209014E+00  0.25705811923E-01 0.  0.
         14    1    1    2    0    0  0.10534963997E-01  0.20770378528E-01 -0.29008423962E-02  0.23469319914E-01  0.00000000000E+00 0.  1.
     999901    1    3    3    0    0 -0.43167936165E-01 -0.50488169628E-02  0.12559032324E+00  0.88997858994E+00  0.88000000000E+00 0. -1.
        -11    1    4    4    0    0  0.27628401251E-01 -0.97882326647E-02 -0.54801096514E-01  0.62149491989E-01  0.51100000000E-03 0.  1.
         11    1    4    4    0    0  0.50045709174E-02 -0.59333289002E-02 -0.67888384334E-01  0.68332598153E-01  0.51100000000E-03 0. -1.
</event>
<event>
 8    1  0.9956970E+004  0.1043930E+01  0.7957747E-01            NaN
         13   -1    0    0    0    0  0.00000000000E+00  0.00000000000E+00  0.74505805969E-08  0.10566000000E+00  0.10566000000E+00 0. -1.
     999900   -1    0    0    0    0 -0.00000000000E+00 -0.00000000000E+00 -0.74505805969E-08  0.93827000000E+00  0.93827000000E+00 0.  1.
     999902    2    1    2    0    0 -0.22656332141E-01 -0.72301005922E-02  0.39312458389E-02  0.10198252612E+01  0.10195403498E+01 0.  0.
     999903    2    3    3    0    0 -0.30502286577E-01  0.11874703012E+00 -0.40267462055E-01  0.12972115363E+00  0.13223560461E-01 0.  0.
         14    1    1    2    0    0  0.22656332141E-01  0.72301005922E-02 -0.39312458389E-02  0.24104738839E-01  0.00000000000E+00 0. -1.
     999901    1    3    3    0    0  0.78459544365E-02 -0.12597713071E+00  0.44198707894E-01  0.89010410753E+00  0.88000000000E+00 0. -1.
        -11    1    4    4    0    0 -0.17283051898E-01  0.59233189830E-01 -0.26860311959E-01  0.67297935629E-01  0.51100000000E-03 0.  1.
         11    1    4    4    0    0 -0.13219234679E-01  0.59513840286E-01 -0.13407150096E-01  0.62423218002E-01  0.51100000000E-03 0. -1.
</event>
<event>
 8    1  0.9956970E+004  0.1043930E+01  0.7957747E-01            NaN
         13   -1    0    0    0    0  0.00000000000E+00  0.00000000000E+00  0.74505805969E-08  0.10566000000E+00  0.10566000000E+00 0.  1.
     999900   -1    0    0    0    0 -0.00000000000E+00 -0.00000000000E+00 -0.74505805969E-08  0.93827000000E+00  0.93827000000E+00 0.  1.
     999902    2    1    2    0    0  0.25312953091E-02 -0.18232000726E-01 -0.15664506894E-01  0.10197599755E+01  0.10194735002E+01 0.  0.
     999903    2    3    3    0    0  0.49705060973E-01  0.56032773009E-01 -0.10532929582E+00  0.13083905939E+00  0.20355199991E-01 0.  0.
         14    1    1    2    0    0 -0.25312953091E-02  0.18232000726E-01  0.15664506894E-01  0.24170024465E-01  0.00000000000E+00 0.  1.
     999901    1    3    3    0    0 -0.47173765664E-01 -0.74264773735E-01  0.89664788927E-01  0.88892091614E+00  0.88000000000E+00 0.  1.
        -11    1    4    4    0    0  0.41223495385E-01  0.34530664228E-01 -0.65100876631E-01  0.84440088838E-01  0.51100000000E-03 0.  1.
         11    1    4    4    0    0  0.84815655881E-02  0.21502108780E-01 -0.40228419190E-01  0.46398970553E-01  0.51100000000E-03 0. -1.
</event>
<event>
 8    1  0.9956970E+004  0.1043930E+01  0.7957747E-01            NaN
         13   -1    0    0    0    0  0.00000000000E+00  0.00000000000E+00  0.74505805969E-08  0.10566000000E+00  0.10566000000E+00 0.  1.
     999900   -1    0    0    0    0 -0.00000000000E+00 -0.00000000000E+00 -0.74505805969E-08  0.93827000000E+00  0.93827000000E+00 0.  1.
     999902    2    1    2    0    0  0.20631056969E-01  0.72814515528E-02  0.90375147898E-02  0.10202585674E+01  0.10199839252E+01 0.  0.
     999903    2    3    3    0    0 -0.10635545277E+00 -0.11729348603E-01  0.68938252227E-01  0.12892525009E+00  0.20498232564E-01 0.  0.
         14    1    1    2    0    0 -0.20631056969E-01 -0.72814515528E-02 -0.90375147898E-02  0.23671432613E-01  0.00000000000E+00 0.  1.
     999901    1    3    3    0    0  0.12698650974E+00  0.19010800156E-01 -0.59900737438E-01  0.89133331730E+00  0.88000000000E+00 0.  1.
        -11    1    4    4    0    0 -0.42441796062E-01 -0.10554655277E-01  0.37846220873E-01  0.57838606107E-01  0.51100000000E-03 0.  1.
         11    1    4    4    0    0 -0.63913656707E-01 -0.11746933262E-02  0.31092031354E-01  0.71086643984E-01  0.51100000000E-03 0. -1.
</event>
<event>
 8    1  0.9956970E+004  0.1043930E+01  0.7957747E-01            NaN
         13   -1    0    0    0    0  0.00000000000E+00  0.00000000000E+00  0.74505805969E-08  0.10566000000E+00  0.10566000000E+00 0.  1.
     999900   -1    0    0    0    0 -0.00000000000E+00 -0.00000000000E+00 -0.74505805969E-08  0.93827000000E+00  0.93827000000E+00 0. -1.
     999902    2    1    2    0    0 -0.11112149260E-01 -0.49028429788E-02  0.19967029379E-01  0.10205590781E+01  0.10202914445E+01 0.  0.
     999903    2    3    3    0    0 -0.11697100318E+00 -0.58863773470E-02 -0.55269802020E-01  0.13102681608E+00  0.19910060118E-01 0.  0.
         14    1    1    2    0    0  0.11112149260E-01  0.49028429788E-02 -0.19967029379E-01  0.23370921947E-01  0.00000000000E+00 0. -1.
     999901    1    3    3    0    0  0.10585885392E+00  0.98353436820E-03  0.75236831399E-01  0.88953226197E+00  0.88000000000E+00 0.  1.
        -11    1    4    4    0    0 -0.43283567187E-01 -0.10221852909E-01 -0.26689512523E-01  0.51870460428E-01  0.51100000000E-03 0. -1.
         11    1    4    4    0    0 -0.73687435990E-01  0.43354755624E-02 -0.28580289497E-01  0.79156355651E-01  0.51100000000E-03 0.  1.
</event>
<event>
 8    1  0.9956970E+004  0.1043930E+01  0.7957747E-01            NaN
         13   -1    0    0    0    0  0.00000000000E+00  0.00000000000E+00  0.74505805969E-08  0.10566000000E+00  0.10566000000E+00 0.  1.
     999900   -1    0    0    0    0 -0.00000000000E+00 -0.00000000000E+00 -0.74505805969E-08  0.93827000000E+00  0.93827000000E+00 0.  1.
     999902    2    1    2    0    0 -0.18156767501E-02 -0.11962620099E-01 -0.20750651188E-01  0.10199093737E+01  0.10196264709E+01 0.  0.
     999903    2    3    3    0    0  0.11408352156E+00 -0.59238136456E-01 -0.16064904396E-01  0.13103955489E+00  0.19725037185E-01 0.  0.
         14    1    1    2    0    0  0.18156767501E-02  0.11962620099E-01  0.20750651188E-01  0.24020626270E-01  0.00000000000E+00 0.  1.
     999901    1    3    3    0    0 -0.11589919831E+00  0.47275516358E-01 -0.46857467923E-02  0.88886981884E+00  0.88000000000E+00 0. -1.
        -11    1    4    4    0    0  0.49592710693E-01 -0.32839073219E-01 -0.15002543633E-01  0.61344756257E-01  0.51100000000E-03 0.  1.
         11    1    4    4    0    0  0.64490810864E-01 -0.26399063238E-01 -0.10623607630E-02  0.69694798637E-01  0.51100000000E-03 0. -1.
</event>
<event>
 8    1  0.1577940E+005  0.1043930E+01  0.7957747E-01            NaN
         13   -1    0    0    0    0  0.00000000000E+00  0.00000000000E+00  0.74505805969E-08  0.10566000000E+00  0.10566000000E+00 0. -1.
     999900   -1    0    0    0    0 -0.00000000000E+00 -0.00000000000E+00 -0.74505805969E-08  0.93827000000E+00  0.93827000000E+00 0.  1.
     999902    2    1    2    0    0 -0.20584253051E-02  0.19332498808E-01  0.12419844962E-01  0.10208597773E+01  0.10205990642E+01 0.  0.
     999903    2    3    3    0    0 -0.87505128319E-01  0.98151027658E-01  0.38125513926E-02  0.13317312933E+00  0.20731018184E-01 0.  0.
         14    1    1    2    0    0  0.20584253051E-02 -0.19332498808E-01 -0.12419844962E-01  0.23070222664E-01  0.00000000000E+00 0.  1.
     999901    1    3    3    0    0  0.85446703014E-01 -0.78818528850E-01  0.86072935692E-02  0.88768664801E+00  0.88000000000E+00 0. -1.
        -11    1    4    4    0    0 -0.31065571251E-01  0.50207766396E-01  0.56622548687E-03  0.59046348371E-01  0.51100000000E-03 0. -1.
         11    1    4    4    0    0 -0.56439557068E-01  0.47943261262E-01  0.32463259057E-02  0.74126780959E-01  0.51100000000E-03 0.  1.
</event>
<event>
 8    1  0.9956970E+004  0.1043930E+01  0.7957747E-01            NaN
         13   -1    0    0    0    0  0.00000000000E+00  0.00000000000E+00  0.74505805969E-08  0.10566000000E+00  0.10566000000E+00 0.  1.
     999900   -1    0    0    0    0 -0.00000000000E+00 -0.00000000000E+00 -0.74505805969E-08  0.93827000000E+00  0.93827000000E+00 0. -1.
     999902    2    1    2    0    0  0.13337473938E-01 -0.30025523646E-02 -0.18275943163E-01  0.10211064676E+01  0.10208513626E+01 0.  0.
     999903    2    3    3    0    0 -0.23495931557E-01 -0.81106298334E-01 -0.10069512154E+00  0.13304688862E+00  0.20776829392E-01 0.  0.
         14    1    1    2    0    0 -0.13337473938E-01  0.30025523646E-02  0.18275943163E-01  0.22823532379E-01  0.00000000000E+00 0.  1.
     999901    1    3    3    0    0  0.36833405495E-01  0.78103745969E-01  0.82419178378E-01  0.88805957900E+00  0.88000000000E+00 0.  1.
        -11    1    4    4    0    0 -0.18240337618E-01 -0.76285480214E-01 -0.97710885206E-01  0.12529909264E+00  0.51100000000E-03 0. -1.
         11    1    4    4    0    0 -0.52555939391E-02 -0.48208181196E-02 -0.29842363349E-02  0.77477959767E-02  0.51100000000E-03 0.  1.
</event>
<event>
 8    1  0.9956970E+004  0.1043930E+01  0.7957747E-01            NaN
         13   -1    0    0    0    0  0.00000000000E+00  0.00000000000E+00  0.74505805969E-08  0.10566000000E+00  0.10566000000E+00 0.  1.
     999900   -1    0    0    0    0 -0.00000000000E+00 -0.00000000000E+00 -0.74505805969E-08  0.93827000000E+00  0.93827000000E+00 0.  1.
     999902    2    1    2    0    0 -0.17485798002E-01  0.18702223019E-01 -0.18448941784E-02  0.10182603698E+01  0.10179367617E+01 0.  0.
     999903    2    3    3    0    0  0.74645403857E-01 -0.48242920935E-01 -0.88220946435E-01  0.12672762617E+00  0.19432964424E-01 0.  0.
         14    1    1    2    0    0  0.17485798002E-01 -0.18702223019E-01  0.18448941784E-02  0.25669630152E-01  0.00000000000E+00 0. -1.
     999901    1    3    3    0    0 -0.92131201859E-01  0.66945143954E-01  0.86376052256E-01  0.89153274368E+00  0.88000000000E+00 0. -1.
        -11    1    4    4    0    0  0.18825346714E-01 -0.98351952110E-02 -0.10768447340E-01  0.23819011794E-01  0.51100000000E-03 0. -1.
         11    1    4    4    0    0  0.55820057143E-01 -0.38407725724E-01 -0.77452499094E-01  0.10290861437E+00  0.51100000000E-03 0.  1.
</event>
<event>
 8    1  0.9956970E+004  0.1043930E+01  0.7957747E-01            NaN
         13   -1    0    0    0    0  0.00000000000E+00  0.00000000000E+00  0.74505805969E-08  0.10566000000E+00  0.10566000000E+00 0.  1.
     999900   -1    0    0    0    0 -0.00000000000E+00 -0.00000000000E+00 -0.74505805969E-08  0.93827000000E+00  0.93827000000E+00 0. -1.
     999902    2    1    2    0    0  0.58118290900E-02  0.19775879011E-01 -0.68686021265E-02  0.10222035083E+01  0.10219725886E+01 0.  0.
     999903    2    3    3    0    0 -0.10474452939E+00 -0.33824418306E-01  0.67233210634E-01  0.13058319730E+00  0.20399977771E-01 0.  0.
         14    1    1    2    0    0 -0.58118290900E-02 -0.19775879011E-01  0.68686021265E-02  0.21726491737E-01  0.00000000000E+00 0.  1.
     999901    1    3    3    0    0  0.11055635848E+00  0.53600297317E-01 -0.74101812761E-01  0.89162031097E+00  0.88000000000E+00 0.  1.
        -11    1    4    4    0    0 -0.24166918856E-01 -0.85624819793E-02  0.26322250500E-01  0.36748851098E-01  0.51100000000E-03 0. -1.
         11    1    4    4    0    0 -0.80577610534E-01 -0.25261936326E-01  0.40910960134E-01  0.93834346198E-01  0.51100000000E-03 0.  1.
</event>
<event>
 8    1  0.9956970E+004  0.1043930E+01  0.7957747E-01            NaN
         13   -1    0    0    0    0  0.00000000000E+00  0.00000000000E+00  0.74505805969E-08  0.10566000000E+00  0.10566000000E+00 0.  1.
     999900   -1    0    0    0    0 -0.00000000000E+00 -0.00000000000E+00 -0.74505805969E-08  0.93827000000E+00  0.93827000000E+00 0. -1.
     999902    2    1    2    0    0  0.94807429409E-02  0.15739863147E-01  0.14614604042E-01  0.10204520437E+01  0.10201819245E+01 0.  0.
     999903    2    3    3    0    0  0.76664239522E-01 -0.87876905837E-01  0.56060660435E-01  0.13086346883E+00  0.19562556714E-01 0.  0.
         14    1    1    2    0    0 -0.94807429409E-02 -0.15739863147E-01 -0.14614604042E-01  0.23477956255E-01  0.00000000000E+00 0.  1.
     999901    1    3    3    0    0 -0.67183496581E-01  0.10361676898E+00 -0.41446056394E-01  0.88958857491E+00  0.88000000000E+00 0.  1.
        -11    1    4    4    0    0  0.32957303451E-01 -0.50535264210E-01  0.34237720465E-01  0.69372036175E-01  0.51100000000E-03 0. -1.
         11    1    4    4    0    0  0.43706936070E-01 -0.37341641627E-01  0.21822939971E-01  0.61491432655E-01  0.51100000000E-03 0.  1.
</event>
<event>
 8    1  0.9956970E+004  0.1043930E+01  0.7957747E-01            NaN
         13   -1    0    0    0    0  0.00000000000E+00  0.00000000000E+00  0.74505805969E-08  0.10566000000E+00  0.10566000000E+00 0. -1.
     999900   -1    0    0    0    0 -0.00000000000E+00 -0.00000000000E+00 -0.74505805969E-08  0.93827000000E+00  0.93827000000E+00 0. -1.
     999902    2    1    2    0    0 -0.70442118021E-02 -0.10190648384E-02 -0.22536594342E-01  0.10202961789E+01  0.10200224190E+01 0.  0.
     999903    2    3    3    0    0  0.19280107110E-02  0.92483641802E-01  0.86943095655E-01  0.12855122693E+00  0.20233013533E-01 0.  0.
         14    1    1    2    0    0  0.70442118021E-02  0.10190648384E-02  0.22536594342E-01  0.23633821054E-01  0.00000000000E+00 0. -1.
     999901    1    3    3    0    0 -0.89722225131E-02 -0.93502706640E-01 -0.10947969000E+00  0.89174495202E+00  0.88000000000E+00 0. -1.
        -11    1    4    4    0    0  0.39282609757E-02  0.98306125236E-02  0.36999079087E-02  0.11225979530E-01  0.51100000000E-03 0.  1.
         11    1    4    4    0    0 -0.20002502647E-02  0.82653029278E-01  0.83243187746E-01  0.11732524740E+00  0.51100000000E-03 0. -1.
</event>
<event>
 8    1  0.9956970E+004  0.1043930E+01  0.7957747E-01            NaN
         13   -1    0    0    0    0  0.00000000000E+00  0.00000000000E+00  0.74505805969E-08  0.10566000000E+00  0.10566000000E+00 0.  1.
     999900   -1    0    0    0    0 -0.00000000000E+00 -0.00000000000E+00 -0.74505805969E-08  0.93827000000E+00  0.93827000000E+00 0. -1.
     999902    2    1    2    0    0  0.46411342779E-02  0.20423465844E-01 -0.11979893148E-01  0.10198016780E+01  0.10195162022E+01 0.  0.
     999903    2    3    3    0    0 -0.84606576621E-01  0.15794436796E-01 -0.97023726529E-01  0.13119657140E+00  0.19778771373E-01 0.  0.
         14    1    1    2    0    0 -0.46411342779E-02 -0.20423465844E-01  0.11979893148E-01  0.24128322037E-01  0.00000000000E+00 0. -1.
     999901    1    3    3    0    0  0.89247710898E-01  0.46290290471E-02  0.85043833380E-01  0.88860510656E+00  0.88000000000E+00 0. -1.
        -11    1    4    4    0    0 -0.39774938309E-01  0.43766612055E-02 -0.31217363711E-01  0.50754170261E-01  0.51100000000E-03 0.  1.
         11    1    4    4    0    0 -0.44831638312E-01  0.11417775591E-01 -0.65806362818E-01  0.80442401142E-01  0.51100000000E-03 0. -1.
</event>
<event>
 8    1  0.9956970E+004  0.1043930E+01  0.7957747E-01            NaN
         13   -1    0    0    0    0  0.00000000000E+00  0.00000000000E+00  0.74505805969E-08  0.10566000000E+00  0.10566000000E+00 0.  1.
     999900   -1    0    0    0    0 -0.00000000000E+00 -0.00000000000E+00 -0.74505805969E-08  0.93827000000E+00  0.93827000000E+00 0. -1.
     999902    2    1    2    0    0 -0.14568530377E-02  0.18451032716E-01 -0.53252700675E-02  0.10246706768E+01  0.10244896653E+01 0.  0.
     999903    2    3    3    0    0  0.12414428232E+00  0.68778135040E-02  0.46452101439E-01  0.13417054720E+00  0.19617106247E-01 0.  0.
         14    1    1    2    0    0  0.14568530377E-02 -0.18451032716E-01  0.53252700675E-02  0.19259323206E-01  0.00000000000E+00 0. -1.
     999901    1    3    3    0    0 -0.12560113535E+00  0.11573219212E-01 -0.51777371506E-01  0.89050012959E+00  0.88000000000E+00 0. -1.
        -11    1    4    4    0    0  0.32751867221E-01 -0.62563970009E-02  0.15630288985E-01  0.36829259627E-01  0.51100000000E-03 0. -1.
         11    1    4    4    0    0  0.91392415096E-01  0.13134210505E-01  0.30821812454E-01  0.97341287574E-01  0.51100000000E-03 0.  1.
</event>
<event>
 8    1  0.9956970E+004  0.1043930E+01  0.7957747E-01            NaN
         13   -1    0    0    0    0  0.00000000000E+00  0.00000000000E+00  0.74505805969E-08  0.10566000000E+00  0.10566000000E+00 0. -1.
     999900   -1    0    0    0    0 -0.00000000000E+00 -0.00000000000E+00 -0.74505805969E-08  0.93827000000E+00  0.93827000000E+00 0.  1.
     999902    2    1    2    0    0  0.20551804660E-02 -0.19286867479E-01 -0.14944225271E-01  0.10194445575E+01  0.10191504644E+01 0.  0.
     999903    2    3    3    0    0 -0.11776484461E+00 -0.48680155877E-01  0.18501040897E-01  0.13020927391E+00  0.19335208718E-01 0.  0.
         14    1    1    2    0    0 -0.20551804660E-02  0.19286867479E-01  0.14944225271E-01  0.24485442468E-01  0.00000000000E+00 0. -1.
     999901    1    3    3    0    0  0.11982002507E+00  0.29393288398E-01 -0.33445266168E-01  0.88923528362E+00  0.88000000000E+00 0. -1.
        -11    1    4    4    0    0 -0.62598943341E-01 -0.30411805439E-01  0.18809630309E-01  0.72094167107E-01  0.51100000000E-03 0.  1.
         11    1    4    4    0    0 -0.55165901266E-01 -0.18268350437E-01 -0.30858941193E-03  0.58115106802E-01  0.51100000000E-03 0. -1.
</event>
<event>
 8    1  0.9956970E+004  0.1043930E+01  0.7957747E-01            NaN
         13   -1    0    0    0    0  0.00000000000E+00  0.00000000000E+00  0.74505805969E-08  0.10566000000E+00  0.10566000000E+00 0.  1.
     999900   -1    0    0    0    0 -0.00000000000E+00 -0.00000000000E+00 -0.74505805969E-08  0.93827000000E+00  0.93827000000E+00 0.  1.
     999902    2    1    2    0    0  0.19078468153E-01 -0.50138262554E-02 -0.10992057819E-01  0.10213478890E+01  0.10210982121E+01 0.  0.
     999903    2    3    3    0    0 -0.37398375911E-01  0.11818912499E+00 -0.36155571527E-01  0.13061683897E+00  0.19652620269E-01 0.  0.
         14    1    1    2    0    0 -0.19078468153E-01  0.50138262554E-02  0.10992057819E-01  0.22582110970E-01  0.00000000000E+00 0. -1.
     999901    1    3    3    0    0  0.56476844063E-01 -0.12320295125E+00  0.25163513709E-01  0.89073105006E+00  0.88000000000E+00 0.  1.
        -11    1    4    4    0    0 -0.20994069221E-01  0.35809385241E-01 -0.11665553457E-01  0.43120868176E-01  0.51100000000E-03 0.  1.
         11    1    4    4    0    0 -0.16404306689E-01  0.82379739754E-01 -0.24490018071E-01  0.87495970798E-01  0.51100000000E-03 0. -1.
</event>
<event>
 8    1  0.9956970E+004  0.1043930E+01  0.7957747E-01            NaN
         13   -1    0    0    0    0  0.00000000000E+00  0.00000000000E+00  0.74505805969E-08  0.10566000000E+00  0.10566000000E+00 0.  1.
     999900   -1    0    0    0    0 -0.00000000000E+00 -0.00000000000E+00 -0.74505805969E-08  0.93827000000E+00  0.93827000000E+00 0. -1.
     999902    2    1    2    0    0  0.18485714920E-01 -0.61876401928E-02  0.15069365743E-01  0.10192907157E+01  0.10189928698E+01 0.  0.
     999903    2    3    3    0    0 -0.58364611723E-01  0.93820160400E-01  0.63681204007E-01  0.12897018706E+00  0.19218819101E-01 0.  0.
         14    1    1    2    0    0 -0.18485714920E-01  0.61876401928E-02 -0.15069365743E-01  0.24639284307E-01  0.00000000000E+00 0. -1.
     999901    1    3    3    0    0  0.76850326642E-01 -0.10000780059E+00 -0.48611838264E-01  0.89032052863E+00  0.88000000000E+00 0.  1.
        -11    1    4    4    0    0 -0.43712047006E-01  0.71369889017E-01  0.38270987820E-01  0.92028983160E-01  0.51100000000E-03 0. -1.
         11    1    4    4    0    0 -0.14652564717E-01  0.22450271383E-01  0.25410216188E-01  0.36941203901E-01  0.51100000000E-03 0.  1.
</event>
<event>
 8    1  0.9956970E+004  0.1043930E+01  0.7957747E-01            NaN
         13   -1    0    0    0    0  0.00000000000E+00  0.00000000000E+00  0.74505805969E-08  0.10566000000E+00  0.10566000000E+00 0.  1.
     999900   -1    0    0    0    0 -0.00000000000E+00 -0.00000000000E+00 -0.74505805969E-08  0.93827000000E+00  0.93827000000E+00 0.  1.
     999902    2    1    2    0    0  0.23842234987E-01 -0.19555101498E-01  0.20772083797E-01  0.10067502524E+01  0.10060634856E+01 0.  0.
     999903    2    3    3    0    0  0.98281895325E-02 -0.24017180955E-01  0.11677888732E+00  0.12140647178E+00  0.20707597024E-01 0.  0.
         14    1    1    2    0    0 -0.23842234987E-01  0.19555101498E-01 -0.20772083797E-01  0.37179747566E-01  0.00000000000E+00 0.  1.
     999901    1    3    3    0    0  0.14014045455E-01  0.44620794569E-02 -0.96006803527E-01  0.88534378066E+00  0.88000000000E+00 0.  1.
        -11    1    4    4    0    0  0.69687056071E-02 -0.27473278117E-01  0.93872915778E-01  0.98059825137E-01  0.51100000000E-03 0.  1.
         11    1    4    4    0    0  0.28594839254E-02  0.34560971613E-02  0.22905971546E-01  0.23346646641E-01  0.51100000000E-03 0. -1.
</event>
<event>
 8    1  0.9956970E+004  0.1043930E+01  0.7957747E-01            NaN
         13   -1    0    0    0    0  0.00000000000E+00  0.00000000000E+00  0.74505805969E-08  0.10566000000E+00  0.10566000000E+00 0. -1.
     999900   -1    0    0    0    0 -0.00000000000E+00 -0.00000000000E+00 -0.74505805969E-08  0.93827000000E+00  0.93827000000E+00 0.  1.
     999902    2    1    2    0    0 -0.18131326536E-01  0.13339352691E-01 -0.40418291284E-02  0.10210603757E+01  0.10208042276E+01 0.  0.
     999903    2    3    3    0    0 -0.64434647873E-01 -0.11210820210E+00 -0.55596384109E-02  0.13095735341E+00  0.19971129366E-01 0.  0.
         14    1    1    2    0    0  0.18131326536E-01 -0.13339352691E-01  0.40418291284E-02  0.22869624283E-01  0.00000000000E+00 0.  1.
     999901    1    3    3    0    0  0.46303321337E-01  0.12544755479E+00  0.15178092826E-02  0.89010302230E+00  0.88000000000E+00 0.  1.
        -11    1    4    4    0    0 -0.33217747186E-01 -0.52098908073E-01  0.69014454114E-02  0.62173997944E-01  0.51100000000E-03 0. -1.
         11    1    4    4    0    0 -0.31216900686E-01 -0.60009294030E-01 -0.12461083822E-01  0.68783355468E-01  0.51100000000E-03 0.  1.
</event>
<event>
 8    1  0.9956970E+004  0.1043930E+01  0.7957747E-01            NaN
         13   -1    0    0    0    0  0.00000000000E+00  0.00000000000E+00  0.74505805969E-08  0.10566000000E+00  0.10566000000E+00 0. -1.
     999900   -1    0    0    0    0 -0.00000000000E+00 -0.00000000000E+00 -0.74505805969E-08  0.93827000000E+00  0.93827000000E+00 0.  1.
     999902    2    1    2    0    0 -0.23904803439E-01  0.21601075625E-02 -0.53836980464E-02  0.10193314249E+01  0.10190345744E+01 0.  0.
     999903    2    3    3    0    0 -0.12610277063E+00  0.37632685136E-01 -0.47577030651E-02  0.13270685941E+00  0.16442233581E-01 0.  0.
         14    1    1    2    0    0  0.23904803439E-01 -0.21601075625E-02  0.53836980464E-02  0.24598575096E-01  0.00000000000E+00 0.  1.
     999901    1    3    3    0    0  0.10219796720E+00 -0.35472577574E-01 -0.62599498121E-03  0.88662456549E+00  0.88000000000E+00 0. -1.
        -11    1    4    4    0    0 -0.31708171933E-01  0.89070252312E-02 -0.83153081070E-02  0.33972764617E-01  0.51100000000E-03 0.  1.
         11    1    4    4    0    0 -0.94394598701E-01  0.28725659905E-01  0.35576050418E-02  0.98734094798E-01  0.51100000000E-03 0. -1.
</event>
<event>
 8    1  0.9956970E+004  0.1043930E+01  0.7957747E-01            NaN
         13   -1    0    0    0    0  0.00000000000E+00  0.00000000000E+00  0.74505805969E-08  0.10566000000E+00  0.10566000000E+00 0. -1.
     999900   -1    0    0    0    0 -0.00000000000E+00 -0.00000000000E+00 -0.74505805969E-08  0.93827000000E+00  0.93827000000E+00 0.  1.
     999902    2    1    2    0    0  0.22126727948E-01 -0.76141676955E-02  0.75662553046E-02  0.10193369957E+01  0.10190402814E+01 0.  0.
     999903    2    3    3    0    0  0.75279874037E-01  0.32517912501E-01 -0.99286136194E-01  0.13037508746E+00  0.20382652454E-01 0.  0.
         14    1    1    2    0    0 -0.22126727948E-01  0.76141676955E-02 -0.75662553046E-02  0.24593004264E-01  0.00000000000E+00 0. -1.
     999901    1    3    3    0    0 -0.53153146088E-01 -0.40132080197E-01  0.10685239150E+00  0.88896190828E+00  0.88000000000E+00 0. -1.
        -11    1    4    4    0    0  0.15537491380E-01  0.16060258263E-01 -0.30133433746E-01  0.37518401941E-01  0.51100000000E-03 0.  1.
         11    1    4    4    0    0  0.59742382656E-01  0.16457654238E-01 -0.69152702448E-01  0.92856685517E-01  0.51100000000E-03 0. -1.
</event>
<event>
 8    1  0.9956970E+004  0.1043930E+01  0.7957747E-01            NaN
         13   -1    0    0    0    0  0.00000000000E+00  0.00000000000E+00  0.74505805969E-08  0.10566000000E+00  0.10566000000E+00 0. -1.
     999900   -1    0    0    0    0 -0.00000000000E+00 -0.00000000000E+00 -0.74505805969E-08  0.93827000000E+00  0.93827000000E+00 0. -1.
     999902    2    1    2    0    0  0.81710980852E-05 -0.14786881859E-02  0.23553438347E-01  0.10203301898E+01  0.10200572264E+01 0.  0.
     999903    2    3    3    0    0 -0.64395109653E-01 -0.47367397214E-01  0.10457067997E+00  0.13307749203E+00  0.19600798677E-01 0.  0.
         14    1    1    2    0    0 -0.81710980852E-05  0.14786881859E-02 -0.23553438347E-01  0.23599810242E-01  0.00000000000E+00 0.  1.
     999901    1    3    3    0    0  0.64403280751E-01  0.45888709028E-01 -0.81017241625E-01  0.88725269773E+00  0.88000000000E+00 0. -1.
        -11    1    4    4    0    0 -0.48272139779E-01 -0.33750623713E-01  0.61762646794E-01  0.85347464754E-01  0.51100000000E-03 0.  1.
         11    1    4    4    0    0 -0.16122969874E-01 -0.13616773501E-01  0.42808033177E-01  0.47730027275E-01  0.51100000000E-03 0. -1.
</event>
<event>
 8    1  0.9956970E+004  0.1043930E+01  0.7957747E-01            NaN
         13   -1    0    0    0    0  0.00000000000E+00  0.00000000000E+00  0.74505805969E-08  0.10566000000E+00  0.10566000000E+00 0. -1.
     999900   -1    0    0    0    0 -0.00000000000E+00 -0.00000000000E+00 -0.74505805969E-08  0.93827000000E+00  0.93827000000E+00 0.  1.
     999902    2    1    2    0    0  0.10895546514E-01 -0.19359802576E-01 -0.69320108020E-02  0.10206583936E+01  0.10203930560E+01 0.  0.
     999903    2    3    3    0    0 -0.10639374024E-01 -0.13006585199E+00 -0.19705727454E-01  0.13336884110E+00  0.19199217375E-01 0.  0.
         14    1    1    2    0    0 -0.10895546514E-01  0.19359802576E-01  0.69320108020E-02  0.23271606377E-01  0.00000000000E+00 0. -1.
     999901    1    3    3    0    0  0.21534920538E-01  0.11070604942E+00  0.12773716652E-01  0.88728955252E+00  0.88000000000E+00 0. -1.
        -11    1    4    4    0    0 -0.45719999039E-02 -0.34723354142E-01  0.30503180649E-02  0.35159352487E-01  0.51100000000E-03 0. -1.
         11    1    4    4    0    0 -0.60673741201E-02 -0.95342497849E-01 -0.22756045519E-01  0.98209488613E-01  0.51100000000E-03 0.  1.
</event>
<event>
 8    1  0.9956970E+004  0.1043930E+01  0.7957747E-01            NaN
         13   -1    0    0    0    0  0.00000000000E+00  0.00000000000E+00  0.74505805969E-08  0.10566000000E+00  0.10566000000E+00 0.  1.
     999900   -1    0    0    0    0 -0.00000000000E+00 -0.00000000000E+00 -0.74505805969E-08  0.93827000000E+00  0.93827000000E+00 0. -1.
     999902    2    1    2    0    0 -0.21413779725E-01  0.59460398918E-02  0.13906946666E-01  0.10177134305E+01  0.10173757015E+01 0.  0.
     999903    2    3    3    0    0 -0.25918065780E-01  0.94559840765E-01  0.83995458379E-01  0.13047891030E+00  0.18873245244E-01 0.  0.
         14    1    1    2    0    0  0.21413779725E-01 -0.59460398918E-02 -0.13906946666E-01  0.26216569533E-01  0.00000000000E+00 0. -1.
     999901    1    3    3    0    0  0.45042860553E-02 -0.88613800873E-01 -0.70088511713E-01  0.88723452016E+00  0.88000000000E+00 0. -1.
        -11    1    4    4    0    0 -0.20266750281E-01  0.72552571542E-01  0.74176505622E-01  0.10572148273E+00  0.51100000000E-03 0. -1.
         11    1    4    4    0    0 -0.56513154987E-02  0.22007269223E-01  0.98189527574E-02  0.24757427568E-01  0.51100000000E-03 0.  1.
</event>
<event>
 8    1  0.9956970E+004  0.1043930E+01  0.7957747E-01            NaN
         13   -1    0    0    0    0  0.00000000000E+00  0.00000000000E+00  0.74505805969E-08  0.10566000000E+00  0.10566000000E+00 0. -1.
     999900   -1    0    0    0    0 -0.00000000000E+00 -0.00000000000E+00 -0.74505805969E-08  0.93827000000E+00  0.93827000000E+00 0.  1.
     999902    2    1    2    0    0  0.23946040128E-02  0.34300222447E-02  0.22394323898E-01  0.10211483204E+01  0.10208941607E+01 0.  0.
     999903    2    3    3    0    0  0.21685368818E-01 -0.12085830806E+00  0.44240563829E-01  0.13193688278E+00  0.19316513701E-01 0.  0.
         14    1    1    2    0    0 -0.23946040128E-02 -0.34300222447E-02 -0.22394323898E-01  0.22781679566E-01  0.00000000000E+00 0.  1.
     999901    1    3    3    0    0 -0.19290764805E-01  0.12428833031E+00 -0.21846239930E-01  0.88921143765E+00  0.88000000000E+00 0.  1.
        -11    1    4    4    0    0 -0.12156278819E-02 -0.16401897013E-01  0.68668178676E-03  0.16469141740E-01  0.51100000000E-03 0.  1.
         11    1    4    4    0    0  0.22900996700E-01 -0.10445641105E+00  0.43553882042E-01  0.11546774104E+00  0.51100000000E-03 0. -1.
</event>
<event>
 8    1  0.9956970E+004  0.1043930E+01  0.7957747E-01            NaN
         13   -1    0    0    0    0  0.00000000000E+00  0.00000000000E+00  0.74505805969E-08  0.10566000000E+00  0.10566000000E+00 0. -1.
     999900   -1    0    0    0    0 -0.00000000000E+00 -0.00000000000E+00 -0.74505805969E-08  0.93827000000E+00  0.93827000000E+00 0.  1.
     999902    2    1    2    0    0 -0.47534517809E-02  0.19197945062E-01 -0.12876351871E-01  0.10203300670E+01  0.10200571008E+01 0.  0.
     999903    2    3    3    0    0  0.14918336405E-01 -0.11720634371E+00 -0.48101392623E-01  0.12890765721E+00  0.18535273049E-01 0.  0.
         14    1    1    2    0    0  0.47534517809E-02 -0.19197945062E-01  0.12876351871E-01  0.23599932965E-01  0.00000000000E+00 0. -1.
     999901    1    3    3    0    0 -0.19671788185E-01  0.13640428877E+00  0.35225040752E-01  0.89142240983E+00  0.88000000000E+00 0. -1.
        -11    1    4    4    0    0  0.10447977972E-02 -0.64699662691E-01 -0.32425266735E-01  0.72379534391E-01  0.51100000000E-03 0.  1.
         11    1    4    4    0    0  0.13873538607E-01 -0.52506681021E-01 -0.15676125888E-01  0.56528122817E-01  0.51100000000E-03 0. -1.
</event>
<event>
 8    1  0.9958045E+004  0.1043930E+01  0.7957747E-01            NaN
         13   -1    0    0    0    0  0.00000000000E+00  0.00000000000E+00  0.74505805969E-08  0.10566000000E+00  0.10566000000E+00 0.  1.
     999900   -1    0    0    0    0 -0.00000000000E+00 -0.00000000000E+00 -0.74505805969E-08  0.93827000000E+00  0.93827000000E+00 0. -1.
     999902    2    1    2    0    0  0.75620995700E-02 -0.12053789226E-01 -0.19329422699E-01  0.10199277966E+01  0.10196453327E+01 0.  0.
     999903    2    3    3    0    0 -0.37206169974E-01 -0.21721766231E-01 -0.12379750877E+00  0.13256583624E+00  0.19792512437E-01 0.  0.
         14    1    1    2    0    0 -0.75620995700E-02  0.12053789226E-01  0.19329422699E-01  0.24002203367E-01  0.00000000000E+00 0.  1.
     999901    1    3    3    0    0  0.44768269544E-01  0.96679770045E-02  0.10446808607E+00  0.88736196039E+00  0.88000000000E+00 0.  1.
        -11    1    4    4    0    0 -0.13056534851E-01 -0.19054764330E-01 -0.59330853446E-01  0.63670781663E-01  0.51100000000E-03 0. -1.
         11    1    4    4    0    0 -0.24149635124E-01 -0.26670019002E-02 -0.64466655326E-01  0.68895054581E-01  0.51100000000E-03 0.  1.
</event>
<event>
 8    1  0.9956970E+004  0.1043930E+01  0.7957747E-01            NaN
         13   -1    0    0    0    0  0.00000000000E+00  0.00000000000E+00  0.74505805969E-08  0.10566000000E+00  0.10566000000E+00 0. -1.
     999900   -1    0    0    0    0 -0.00000000000E+00 -0.00000000000E+00 -0.74505805969E-08  0.93827000000E+00  0.93827000000E+00 0.  1.
     999902    2    1    2    0    0 -0.10773663591E-01 -0.18964198645E-01 -0.99923986367E-02  0.10199391541E+01  0.10196569606E+01 0.  0.
     999903    2    3    3    0    0  0.10843065155E+00  0.59353758294E-01 -0.27720192612E-01  0.12827910350E+00  0.20175343757E-01 0.  0.
         14    1    1    2    0    0  0.10773663591E-01  0.18964198645E-01  0.99923986367E-02  0.23990845919E-01  0.00000000000E+00 0.  1.
     999901    1    3    3    0    0 -0.11920431514E+00 -0.78317956938E-01  0.17727793975E-01  0.89166005058E+00  0.88000000000E+00 0. -1.
        -11    1    4    4    0    0  0.73977546518E-01  0.49614257185E-01 -0.24168792572E-01  0.92296498093E-01  0.51100000000E-03 0.  1.
         11    1    4    4    0    0  0.34453105035E-01  0.97395011086E-02 -0.35514000400E-02  0.35982605404E-01  0.51100000000E-03 0. -1.
</event>
<event>
 8    1  0.9956970E+004  0.1043930E+01  0.7957747E-01            NaN
         13   -1    0    0    0    0  0.00000000000E+00  0.00000000000E+00  0.74505805969E-08  0.10566000000E+00  0.10566000000E+00 0. -1.
     999900   -1    0    0    0    0 -0.00000000000E+00 -0.00000000000E+00 -0.74505805969E-08  0.93827000000E+00  0.93827000000E+00 0. -1.
     999902    2    1    2    0    0  0.20767962642E-01 -0.87471758204E-02 -0.77476349145E-02  0.10201004552E+01  0.10198220882E+01 0.  0.
     999903    2    3    3    0    0 -0.21063479129E-01 -0.91973292918E-01  0.87208480100E-01  0.13010432048E+00  0.20470917018E-01 0.  0.
         14    1    1    2    0    0 -0.20767962642E-01  0.87471758204E-02  0.77476349145E-02  0.23829544769E-01  0.00000000000E+00 0. -1.
     999901    1    3    3    0    0  0.41831441772E-01  0.83226117098E-01 -0.94956115015E-01  0.88999613475E+00  0.88000000000E+00 0. -1.
        -11    1    4    4    0    0 -0.56841887874E-02 -0.39809913454E-01  0.24476953410E-01  0.47079948817E-01  0.51100000000E-03 0.  1.
         11    1    4    4    0    0 -0.15379290342E-01 -0.52163379465E-01  0.62731526690E-01  0.83024371666E-01  0.51100000000E-03 0. -1.
</event>
<event>
 8    1  0.9956970E+004  0.1043930E+01  0.7957747E-01            NaN
         13   -1    0    0    0    0  0.00000000000E+00  0.00000000000E+00  0.74505805969E-08  0.10566000000E+00  0.10566000000E+00 0.  1.
     999900   -1    0    0    0    0 -0.00000000000E+00 -0.00000000000E+00 -0.74505805969E-08  0.93827000000E+00  0.93827000000E+00 0. -1.
     999902    2    1    2    0    0 -0.18436423159E-01 -0.96419169480E-02 -0.53193626621E-02  0.10224552734E+01  0.10222297307E+01 0.  0.
     999903    2    3    3    0    0  0.86317516558E-01  0.64314336256E-01 -0.71337965551E-01  0.13071463223E+00  0.20252462495E-01 0.  0.
         14    1    1    2    0    0  0.18436423159E-01  0.96419169480E-02  0.53193626621E-02  0.21474726551E-01  0.00000000000E+00 0. -1.
     999901    1    3    3    0    0 -0.10475393972E+00 -0.73956253204E-01  0.66018602889E-01  0.89174064122E+00  0.88000000000E+00 0.  1.
        -11    1    4    4    0    0  0.45080934086E-01  0.43031222654E-01 -0.48616545407E-01  0.79043066423E-01  0.51100000000E-03 0.  1.
         11    1    4    4    0    0  0.41236582472E-01  0.21283113603E-01 -0.22721420144E-01  0.51671565807E-01  0.51100000000E-03 0. -1.
</event>
<event>
 8    1  0.9956970E+004  0.1043930E+01  0.7957747E-01            NaN
         13   -1    0    0    0    0  0.00000000000E+00  0.00000000000E+00  0.74505805969E-08  0.10566000000E+00  0.10566000000E+00 0.  1.
     999900   -1    0    0    0    0 -0.00000000000E+00 -0.00000000000E+00 -0.74505805969E-08  0.93827000000E+00  0.93827000000E+00 0. -1.
     999902    2    1    2    0    0 -0.50430907651E-02 -0.15430056391E-01 -0.17133234577E-01  0.10203277304E+01  0.10200547094E+01 0.  0.
     999903    2    3    3    0    0 -0.48541335950E-01 -0.38443212568E-01  0.11195472013E+00  0.12954975425E+00  0.20374925251E-01 0.  0.
         14    1    1    2    0    0  0.50430907651E-02  0.15430056391E-01  0.17133234577E-01  0.23602269631E-01  0.00000000000E+00 0. -1.
     999901    1    3    3    0    0  0.43498245185E-01  0.23013156177E-01 -0.12908795470E+00  0.89077797612E+00  0.88000000000E+00 0. -1.
        -11    1    4    4    0    0 -0.18536999013E-01 -0.20915320056E-01  0.67965633712E-01  0.73489179015E-01  0.51100000000E-03 0.  1.
         11    1    4    4    0    0 -0.30004336937E-01 -0.17527892513E-01  0.43989086414E-01  0.56060575233E-01  0.51100000000E-03 0. -1.
</event>
<event>
 8    1  0.9956970E+004  0.1043930E+01  0.7957747E-01            NaN
         13   -1    0    0    0    0  0.00000000000E+00  0.00000000000E+00  0.74505805969E-08  0.10566000000E+00  0.10566000000E+00 0. -1.
     999900   -1    0    0    0    0 -0.00000000000E+00 -0.00000000000E+00 -0.74505805969E-08  0.93827000000E+00  0.93827000000E+00 0.  1.
     999902    2    1    2    0    0  0.10294906758E-02 -0.13336447018E-02  0.24756972314E-01  0.10191157674E+01  0.10188136244E+01 0.  0.
     999903    2    3    3    0    0  0.52857189783E-01 -0.11300719518E+00 -0.26417258938E-01  0.12907313126E+00  0.19937225737E-01 0.  0.
         14    1    1    2    0    0 -0.10294906758E-02  0.13336447018E-02 -0.24756972314E-01  0.24814232557E-01  0.00000000000E+00 0.  1.
     999901    1    3    3    0    0 -0.51827699107E-01  0.11167355048E+00  0.51174231251E-01  0.89004263618E+00  0.88000000000E+00 0. -1.
        -11    1    4    4    0    0  0.37471691725E-01 -0.58179688941E-01 -0.10978937787E-01  0.70069979891E-01  0.51100000000E-03 0.  1.
         11    1    4    4    0    0  0.15385498058E-01 -0.54827506241E-01 -0.15438321151E-01  0.59003151373E-01  0.51100000000E-03 0. -1.
</event>
<event>
 8    1  0.9956970E+004  0.1043930E+01  0.7957747E-01            NaN
         13   -1    0    0    0    0  0.00000000000E+00  0.00000000000E+00  0.74505805969E-08  0.10566000000E+00  0.10566000000E+00 0.  1.
     999900   -1    0    0    0    0 -0.00000000000E+00 -0.00000000000E+00 -0.74505805969E-08  0.93827000000E+00  0.93827000000E+00 0. -1.
     999902    2    1    2    0    0 -0.14683682868E-01 -0.12759179689E-01  0.11397627219E-01  0.10213841996E+01  0.10211353339E+01 0.  0.
     999903    2    3    3    0    0  0.21182757552E-01 -0.45151429391E-01  0.12199348929E+00  0.13314599727E+00  0.18923117271E-01 0.  0.
         14    1    1    2    0    0  0.14683682868E-01  0.12759179689E-01 -0.11397627219E-01  0.22545800388E-01  0.00000000000E+00 0.  1.
     999901    1    3    3    0    0 -0.35866440419E-01  0.32392249702E-01 -0.11059586207E+00  0.88823820234E+00  0.88000000000E+00 0. -1.
        -11    1    4    4    0    0  0.22378510797E-01 -0.31586401030E-01  0.77812128395E-01  0.86910798650E-01  0.51100000000E-03 0. -1.
         11    1    4    4    0    0 -0.11957532459E-02 -0.13565028361E-01  0.44181360894E-01  0.46235198623E-01  0.51100000000E-03 0.  1.
</event>
<event>
 8    1  0.9956970E+004  0.1043930E+01  0.7957747E-01            NaN
         13   -1    0    0    0    0  0.00000000000E+00  0.00000000000E+00  0.74505805969E-08  0.10566000000E+00  0.10566000000E+00 0.  1.
     999900   -1    0    0    0    0 -0.00000000000E+00 -0.00000000000E+00 -0.74505805969E-08  0.93827000000E+00  0.93827000000E+00 0.  1.
     999902    2    1    2    0    0  0.45974720768E-02  0.14105116988E-01 -0.18431808610E-01  0.10202694285E+01  0.10199950412E+01 0.  0.
     999903    2    3    3    0    0  0.87824022720E-01  0.80477956297E-01 -0.54192675833E-01  0.13313310744E+00  0.24450312197E-01 0.  0.
         14    1    1    2    0    0 -0.45974720768E-02 -0.14105116988E-01  0.18431808610E-01  0.23660571494E-01  0.00000000000E+00 0.  1.
     999901    1    3    3    0    0 -0.83226550643E-01 -0.66372839308E-01  0.35760867222E-01  0.88713632107E+00  0.88000000000E+00 0. -1.
        -11    1    4    4    0    0  0.51337883117E-01  0.56110924472E-01 -0.44776260192E-01  0.88256380425E-01  0.51100000000E-03 0. -1.
         11    1    4    4    0    0  0.36486139603E-01  0.24367031825E-01 -0.94164156403E-02  0.44876727015E-01  0.51100000000E-03 0.  1.
</event>
<event>
 8    1  0.9956970E+004  0.1043930E+01  0.7957747E-01            NaN
         13   -1    0    0    0    0  0.00000000000E+00  0.00000000000E+00  0.74505805969E-08  0.10566000000E+00  0.10566000000E+00 0. -1.
     999900   -1    0    0    0    0 -0.00000000000E+00 -0.00000000000E+00 -0.74505805969E-08  0.93827000000E+00  0.93827000000E+00 0. -1.
     999902    2    1    2    0    0 -0.21184860530E-01 -0.25230382139E-02 -0.56528286033E-02  0.10218592386E+01  0.10216208617E+01 0.  0.
     999903    2    3    3    0    0 -0.19220269190E-01 -0.74125461694E-01  0.10562721603E+00  0.13196373069E+00  0.19832161554E-01 0.  0.
         14    1    1    2    0    0  0.21184860530E-01  0.25230382139E-02  0.56528286033E-02  0.22070761399E-01  0.00000000000E+00 0.  1.
     999901    1    3    3    0    0 -0.19645913405E-02  0.71602423480E-01 -0.11128004463E+00  0.88989550791E+00  0.88000000000E+00 0. -1.
        -11    1    4    4    0    0  0.13963896218E-03 -0.37259796825E-01  0.54538634853E-01  0.66053279791E-01  0.51100000000E-03 0.  1.
         11    1    4    4    0    0 -0.19359908152E-01 -0.36865664869E-01  0.51088581178E-01  0.65910450899E-01  0.51100000000E-03 0. -1.
</event>
<event>
 8    1  0.9956970E+004  0.1043930E+01  0.7957747E-01            NaN
         13   -1    0    0    0    0  0.00000000000E+00  0.00000000000E+00  0.74505805969E-08  0.10566000000E+00  0.10566000000E+00 0. -1.
     999900   -1    0    0    0    0 -0.00000000000E+00 -0.00000000000E+00 -0.74505805969E-08  0.93827000000E+00  0.93827000000E+00 0. -1.
     999902    2    1    2    0    0  0.40012060636E-02 -0.87578587874E-02  0.22359162883E-01  0.10195857624E+01  0.10192950922E+01 0.  0.
     999903    2    3    3    0    0 -0.42097224901E-01  0.40869915805E-01 -0.11100116986E+00  0.12696436464E+00  0.18872302915E-01 0.  0.
         14    1    1    2    0    0 -0.40012060636E-02  0.87578587874E-02 -0.22359162883E-01  0.24344237621E-01  0.00000000000E+00 0.  1.
     999901    1    3    3    0    0  0.46098430964E-01 -0.49627774593E-01  0.13336033274E+00  0.89262139774E+00  0.88000000000E+00 0.  1.
        -11    1    4    4    0    0 -0.27476528644E-01  0.34357719123E-01 -0.67137712091E-01  0.80269209511E-01  0.51100000000E-03 0.  1.
         11    1    4    4    0    0 -0.14620696256E-01  0.65121966826E-02 -0.43863457766E-01  0.46695155132E-01  0.51100000000E-03 0. -1.
</event>
<event>
 8    1  0.9956970E+004  0.1043930E+01  0.7957747E-01            NaN
         13   -1    0    0    0    0  0.00000000000E+00  0.00000000000E+00  0.74505805969E-08  0.10566000000E+00  0.10566000000E+00 0.  1.
     999900   -1    0    0    0    0 -0.00000000000E+00 -0.00000000000E+00 -0.74505805969E-08  0.93827000000E+00  0.93827000000E+00 0.  1.
     999902    2    1    2    0    0  0.21532047613E-02  0.78149193912E-02 -0.24854254625E-01  0.10177872528E+01  0.10174514479E+01 0.  0.
     999903    2    3    3    0    0  0.67735868020E-01  0.72525422873E-01  0.76783748582E-01  0.12715892482E+00  0.20629186525E-01 0.  0.
         14    1    1    2    0    0 -0.21532047613E-02 -0.78149193912E-02  0.24854254625E-01  0.26142747154E-01  0.00000000000E+00 0.  1.
     999901    1    3    3    0    0 -0.65582663258E-01 -0.64710503481E-01 -0.10163800321E+00  0.89062832802E+00  0.88000000000E+00 0. -1.
        -11    1    4    4    0    0  0.62178329004E-01  0.62721943529E-01  0.59404026428E-01  0.10643912004E+00  0.51100000000E-03 0.  1.
         11    1    4    4    0    0  0.55575390154E-02  0.98034793435E-02  0.17379722154E-01  0.20719804784E-01  0.51100000000E-03 0. -1.
</event>
<event>
 8    1  0.9956970E+004  0.1043930E+01  0.7957747E-01            NaN
         13   -1    0    0    0    0  0.00000000000E+00  0.00000000000E+00  0.74505805969E-08  0.10566000000E+00  0.10566000000E+00 0.  1.
     999900   -1    0    0    0    0 -0.00000000000E+00 -0.00000000000E+00 -0.74505805969E-08  0.93827000000E+00  0.93827000000E+00 0. -1.
     999902    2    1    2    0    0  0.17412725316E-01  0.33962539167E-02 -0.16835551076E-01  0.10194724179E+01  0.10191790017E+01 0.  0.
     999903    2    3    3    0    0  0.10390789880E+00 -0.71238925701E-01  0.29072861240E-01  0.13090086341E+00  0.20444285564E-01 0.  0.
         14    1    1    2    0    0 -0.17412725316E-01 -0.33962539167E-02  0.16835551076E-01  0.24457582129E-01  0.00000000000E+00 0. -1.
     999901    1    3    3    0    0 -0.86495173488E-01  0.74635179618E-01 -0.45908412316E-01  0.88857155446E+00  0.88000000000E+00 0. -1.
        -11    1    4    4    0    0  0.30118678738E-01 -0.17640827136E-01 -0.83956839209E-03  0.34918470572E-01  0.51100000000E-03 0.  1.
         11    1    4    4    0    0  0.73789220065E-01 -0.53598098566E-01  0.29912429632E-01  0.95982392839E-01  0.51100000000E-03 0. -1.
</event>
<event>
 8    1  0.9956970E+004  0.1043930E+01  0.7957747E-01            NaN
         13   -1    0    0    0    0  0.00000000000E+00  0.00000000000E+00  0.74505805969E-08  0.10566000000E+00  0.10566000000E+00 0. -1.
     999900   -1    0    0    0    0 -0.00000000000E+00 -0.00000000000E+00 -0.74505805969E-08  0.93827000000E+00  0.93827000000E+00 0.  1.
     999902    2    1    2    0    0 -0.14154122463E-01  0.14286394150E-02 -0.19451806570E-01  0.10198311832E+01  0.10195464135E+01 0.  0.
     999903    2    3    3    0    0 -0.35854138629E-01  0.98259748392E-01  0.73462199908E-01  0.12939299500E+00  0.20133428153E-01 0.  0.
         14    1    1    2    0    0  0.14154122463E-01 -0.14286394150E-02  0.19451806570E-01  0.24098816820E-01  0.00000000000E+00 0. -1.
     999901    1    3    3    0    0  0.21700016166E-01 -0.96831108977E-01 -0.92914006479E-01  0.89043818818E+00  0.88000000000E+00 0. -1.
        -11    1    4    4    0    0 -0.24994243362E-01  0.86768344092E-01  0.66320648417E-01  0.11203636582E+00  0.51100000000E-03 0. -1.
         11    1    4    4    0    0 -0.10859895267E-01  0.11491404300E-01  0.71415514912E-02  0.17356629186E-01  0.51100000000E-03 0.  1.
</event>
<event>
 8    1  0.9956970E+004  0.1043930E+01  0.7957747E-01            NaN
         13   -1    0    0    0    0  0.00000000000E+00  0.00000000000E+00  0.74505805969E-08  0.10566000000E+00  0.10566000000E+00 0. -1.
     999900   -1    0    0    0    0 -0.00000000000E+00 -0.00000000000E+00 -0.74505805969E-08  0.93827000000E+00  0.93827000000E+00 0. -1.
     999902    2    1    2    0    0 -0.95441925011E-02 -0.93275716568E-02 -0.19216126176E-01  0.10205343870E+01  0.10202661811E+01 0.  0.
     999903    2    3    3    0    0 -0.54203493352E-01  0.43880829493E-01  0.10644663306E+00  0.12889728806E+00  0.20495835949E-01 0.  0.
         14    1    1    2    0    0  0.95441925011E-02  0.93275716568E-02  0.19216126176E-01  0.23395613023E-01  0.00000000000E+00 0. -1.
     999901    1    3    3    0    0  0.44659300851E-01 -0.53208401150E-01 -0.12566275924E+00  0.89163709892E+00  0.88000000000E+00 0. -1.
        -11    1    4    4    0    0 -0.51611336945E-01  0.36487165668E-01  0.10164014125E+00  0.11969136475E+00  0.51100000000E-03 0.  1.
         11    1    4    4    0    0 -0.25921564068E-02  0.73936638251E-02  0.48064918054E-02  0.92059233144E-02  0.51100000000E-03 0. -1.
</event>
<event>
 8    1  0.9956970E+004  0.1043930E+01  0.7957747E-01            NaN
         13   -1    0    0    0    0  0.00000000000E+00  0.00000000000E+00  0.74505805969E-08  0.10566000000E+00  0.10566000000E+00 0. -1.
     999900   -1    0    0    0    0 -0.00000000000E+00 -0.00000000000E+00 -0.74505805969E-08  0.93827000000E+00  0.93827000000E+00 0. -1.
     999902    2    1    2    0    0 -0.83669948965E-02 -0.84451915472E-02 -0.22568210382E-01  0.10184221192E+01  0.10181026279E+01 0.  0.
     999903    2    3    3    0    0  0.52477346056E-01 -0.92363122932E-01 -0.74223653877E-01  0.13083407404E+00  0.17988491022E-01 0.  0.
         14    1    1    2    0    0  0.83669948965E-02  0.84451915472E-02  0.22568210382E-01  0.25507880815E-01  0.00000000000E+00 0. -1.
     999901    1    3    3    0    0 -0.60844340953E-01  0.83917931385E-01  0.51655443496E-01  0.88758804514E+00  0.88000000000E+00 0. -1.
        -11    1    4    4    0    0  0.48605748451E-02 -0.78622752347E-02 -0.10162177504E-02  0.93131293993E-02  0.51100000000E-03 0.  1.
         11    1    4    4    0    0  0.47616771211E-01 -0.84500847697E-01 -0.73207436127E-01  0.12152094464E+00  0.51100000000E-03 0. -1.
</event>
<event>
 8    1  0.9956970E+004  0.1043930E+01  0.7957747E-01            NaN
         13   -1    0    0    0    0  0.00000000000E+00  0.00000000000E+00  0.74505805969E-08  0.10566000000E+00  0.10566000000E+00 0. -1.
     999900   -1    0    0    0    0 -0.00000000000E+00 -0.00000000000E+00 -0.74505805969E-08  0.93827000000E+00  0.93827000000E+00 0.  1.
     999902    2    1    2    0    0  0.18517570063E-01  0.14435959965E-01 -0.18836988822E-02  0.10203748379E+01  0.10201029184E+01 0.  0.
     999903    2    3    3    0    0  0.30454190425E-01 -0.10750828597E+00 -0.62942932288E-01  0.12979013556E+00  0.19954380350E-01 0.  0.
         14    1    1    2    0    0 -0.18517570063E-01 -0.14435959965E-01  0.18836988822E-02  0.23555162123E-01  0.00000000000E+00 0. -1.
     999901    1    3    3    0    0 -0.11936620361E-01  0.12194424594E+00  0.61059233406E-01  0.89058470232E+00  0.88000000000E+00 0. -1.
        -11    1    4    4    0    0  0.26507797378E-02 -0.10725574901E-01 -0.13959596329E-01  0.17809998339E-01  0.51100000000E-03 0. -1.
         11    1    4    4    0    0  0.27803410687E-01 -0.96782711073E-01 -0.48983335959E-01  0.11198013722E+00  0.51100000000E-03 0.  1.
</event>
<event>
 8    1  0.9956970E+004  0.1043930E+01  0.7957747E-01            NaN
         13   -1    0    0    0    0  0.00000000000E+00  0.00000000000E+00  0.74505805969E-08  0.10566000000E+00  0.10566000000E+00 0.  1.
     999900   -1    0    0    0    0 -0.00000000000E+00 -0.00000000000E+00 -0.74505805969E-08  0.93827000000E+00  0.93827000000E+00 0.  1.
     999902    2    1    2    0    0 -0.19985754664E-01  0.13142765563E-01  0.57863628901E-02  0.10193201509E+01  0.10190230250E+01 0.  0.
     999903    2    3    3    0    0 -0.64188896260E-01 -0.32790158428E-01 -0.10626533809E+00  0.12992747335E+00  0.19834751273E-01 0.  0.
         14    1    1    2    0    0  0.19985754664E-01 -0.13142765563E-01 -0.57863628901E-02  0.24609849078E-01  0.00000000000E+00 0. -1.
     999901    1    3    3    0    0  0.44203141596E-01  0.45932923990E-01  0.11205170098E+00  0.88939267758E+00  0.88000000000E+00 0. -1.
        -11    1    4    4    0    0 -0.44991117698E-01 -0.12438725768E-01 -0.69570201372E-01  0.83780645799E-01  0.51100000000E-03 0.  1.
         11    1    4    4    0    0 -0.19197778562E-01 -0.20351432660E-01 -0.36695136717E-01  0.46146827548E-01  0.51100000000E-03 0. -1.
</event>
<event>
 8    1  0.9956970E+004  0.1043930E+01  0.7957747E-01            NaN
         13   -1    0    0    0    0  0.00000000000E+00  0.00000000000E+00  0.74505805969E-08  0.10566000000E+00  0.10566000000E+00 0.  1.
     999900   -1    0    0    0    0 -0.00000000000E+00 -0.00000000000E+00 -0.74505805969E-08  0.93827000000E+00  0.93827000000E+00 0. -1.
     999902    2    1    2    0    0  0.14362255466E-02  0.92033732534E-02  0.21503304885E-01  0.10204959021E+01  0.10202268029E+01 0.  0.
     999903    2    3    3    0    0 -0.60332359996E-01  0.11077826318E+00  0.34712024108E-01  0.13240396616E+00  0.20348670311E-01 0.  0.
         14    1    1    2    0    0 -0.14362255466E-02 -0.92033732534E-02 -0.21503304885E-01  0.23434097893E-01  0.00000000000E+00 0.  1.
     999901    1    3    3    0    0  0.61768585542E-01 -0.10157488992E+00 -0.13208719223E-01  0.88809193594E+00  0.88000000000E+00 0.  1.
        -11    1    4    4    0    0 -0.33367396807E-01  0.46409425110E-01  0.23104909377E-01  0.61654812196E-01  0.51100000000E-03 0. -1.
         11    1    4    4    0    0 -0.26964963189E-01  0.64368838067E-01  0.11607114731E-01  0.70749153968E-01  0.51100000000E-03 0.  1.
</event>
<event>
 8    1  0.9956970E+004  0.1043930E+01  0.7957747E-01            NaN
         13   -1    0    0    0    0  0.00000000000E+00  0.00000000000E+00  0.74505805969E-08  0.10566000000E+00  0.10566000000E+00 0.  1.
     999900   -1    0    0    0    0 -0.00000000000E+00 -0.00000000000E+00 -0.74505805969E-08  0.93827000000E+00  0.93827000000E+00 0.  1.
     999902    2    1    2    0    0  0.96512528225E-02  0.98648292280E-02 -0.18609088887E-01  0.10207619244E+01  0.10204989694E+01 0.  0.
     999903    2    3    3    0    0 -0.10714470245E+00 -0.37339639276E-01  0.57123311361E-01  0.12857082748E+00  0.19827986610E-01 0.  0.
         14    1    1    2    0    0 -0.96512528225E-02 -0.98648292280E-02  0.18609088887E-01  0.23168075577E-01  0.00000000000E+00 0. -1.
     999901    1    3    3    0    0  0.11679595528E+00  0.47204468504E-01 -0.75732400248E-01  0.89219109694E+00  0.88000000000E+00 0.  1.
        -11    1    4    4    0    0 -0.95767605962E-01 -0.27365455783E-01  0.53256003127E-01  0.11294585212E+00  0.51100000000E-03 0.  1.
         11    1    4    4    0    0 -0.11377096493E-01 -0.99741834923E-02  0.38673082341E-02  0.15624975357E-01  0.51100000000E-03 0. -1.
</event>
<event>
 8    1  0.9956970E+004  0.1043930E+01  0.7957747E-01            NaN
         13   -1    0    0    0    0  0.00000000000E+00  0.00000000000E+00  0.74505805969E-08  0.10566000000E+00  0.10566000000E+00 0.  1.
     999900   -1    0    0    0    0 -0.00000000000E+00 -0.00000000000E+00 -0.74505805969E-08  0.93827000000E+00  0.93827000000E+00 0. -1.
     999902    2    1    2    0    0 -0.71691705731E-02 -0.20854369924E-01  0.58962787985E-02  0.10211030892E+01  0.10208479079E+01 0.  0.
     999903    2    3    3    0    0 -0.44447801096E-01 -0.62105322144E-01 -0.10620298115E+00  0.13225125600E+00  0.19458762754E-01 0.  0.
         14    1    1    2    0    0  0.71691705731E-02  0.20854369924E-01 -0.58962787985E-02  0.22826910770E-01  0.00000000000E+00 0.  1.
     999901    1    3    3    0    0  0.37278630523E-01  0.41250952220E-01  0.11209925995E+00  0.88885183323E+00  0.88000000000E+00 0.  1.
        -11    1    4    4    0    0 -0.27085621046E-01 -0.49041574053E-01 -0.66205920120E-01  0.86730570349E-01  0.51100000000E-03 0. -1.
         11    1    4    4    0    0 -0.17362180050E-01 -0.13063748091E-01 -0.39997061030E-01  0.45520685652E-01  0.51100000000E-03 0.  1.
</event>
<event>
 8    1  0.9956970E+004  0.1043930E+01  0.7957747E-01            NaN
         13   -1    0    0    0    0  0.00000000000E+00  0.00000000000E+00  0.74505805969E-08  0.10566000000E+00  0.10566000000E+00 0.  1.
     999900   -1    0    0    0    0 -0.00000000000E+00 -0.00000000000E+00 -0.74505805969E-08  0.93827000000E+00  0.93827000000E+00 0. -1.
     999902    2    1    2    0    0 -0.21741802838E-01  0.22038121962E-02  0.49965755120E-02  0.10215128515E+01  0.10212668492E+01 0.  0.
     999903    2    3    3    0    0 -0.60410721856E-02 -0.58687863605E-02  0.13054887811E+00  0.13242620756E+00  0.20560974378E-01 0.  0.
         14    1    1    2    0    0  0.21741802838E-01 -0.22038121962E-02 -0.49965755120E-02  0.22417148474E-01  0.00000000000E+00 0.  1.
     999901    1    3    3    0    0 -0.15700730652E-01  0.80725985567E-02 -0.12555230260E+00  0.88908664397E+00  0.88000000000E+00 0. -1.
        -11    1    4    4    0    0 -0.62865854879E-02 -0.13240089823E-01  0.93989586893E-01  0.95126887371E-01  0.51100000000E-03 0. -1.
         11    1    4    4    0    0  0.24551330234E-03  0.73713034624E-02  0.36559291215E-01  0.37299320190E-01  0.51100000000E-03 0.  1.
</event>
<event>
 8    1  0.9956970E+004  0.1043930E+01  0.7957747E-01            NaN
         13   -1    0    0    0    0  0.00000000000E+00  0.00000000000E+00  0.74505805969E-08  0.10566000000E+00  0.10566000000E+00 0.  1.
     999900   -1    0    0    0    0 -0.00000000000E+00 -0.00000000000E+00 -0.74505805969E-08  0.93827000000E+00  0.93827000000E+00 0.  1.
     999902    2    1    2    0    0 -0.16571821895E-01  0.87376866143E-02  0.13364240322E-01  0.10209174954E+01  0.10206581000E+01 0.  0.
     999903    2    3    3    0    0  0.63293614861E-01  0.81611776252E-01 -0.75930895047E-01  0.12981551352E+00  0.20493975251E-01 0.  0.
         14    1    1    2    0    0  0.16571821895E-01 -0.87376866143E-02 -0.13364240322E-01  0.23012504594E-01  0.00000000000E+00 0.  1.
     999901    1    3    3    0    0 -0.79865436756E-01 -0.72874089637E-01  0.89295135369E-01  0.89110198189E+00  0.88000000000E+00 0. -1.
        -11    1    4    4    0    0  0.33192371687E-01  0.34551789010E-01 -0.24209820084E-01  0.53683667642E-01  0.51100000000E-03 0. -1.
         11    1    4    4    0    0  0.30101243174E-01  0.47059987242E-01 -0.51721074963E-01  0.76131845874E-01  0.51100000000E-03 0.  1.
</event>
<event>
 8    1  0.9956970E+004  0.1043930E+01  0.7957747E-01            NaN
         13   -1    0    0    0    0  0.00000000000E+00  0.00000000000E+00  0.74505805969E-08  0.10566000000E+00  0.10566000000E+00 0.  1.
     999900   -1    0    0    0    0 -0.00000000000E+00 -0.00000000000E+00 -0.74505805969E-08  0.93827000000E+00  0.93827000000E+00 0.  1.
     999902    2    1    2    0    0  0.21398329546E-01  0.60155593681E-02 -0.89887124288E-02  0.10199535029E+01  0.10196716509E+01 0.  0.
     999903    2    3    3    0    0  0.48386330904E-01  0.28342827107E-01 -0.11831002598E+00  0.13249758361E+00  0.20341940616E-01 0.  0.
         14    1    1    2    0    0 -0.21398329546E-01 -0.60155593681E-02  0.89887124288E-02  0.23976497096E-01  0.00000000000E+00 0.  1.
     999901    1    3    3    0    0 -0.26988001358E-01 -0.22327267739E-01  0.10932131355E+00  0.88745591930E+00  0.88000000000E+00 0. -1.
        -11    1    4    4    0    0  0.79251493993E-02  0.11391523181E-01 -0.16047624208E-01  0.21221737844E-01  0.51100000000E-03 0.  1.
         11    1    4    4    0    0  0.40461181505E-01  0.16951303925E-01 -0.10226240177E+00  0.11127584576E+00  0.51100000000E-03 0. -1.
</event>
<event>
 7    1  0.9956970E+004  0.1043930E+01  0.7957747E-01            NaN
         13   -1    0    0    0    0  0.00000000000E+00  0.00000000000E+00  0.74505805969E-08  0.10566000000E+00  0.10566000000E+00 0.  1.
     999900   -1    0    0    0    0 -0.00000000000E+00 -0.00000000000E+00 -0.74505805969E-08  0.93827000000E+00  0.93827000000E+00 0. -1.
     999902    2    1    2    0    0 -0.74636497431E-04 -0.37724539364E-02  0.22857073207E-01  0.10207635852E+01  0.10205006683E+01 0.  0.
         14    1    1    2    0    0  0.74636497431E-04  0.37724539364E-02 -0.22857073207E-01  0.23166414804E-01  0.00000000000E+00 0. -1.
     999901    1    3    3    0    0 -0.43701712424E-01  0.11516908837E+00 -0.14376614730E-01  0.88869592417E+00  0.88000000000E+00 0. -1.
        -11    1    3    3    0    0  0.40249658165E-01 -0.11046472650E+00  0.34411860543E-01  0.12250276752E+00  0.51100000000E-03 0. -1.
         11    1    3    3    0    0  0.33774177621E-02 -0.84768158057E-02  0.28218273937E-02  0.95648935062E-02  0.51100000000E-03 0.  1.
</event>
<event>
 8    1  0.9956970E+004  0.1043930E+01  0.7957747E-01            NaN
         13   -1    0    0    0    0  0.00000000000E+00  0.00000000000E+00  0.74505805969E-08  0.10566000000E+00  0.10566000000E+00 0.  1.
     999900   -1    0    0    0    0 -0.00000000000E+00 -0.00000000000E+00 -0.74505805969E-08  0.93827000000E+00  0.93827000000E+00 0. -1.
     999902    2    1    2    0    0 -0.14919362644E-01 -0.18373129448E-01  0.48326122458E-02  0.10197739778E+01  0.10194878383E+01 0.  0.
     999903    2    3    3    0    0 -0.88492433082E-01 -0.85889984424E-01 -0.44873297602E-01  0.13273271615E+00  0.19908816166E-01 0.  0.
         14    1    1    2    0    0  0.14919362644E-01  0.18373129448E-01 -0.48326122458E-02  0.24156022200E-01  0.00000000000E+00 0. -1.
     999901    1    3    3    0    0  0.73573070438E-01  0.67516854976E-01  0.49705909848E-01  0.88704126165E+00  0.88000000000E+00 0.  1.
        -11    1    4    4    0    0 -0.34586896312E-01 -0.47394514944E-01 -0.20859305295E-01  0.62272507430E-01  0.51100000000E-03 0. -1.
         11    1    4    4    0    0 -0.53905536770E-01 -0.38495469480E-01 -0.24013992307E-01  0.70460208717E-01  0.51100000000E-03 0.  1.
</event>
<event>
 8    1  0.9956970E+004  0.1043930E+01  0.7957747E-01            NaN
         13   -1    0    0    0    0  0.00000000000E+00  0.00000000000E+00  0.74505805969E-08  0.10566000000E+00  0.10566000000E+00 0.  1.
     999900   -1    0    0    0    0 -0.00000000000E+00 -0.00000000000E+00 -0.74505805969E-08  0.93827000000E+00  0.93827000000E+00 0.  1.
     999902    2    1    2    0    0  0.14155248147E-01 -0.15770961723E-02 -0.18268577234E-01  0.10207653891E+01  0.10205025137E+01 0.  0.
     999903    2    3    3    0    0 -0.78806662745E-01  0.31794769645E-02  0.98926184425E-01  0.12812931882E+00  0.20251745844E-01 0.  0.
         14    1    1    2    0    0 -0.14155248147E-01  0.15770961723E-02  0.18268577234E-01  0.23164610866E-01  0.00000000000E+00 0. -1.
     999901    1    3    3    0    0  0.92961910891E-01 -0.47565731368E-02 -0.11719476166E+00  0.89263607031E+00  0.88000000000E+00 0.  1.
        -11    1    4    4    0    0 -0.40772395496E-01  0.92216989894E-02  0.40904645448E-01  0.58488281792E-01  0.51100000000E-03 0. -1.
         11    1    4    4    0    0 -0.38034267249E-01 -0.60422220250E-02  0.58021538976E-01  0.69641037028E-01  0.51100000000E-03 0.  1.
</event>
<event>
 8    1  0.9956970E+004  0.1043930E+01  0.7957747E-01            NaN
         13   -1    0    0    0    0  0.00000000000E+00  0.00000000000E+00  0.74505805969E-08  0.10566000000E+00  0.10566000000E+00 0. -1.
     999900   -1    0    0    0    0 -0.00000000000E+00 -0.00000000000E+00 -0.74505805969E-08  0.93827000000E+00  0.93827000000E+00 0. -1.
     999902    2    1    2    0    0  0.15185667817E-02 -0.30450033873E-02  0.24200921297E-01  0.10194910417E+01  0.10191980776E+01 0.  0.
     999903    2    3    3    0    0 -0.10823750412E-01 -0.54563674951E-01 -0.11273325586E+00  0.12732655285E+00  0.20221668754E-01 0.  0.
         14    1    1    2    0    0 -0.15185667817E-02  0.30450033873E-02 -0.24200921297E-01  0.24438958290E-01  0.00000000000E+00 0.  1.
     999901    1    3    3    0    0  0.12342317194E-01  0.51518671564E-01  0.13693417715E+00  0.89216448886E+00  0.88000000000E+00 0.  1.
        -11    1    4    4    0    0  0.80948441505E-03 -0.33146182674E-01 -0.79258809618E-01  0.85915916534E-01  0.51100000000E-03 0.  1.
         11    1    4    4    0    0 -0.11633234827E-01 -0.21417492278E-01 -0.33474446238E-01  0.41410636314E-01  0.51100000000E-03 0. -1.
</event>
<event>
 8    1  0.9956970E+004  0.1043930E+01  0.7957747E-01            NaN
         13   -1    0    0    0    0  0.00000000000E+00  0.00000000000E+00  0.74505805969E-08  0.10566000000E+00  0.10566000000E+00 0. -1.
     999900   -1    0    0    0    0 -0.00000000000E+00 -0.00000000000E+00 -0.74505805969E-08  0.93827000000E+00  0.93827000000E+00 0.  1.
     999902    2    1    2    0    0 -0.31464169021E-02 -0.20366537066E-01  0.16688168919E-01  0.10174122559E+01  0.10170666191E+01 0.  0.
     999903    2    3    3    0    0 -0.51490578577E-01  0.84996095264E-01 -0.73601682373E-01  0.12522914715E+00  0.19736153498E-01 0.  0.
         14    1    1    2    0    0  0.31464169021E-02  0.20366537066E-01 -0.16688168919E-01  0.26517744121E-01  0.00000000000E+00 0.  1.
     999901    1    3    3    0    0  0.48344161675E-01 -0.10536263233E+00  0.90289851292E-01  0.89218310873E+00  0.88000000000E+00 0. -1.
        -11    1    4    4    0    0 -0.37328863052E-01  0.45264710336E-01 -0.48646422855E-01  0.76217278855E-01  0.51100000000E-03 0. -1.
         11    1    4    4    0    0 -0.14161715525E-01  0.39731384928E-01 -0.24955259518E-01  0.49011868292E-01  0.51100000000E-03 0.  1.
</event>
<event>
 8    1  0.9956970E+004  0.1043930E+01  0.7957747E-01            NaN
         13   -1    0    0    0    0  0.00000000000E+00  0.00000000000E+00  0.74505805969E-08  0.10566000000E+00  0.10566000000E+00 0. -1.
     999900   -1    0    0    0    0 -0.00000000000E+00 -0.00000000000E+00 -0.74505805969E-08  0.93827000000E+00  0.93827000000E+00 0.  1.
     999902    2    1    2    0    0 -0.29074193390E-02 -0.53634823209E-02 -0.22577535794E-01  0.10205427139E+01  0.10202747011E+01 0.  0.
     999903    2    3    3    0    0 -0.73533689423E-01  0.10550737102E+00 -0.13233844870E-01  0.13072940722E+00  0.19391607496E-01 0.  0.
         14    1    1    2    0    0  0.29074193390E-02  0.53634823209E-02  0.22577535794E-01  0.23387286126E-01  0.00000000000E+00 0. -1.
     999901    1    3    3    0    0  0.70626270084E-01 -0.11087085334E+00 -0.93436909246E-02  0.88981330666E+00  0.88000000000E+00 0. -1.
        -11    1    4    4    0    0 -0.67272083816E-01  0.94862782173E-01 -0.17601025424E-01  0.11762031253E+00  0.51100000000E-03 0. -1.
         11    1    4    4    0    0 -0.62616056070E-02  0.10644588846E-01  0.43671805546E-02  0.13109094686E-01  0.51100000000E-03 0.  1.
</event>
<event>
 8    1  0.9956970E+004  0.1043930E+01  0.7957747E-01            NaN
         13   -1    0    0    0    0  0.00000000000E+00  0.00000000000E+00  0.74505805969E-08  0.10566000000E+00  0.10566000000E+00 0. -1.
     999900   -1    0    0    0    0 -0.00000000000E+00 -0.00000000000E+00 -0.74505805969E-08  0.93827000000E+00  0.93827000000E+00 0. -1.
     999902    2    1    2    0    0  0.16257303721E-01  0.14464256658E-01 -0.67593001278E-02  0.10211439783E+01  0.10208897206E+01 0.  0.
     999903    2    3    3    0    0  0.12899889081E+00  0.28590952092E-01 -0.78591639635E-02  0.13383825950E+00  0.19818094695E-01 0.  0.
         14    1    1    2    0    0 -0.16257303721E-01 -0.14464256658E-01  0.67593001278E-02  0.22786021662E-01  0.00000000000E+00 0.  1.
     999901    1    3    3    0    0 -0.11274158708E+00 -0.14126695434E-01  0.10998638357E-02  0.88730571884E+00  0.88000000000E+00 0. -1.
        -11    1    4    4    0    0  0.77765317750E-01  0.26955117226E-01 -0.32689824276E-02  0.82370931502E-01  0.51100000000E-03 0.  1.
         11    1    4    4    0    0  0.51233573055E-01  0.16358348657E-02 -0.45901815359E-02  0.51467327998E-01  0.51100000000E-03 0. -1.
</event>
<event>
 8    1  0.9956970E+004  0.1043930E+01  0.7957747E-01            NaN
         13   -1    0    0    0    0  0.00000000000E+00  0.00000000000E+00  0.74505805969E-08  0.10566000000E+00  0.10566000000E+00 0. -1.
     999900   -1    0    0    0    0 -0.00000000000E+00 -0.00000000000E+00 -0.74505805969E-08  0.93827000000E+00  0.93827000000E+00 0. -1.
     999902    2    1    2    0    0 -0.18314701121E-01  0.13690021348E-01  0.64817038381E-02  0.10201632702E+01  0.10198863860E+01 0.  0.
     999903    2    3    3    0    0 -0.97624997463E-01 -0.17084087780E-01 -0.83527374123E-01  0.13149077538E+00  0.22147135194E-01 0.  0.
         14    1    1    2    0    0  0.18314701121E-01 -0.13690021348E-01 -0.64817038381E-02  0.23766729819E-01  0.00000000000E+00 0.  1.
     999901    1    3    3    0    0  0.79310296343E-01  0.30774109129E-01  0.90009077961E-01  0.88867249480E+00  0.88000000000E+00 0.  1.
        -11    1    4    4    0    0 -0.77232450382E-01 -0.43302749658E-02 -0.60717480295E-01  0.98338579446E-01  0.51100000000E-03 0. -1.
         11    1    4    4    0    0 -0.20392547082E-01 -0.12753812815E-01 -0.22809893828E-01  0.33152195934E-01  0.51100000000E-03 0.  1.
</event>
<event>
 8    1  0.9956970E+004  0.1043930E+01  0.7957747E-01            NaN
         13   -1    0    0    0    0  0.00000000000E+00  0.00000000000E+00  0.74505805969E-08  0.10566000000E+00  0.10566000000E+00 0. -1.
     999900   -1    0    0    0    0 -0.00000000000E+00 -0.00000000000E+00 -0.74505805969E-08  0.93827000000E+00  0.93827000000E+00 0.  1.
     999902    2    1    2    0    0 -0.39592314796E-02  0.14277675071E-01  0.18391959516E-01  0.10203123859E+01  0.10200390057E+01 0.  0.
     999903    2    3    3    0    0  0.12526843001E+00  0.24029367869E-01  0.20859305321E-01  0.13081760135E+00  0.20212474537E-01 0.  0.
         14    1    1    2    0    0  0.39592314796E-02 -0.14277675071E-01 -0.18391959516E-01  0.23617614066E-01  0.00000000000E+00 0.  1.
     999901    1    3    3    0    0 -0.12922766149E+00 -0.97516927986E-02 -0.24673458058E-02  0.88949478458E+00  0.88000000000E+00 0.  1.
        -11    1    4    4    0    0  0.95193893397E-01  0.21095908873E-01  0.75544746327E-02  0.97796962730E-01  0.51100000000E-03 0. -1.
         11    1    4    4    0    0  0.30074536614E-01  0.29334589967E-02  0.13304830689E-01  0.33020638620E-01  0.51100000000E-03 0.  1.
</event>
<event>
 8    1  0.9956970E+004  0.1043930E+01  0.7957747E-01            NaN
         13   -1    0    0    0    0  0.00000000000E+00  0.00000000000E+00  0.74505805969E-08  0.10566000000E+00  0.10566000000E+00 0.  1.
     999900   -1    0    0    0    0 -0.00000000000E+00 -0.00000000000E+00 -0.74505805969E-08  0.93827000000E+00  0.93827000000E+00 0.  1.
     999902    2    1    2    0    0 -0.22722564421E-01  0.58825431259E-02 -0.33578694285E-02  0.10202193582E+01  0.10199437947E+01 0.  0.
     999903    2    3    3    0    0 -0.13168166768E+00 -0.22136606764E-02 -0.85989817044E-02  0.13344706276E+00  0.19728511792E-01 0.  0.
         14    1    1    2    0    0  0.22722564421E-01 -0.58825431259E-02  0.33578694285E-02  0.23710641801E-01  0.00000000000E+00 0.  1.
     999901    1    3    3    0    0  0.10895910326E+00  0.80962038022E-02  0.52411122758E-02  0.88677229544E+00  0.88000000000E+00 0.  1.
        -11    1    4    4    0    0 -0.56835951106E-01  0.33275684571E-02 -0.12506988556E-01  0.58293086500E-01  0.51100000000E-03 0.  1.
         11    1    4    4    0    0 -0.74845716571E-01 -0.55412291335E-02  0.39080068520E-02  0.75153976262E-01  0.51100000000E-03 0. -1.
</event>
<event>
 8    1  0.9956970E+004  0.1043930E+01  0.7957747E-01            NaN
         13   -1    0    0    0    0  0.00000000000E+00  0.00000000000E+00  0.74505805969E-08  0.10566000000E+00  0.10566000000E+00 0.  1.
     999900   -1    0    0    0    0 -0.00000000000E+00 -0.00000000000E+00 -0.74505805969E-08  0.93827000000E+00  0.93827000000E+00 0. -1.
     999902    2    1    2    0    0  0.20055436643E-01  0.12090386243E-01 -0.21633954490E-04  0.10205120913E+01  0.10202433681E+01 0.  0.
     999903    2    3    3    0    0  0.42517425108E-01  0.72860207861E-01  0.10008459618E+00  0.13246999241E+00  0.20372313778E-01 0.  0.
         14    1    1    2    0    0 -0.20055436643E-01 -0.12090386243E-01  0.21633954490E-04  0.23417908670E-01  0.00000000000E+00 0. -1.
     999901    1    3    3    0    0 -0.22461988465E-01 -0.60769821619E-01 -0.10010623013E+00  0.88804209892E+00  0.88000000000E+00 0. -1.
        -11    1    4    4    0    0  0.43441085836E-01  0.61080968414E-01  0.86743816517E-01  0.11464189228E+00  0.51100000000E-03 0. -1.
         11    1    4    4    0    0 -0.92366072791E-03  0.11779239447E-01  0.13340779664E-01  0.17828100127E-01  0.51100000000E-03 0.  1.
</event>
<event>
 8    1  0.9956970E+004  0.1043930E+01  0.7957747E-01            NaN
         13   -1    0    0    0    0  0.00000000000E+00  0.00000000000E+00  0.74505805969E-08  0.10566000000E+00  0.10566000000E+00 0. -1.
     999900   -1    0    0    0    0 -0.00000000000E+00 -0.00000000000E+00 -0.74505805969E-08  0.93827000000E+00  0.93827000000E+00 0.  1.
     999902    2    1    2    0    0  0.73137436374E-02  0.81476729744E-02  0.21763135006E-01  0.10195679503E+01  0.10192768494E+01 0.  0.
     999903    2    3    3    0    0  0.69251914739E-02  0.84266430139E-01  0.10033572582E+00  0.13279409626E+00  0.20450540301E-01 0.  0.
         14    1    1    2    0    0 -0.73137436374E-02 -0.81476729744E-02 -0.21763135006E-01  0.24362049712E-01  0.00000000000E+00 0.  1.
     999901    1    3    3    0    0  0.38855216348E-03 -0.76118757164E-01 -0.78572590819E-01  0.88677385403E+00  0.88000000000E+00 0.  1.
        -11    1    4    4    0    0  0.72396273583E-02  0.62201760631E-01  0.59542630121E-01  0.86412135448E-01  0.51100000000E-03 0. -1.
         11    1    4    4    0    0 -0.31443588439E-03  0.22064669507E-01  0.40793095704E-01  0.46381960809E-01  0.51100000000E-03 0.  1.
</event>
<event>
 8    1  0.9956970E+004  0.1043930E+01  0.7957747E-01            NaN
         13   -1    0    0    0    0  0.00000000000E+00  0.00000000000E+00  0.74505805969E-08  0.10566000000E+00  0.10566000000E+00 0. -1.
     999900   -1    0    0    0    0 -0.00000000000E+00 -0.00000000000E+00 -0.74505805969E-08  0.93827000000E+00  0.93827000000E+00 0. -1.
     999902    2    1    2    0    0 -0.27624105701E-02  0.22849730045E-01 -0.18304282980E-01  0.10145227245E+01  0.10140964307E+01 0.  0.
     999903    2    3    3    0    0 -0.25056834722E-01 -0.26512779544E-02  0.11895659186E+00  0.12323831957E+00  0.20053389288E-01 0.  0.
         14    1    1    2    0    0  0.27624105701E-02 -0.22849730045E-01  0.18304282980E-01  0.29407275472E-01  0.00000000000E+00 0. -1.
     999901    1    3    3    0    0  0.22294424152E-01  0.25501008000E-01 -0.13726087484E+00  0.89128440496E+00  0.88000000000E+00 0. -1.
        -11    1    4    4    0    0 -0.20102068932E-01 -0.21861797638E-02  0.47766322220E-01  0.51872489980E-01  0.51100000000E-03 0.  1.
         11    1    4    4    0    0 -0.49547657902E-02 -0.46509819063E-03  0.71190269643E-01  0.71365829591E-01  0.51100000000E-03 0. -1.
</event>
<event>
 8    1  0.9956970E+004  0.1043930E+01  0.7957747E-01            NaN
         13   -1    0    0    0    0  0.00000000000E+00  0.00000000000E+00  0.74505805969E-08  0.10566000000E+00  0.10566000000E+00 0. -1.
     999900   -1    0    0    0    0 -0.00000000000E+00 -0.00000000000E+00 -0.74505805969E-08  0.93827000000E+00  0.93827000000E+00 0. -1.
     999902    2    1    2    0    0 -0.25528886191E-01 -0.30616617381E-02 -0.16016885026E-01  0.10136374529E+01  0.10131847055E+01 0.  0.
     999903    2    3    3    0    0  0.11212932664E+00  0.79427374750E-02  0.40503123675E-01  0.12107631118E+00  0.19567757423E-01 0.  0.
         14    1    1    2    0    0  0.25528886191E-01  0.30616617381E-02  0.16016885026E-01  0.30292547081E-01  0.00000000000E+00 0.  1.
     999901    1    3    3    0    0 -0.13765821283E+00 -0.11004399213E-01 -0.56520008701E-01  0.89256114174E+00  0.88000000000E+00 0. -1.
        -11    1    4    4    0    0  0.51179092377E-01  0.69839326010E-02  0.28324000757E-01  0.58911670753E-01  0.51100000000E-03 0.  1.
         11    1    4    4    0    0  0.60950234260E-01  0.95880487397E-03  0.12179122918E-01  0.62164640425E-01  0.51100000000E-03 0. -1.
</event>
<event>
 8    1  0.9956970E+004  0.1043930E+01  0.7957747E-01            NaN
         13   -1    0    0    0    0  0.00000000000E+00  0.00000000000E+00  0.74505805969E-08  0.10566000000E+00  0.10566000000E+00 0. -1.
     999900   -1    0    0    0    0 -0.00000000000E+00 -0.00000000000E+00 -0.74505805969E-08  0.93827000000E+00  0.93827000000E+00 0. -1.
     999902    2    1    2    0    0 -0.28893735494E-02  0.98689998206E-02  0.24018296802E-01  0.10178029217E+01  0.10174675244E+01 0.  0.
     999903    2    3    3    0    0  0.99834289770E-01  0.37433419247E-01  0.71819412851E-01  0.13011102986E+00  0.20067529443E-01 0.  0.
         14    1    1    2    0    0  0.28893735494E-02 -0.98689998206E-02 -0.24018296802E-01  0.26127078256E-01  0.00000000000E+00 0.  1.
     999901    1    3    3    0    0 -0.10272366332E+00 -0.27564419427E-01 -0.47801116050E-01  0.88769189189E+00  0.88000000000E+00 0.  1.
        -11    1    4    4    0    0  0.49556563335E-01  0.27821988771E-01  0.31740662818E-01  0.65097210584E-01  0.51100000000E-03 0.  1.
         11    1    4    4    0    0  0.50277726436E-01  0.96114304758E-02  0.40078750033E-01  0.65013819274E-01  0.51100000000E-03 0. -1.
</event>
<event>
 8    1  0.9956970E+004  0.1043930E+01  0.7957747E-01            NaN
         13   -1    0    0    0    0  0.00000000000E+00  0.00000000000E+00  0.74505805969E-08  0.10566000000E+00  0.10566000000E+00 0.  1.
     999900   -1    0    0    0    0 -0.00000000000E+00 -0.00000000000E+00 -0.74505805969E-08  0.93827000000E+00  0.93827000000E+00 0.  1.
     999902    2    1    2    0    0  0.50385866913E-02 -0.58768701853E-02 -0.24550000039E-01  0.10181884487E+01  0.10178630014E+01 0.  0.
     999903    2    3    3    0    0 -0.27357390684E-01 -0.96156011567E-01  0.76400604256E-01  0.12723904096E+00  0.18929232138E-01 0.  0.
         14    1    1    2    0    0 -0.50385866913E-02  0.58768701853E-02  0.24550000039E-01  0.25741551254E-01  0.00000000000E+00 0.  1.
     999901    1    3    3    0    0  0.32395977375E-01  0.90279141382E-01 -0.10095060430E+00  0.89094940778E+00  0.88000000000E+00 0.  1.
        -11    1    4    4    0    0 -0.15608015073E-01 -0.72264838135E-01  0.47176158854E-01  0.87702155335E-01  0.51100000000E-03 0. -1.
         11    1    4    4    0    0 -0.11749375611E-01 -0.23891173432E-01  0.29224445402E-01  0.39536885629E-01  0.51100000000E-03 0.  1.
</event>
<event>
 8    1  0.9956970E+004  0.1043930E+01  0.7957747E-01            NaN
         13   -1    0    0    0    0  0.00000000000E+00  0.00000000000E+00  0.74505805969E-08  0.10566000000E+00  0.10566000000E+00 0. -1.
     999900   -1    0    0    0    0 -0.00000000000E+00 -0.00000000000E+00 -0.74505805969E-08  0.93827000000E+00  0.93827000000E+00 0.  1.
     999902    2    1    2    0    0  0.96844573544E-02 -0.24668634695E-01  0.57139969137E-02  0.10168194852E+01  0.10164580097E+01 0.  0.
     999903    2    3    3    0    0 -0.10939745565E+00  0.57563908001E-01  0.21040829922E-02  0.12499230207E+00  0.18364139104E-01 0.  0.
         14    1    1    2    0    0 -0.96844573544E-02  0.24668634695E-01 -0.57139969137E-02  0.27110514799E-01  0.00000000000E+00 0.  1.
     999901    1    3    3    0    0  0.11908191301E+00 -0.82232542696E-01  0.36099139216E-02  0.89182718313E+00  0.88000000000E+00 0.  1.
        -11    1    4    4    0    0 -0.43092365534E-01  0.17278077428E-01 -0.66903490404E-02  0.46909549329E-01  0.51100000000E-03 0.  1.
         11    1    4    4    0    0 -0.66305090119E-01  0.40285830574E-01  0.87944320326E-02  0.78082752746E-01  0.51100000000E-03 0. -1.
</event>
<event>
 8    1  0.9956970E+004  0.1043930E+01  0.7957747E-01            NaN
         13   -1    0    0    0    0  0.00000000000E+00  0.00000000000E+00  0.74505805969E-08  0.10566000000E+00  0.10566000000E+00 0.  1.
     999900   -1    0    0    0    0 -0.00000000000E+00 -0.00000000000E+00 -0.74505805969E-08  0.93827000000E+00  0.93827000000E+00 0. -1.
     999902    2    1    2    0    0  0.14142161910E-01  0.16685724370E-01  0.10104555997E-01  0.10198360963E+01  0.10195514441E+01 0.  0.
     999903    2    3    3    0    0  0.86941534920E-01  0.33380794952E-01  0.92872721390E-01  0.13280225072E+00  0.18384435030E-01 0.  0.
         14    1    1    2    0    0 -0.14142161910E-01 -0.16685724370E-01 -0.10104555997E-01  0.24093903651E-01  0.00000000000E+00 0. -1.
     999901    1    3    3    0    0 -0.72799373010E-01 -0.16695070582E-01 -0.82768165393E-01  0.88703384563E+00  0.88000000000E+00 0. -1.
        -11    1    4    4    0    0  0.79861079091E-01  0.33807564831E-01  0.90401481508E-01  0.12527343044E+00  0.51100000000E-03 0. -1.
         11    1    4    4    0    0  0.70804558296E-02 -0.42676987835E-03  0.24712398819E-02  0.75288202819E-02  0.51100000000E-03 0.  1.
</event>
<event>
 8    1  0.9956970E+004  0.1043930E+01  0.7957747E-01            NaN
         13   -1    0    0    0    0  0.00000000000E+00  0.00000000000E+00  0.74505805969E-08  0.10566000000E+00  0.10566000000E+00 0. -1.
     999900   -1    0    0    0    0 -0.00000000000E+00 -0.00000000000E+00 -0.74505805969E-08  0.93827000000E+00  0.93827000000E+00 0. -1.
     999902    2    1    2    0    0 -0.17118022070E-01  0.10191596928E-01  0.12649477519E-01  0.10203311736E+01  0.10200582332E+01 0.  0.
     999903    2    3    3    0    0  0.71379830306E-01  0.28846161665E-01  0.10417922023E+00  0.13097322737E+00  0.19326022405E-01 0.  0.
         14    1    1    2    0    0  0.17118022070E-01 -0.10191596928E-01 -0.12649477519E-01  0.23598826433E-01  0.00000000000E+00 0.  1.
     999901    1    3    3    0    0 -0.88497852376E-01 -0.18654564737E-01 -0.91529742716E-01  0.88935794620E+00  0.88000000000E+00 0.  1.
        -11    1    4    4    0    0  0.55246282421E-01  0.18300826313E-01  0.64623539394E-01  0.86968585880E-01  0.51100000000E-03 0.  1.
         11    1    4    4    0    0  0.16133547885E-01  0.10545335352E-01  0.39555680840E-01  0.44004641491E-01  0.51100000000E-03 0. -1.
</event>
<event>
 8    1  0.9956970E+004  0.1043930E+01  0.7957747E-01            NaN
         13   -1    0    0    0    0  0.00000000000E+00  0.00000000000E+00  0.74505805969E-08  0.10566000000E+00  0.10566000000E+00 0.  1.
     999900   -1    0    0    0    0 -0.00000000000E+00 -0.00000000000E+00 -0.74505805969E-08  0.93827000000E+00  0.93827000000E+00 0.  1.
     999902    2    1    2    0    0 -0.19232877722E-01  0.39129751175E-02 -0.13706871000E-01  0.10199906334E+01  0.10197096641E+01 0.  0.
     999903    2    3    3    0    0 -0.21455765217E-01 -0.10063817879E+00 -0.79656675878E-01  0.13134826341E+00  0.17854618356E-01 0.  0.
         14    1    1    2    0    0  0.19232877722E-01 -0.39129751175E-02  0.13706871000E-01  0.23939366582E-01  0.00000000000E+00 0.  1.
     999901    1    3    3    0    0  0.22228874950E-02  0.10455115391E+00  0.65949804878E-01  0.88864237001E+00  0.88000000000E+00 0. -1.
        -11    1    4    4    0    0 -0.19444902941E-01 -0.60673651028E-01 -0.56216867113E-01  0.84970544593E-01  0.51100000000E-03 0. -1.
         11    1    4    4    0    0 -0.20108622766E-02 -0.39964527765E-01 -0.23439808765E-01  0.46377718815E-01  0.51100000000E-03 0.  1.
</event>
<event>
 8    1  0.9956970E+004  0.1043930E+01  0.7957747E-01            NaN
         13   -1    0    0    0    0  0.00000000000E+00  0.00000000000E+00  0.74505805969E-08  0.10566000000E+00  0.10566000000E+00 0.  1.
     999900   -1    0    0    0    0 -0.00000000000E+00 -0.00000000000E+00 -0.74505805969E-08  0.93827000000E+00  0.93827000000E+00 0.  1.
     999902    2    1    2    0    0 -0.18794777812E-01 -0.44395891232E-03  0.15082052482E-01  0.10198279445E+01  0.10195430973E+01 0.  0.
     999903    2    3    3    0    0  0.92144203807E-01  0.82275239648E-01  0.30833670102E-01  0.12887450188E+00  0.19953763252E-01 0.  0.
         14    1    1    2    0    0  0.18794777812E-01  0.44395891232E-03 -0.15082052482E-01  0.24102055506E-01  0.00000000000E+00 0.  1.
     999901    1    3    3    0    0 -0.11093898162E+00 -0.82719198560E-01 -0.15751617620E-01  0.89095344262E+00  0.88000000000E+00 0.  1.
        -11    1    4    4    0    0  0.31885869340E-01  0.33586202365E-01  0.20745487693E-01  0.50748182564E-01  0.51100000000E-03 0. -1.
         11    1    4    4    0    0  0.60258334466E-01  0.48689037283E-01  0.10088182409E-01  0.78126319314E-01  0.51100000000E-03 0.  1.
</event>
<event>
 8    1  0.9956970E+004  0.1043930E+01  0.7957747E-01            NaN
         13   -1    0    0    0    0  0.00000000000E+00  0.00000000000E+00  0.74505805969E-08  0.10566000000E+00  0.10566000000E+00 0. -1.
     999900   -1    0    0    0    0 -0.00000000000E+00 -0.00000000000E+00 -0.74505805969E-08  0.93827000000E+00  0.93827000000E+00 0.  1.
     999902    2    1    2    0    0  0.11365947050E-01  0.28066196496E-01  0.15934760685E-01  0.10097128590E+01  0.10091329174E+01 0.  0.
     999903    2    3    3    0    0  0.35501970735E-01 -0.13638915528E-01 -0.11139205342E+00  0.11924445330E+00  0.19095552758E-01 0.  0.
         14    1    1    2    0    0 -0.11365947050E-01 -0.28066196496E-01 -0.15934760685E-01  0.34217140971E-01  0.00000000000E+00 0. -1.
     999901    1    3    3    0    0 -0.24136023685E-01  0.41705112024E-01  0.12732681411E+00  0.89046840573E+00  0.88000000000E+00 0. -1.
        -11    1    4    4    0    0  0.18912289833E-01 -0.12359924171E-01 -0.85709904399E-01  0.88639106862E-01  0.51100000000E-03 0.  1.
         11    1    4    4    0    0  0.16589680902E-01 -0.12789913567E-02 -0.25682149022E-01  0.30605346440E-01  0.51100000000E-03 0. -1.
</event>
<event>
 8    1  0.9956970E+004  0.1043930E+01  0.7957747E-01            NaN
         13   -1    0    0    0    0  0.00000000000E+00  0.00000000000E+00  0.74505805969E-08  0.10566000000E+00  0.10566000000E+00 0.  1.
     999900   -1    0    0    0    0 -0.00000000000E+00 -0.00000000000E+00 -0.74505805969E-08  0.93827000000E+00  0.93827000000E+00 0.  1.
     999902    2    1    2    0    0  0.90803824195E-02 -0.14074380258E-02 -0.22094527371E-01  0.10200008887E+01  0.10197201629E+01 0.  0.
     999903    2    3    3    0    0  0.96622298026E-01 -0.81041429983E-01  0.27690799039E-01  0.13068444426E+00  0.20200538894E-01 0.  0.
         14    1    1    2    0    0 -0.90803824195E-02  0.14074380258E-02  0.22094527371E-01  0.23929111275E-01  0.00000000000E+00 0.  1.
     999901    1    3    3    0    0 -0.87541915606E-01  0.79633991958E-01 -0.49785326410E-01  0.88931644446E+00  0.88000000000E+00 0.  1.
        -11    1    4    4    0    0  0.32999482936E-01 -0.37829896375E-01  0.47628983684E-02  0.50428298163E-01  0.51100000000E-03 0. -1.
         11    1    4    4    0    0  0.63622815090E-01 -0.43211533608E-01  0.22927900671E-01  0.80256146101E-01  0.51100000000E-03 0.  1.
</event>
<event>
 8    1  0.9956970E+004  0.1043930E+01  0.7957747E-01            NaN
         13   -1    0    0    0    0  0.00000000000E+00  0.00000000000E+00  0.74505805969E-08  0.10566000000E+00  0.10566000000E+00 0.  1.
     999900   -1    0    0    0    0 -0.00000000000E+00 -0.00000000000E+00 -0.74505805969E-08  0.93827000000E+00  0.93827000000E+00 0.  1.
     999902    2    1    2    0    0  0.12612823223E-01 -0.98831110307E-02 -0.17759474986E-01  0.10200101726E+01  0.10197296671E+01 0.  0.
     999903    2    3    3    0    0  0.24451039477E-01  0.10750332973E+00  0.62995546166E-01  0.12847156246E+00  0.19536742096E-01 0.  0.
         14    1    1    2    0    0 -0.12612823223E-01  0.98831110307E-02  0.17759474986E-01  0.23919827447E-01  0.00000000000E+00 0.  1.
     999901    1    3    3    0    0 -0.11838216255E-01 -0.11738644076E+00 -0.80755021152E-01  0.89153861009E+00  0.88000000000E+00 0.  1.
        -11    1    4    4    0    0  0.92457692047E-02  0.46306087289E-01  0.16123346077E-01  0.49899512802E-01  0.51100000000E-03 0. -1.
         11    1    4    4    0    0  0.15205270273E-01  0.61197242437E-01  0.46872200089E-01  0.78572049662E-01  0.51100000000E-03 0.  1.
</event>
<event>
 8    1  0.9956970E+004  0.1043930E+01  0.7957747E-01            NaN
         13   -1    0    0    0    0  0.00000000000E+00  0.00000000000E+00  0.74505805969E-08  0.10566000000E+00  0.10566000000E+00 0.  1.
     999900   -1    0    0    0    0 -0.00000000000E+00 -0.00000000000E+00 -0.74505805969E-08  0.93827000000E+00  0.93827000000E+00 0.  1.
     999902    2    1    2    0    0 -0.11017527199E-01 -0.16776684626E-01 -0.12542528387E-01  0.10202623412E+01  0.10199877876E+01 0.  0.
     999903    2    3    3    0    0 -0.91377376418E-01  0.41371912439E-01  0.80109093058E-01  0.12985609258E+00  0.19587698414E-01 0.  0.
         14    1    1    2    0    0  0.11017527199E-01  0.16776684626E-01  0.12542528387E-01  0.23667658755E-01  0.00000000000E+00 0.  1.
     999901    1    3    3    0    0  0.80359849219E-01 -0.58148597065E-01 -0.92651621445E-01  0.89040624867E+00  0.88000000000E+00 0.  1.
        -11    1    4    4    0    0 -0.23974827208E-01  0.15307265140E-01  0.13171919092E-01  0.31350682278E-01  0.51100000000E-03 0. -1.
         11    1    4    4    0    0 -0.67402549210E-01  0.26064647299E-01  0.66937173966E-01  0.98505410300E-01  0.51100000000E-03 0.  1.
</event>
<event>
 8    1  0.9956970E+004  0.1043930E+01  0.7957747E-01            NaN
         13   -1    0    0    0    0  0.00000000000E+00  0.00000000000E+00  0.74505805969E-08  0.10566000000E+00  0.10566000000E+00 0.  1.
     999900   -1    0    0    0    0 -0.00000000000E+00 -0.00000000000E+00 -0.74505805969E-08  0.93827000000E+00  0.93827000000E+00 0.  1.
     999902    2    1    2    0    0 -0.11964308839E-01  0.10746045160E-01 -0.16506990123E-01  0.10208843302E+01  0.10206241780E+01 0.  0.
     999903    2    3    3    0    0  0.11307586879E+00  0.20685609967E-01 -0.59692310248E-01  0.13094117875E+00  0.19193067175E-01 0.  0.
         14    1    1    2    0    0  0.11964308839E-01 -0.10746045160E-01  0.16506990123E-01  0.23045669778E-01  0.00000000000E+00 0.  1.
     999901    1    3    3    0    0 -0.12504017763E+00 -0.99395648070E-02  0.43185320124E-01  0.88994315147E+00  0.88000000000E+00 0.  1.
        -11    1    4    4    0    0  0.90697517136E-01  0.23641358357E-01 -0.51326653075E-01  0.10686271509E+00  0.51100000000E-03 0.  1.
         11    1    4    4    0    0  0.22378351658E-01 -0.29557483902E-02 -0.83656571728E-02  0.24078463663E-01  0.51100000000E-03 0. -1.
</event>
<event>
 8    1  0.9956970E+004  0.1043930E+01  0.7957747E-01            NaN
         13   -1    0    0    0    0  0.00000000000E+00  0.00000000000E+00  0.74505805969E-08  0.10566000000E+00  0.10566000000E+00 0. -1.
     999900   -1    0    0    0    0 -0.00000000000E+00 -0.00000000000E+00 -0.74505805969E-08  0.93827000000E+00  0.93827000000E+00 0. -1.
     999902    2    1    2    0    0 -0.67754532520E-03 -0.20589631973E-01 -0.10833791344E-01  0.10206541961E+01  0.10203887617E+01 0.  0.
     999903    2    3    3    0    0  0.68060474658E-01  0.10701324422E+00 -0.11603980504E-01  0.12879770394E+00  0.19238854674E-01 0.  0.
         14    1    1    2    0    0  0.67754532520E-03  0.20589631973E-01  0.10833791344E-01  0.23275803903E-01  0.00000000000E+00 0. -1.
     999901    1    3    3    0    0 -0.68738019983E-01 -0.12760287619E+00  0.77018915982E-03  0.89185649215E+00  0.88000000000E+00 0.  1.
        -11    1    4    4    0    0  0.68028756834E-01  0.98363710072E-01 -0.10384139869E-01  0.12004758514E+00  0.51100000000E-03 0. -1.
         11    1    4    4    0    0  0.31717823469E-04  0.86495341455E-02 -0.12198406352E-02  0.87501188066E-02  0.51100000000E-03 0.  1.
</event>
<event>
 8    1  0.9956970E+004  0.1043930E+01  0.7957747E-01            NaN
         13   -1    0    0    0    0  0.00000000000E+00  0.00000000000E+00  0.74505805969E-08  0.10566000000E+00  0.10566000000E+00 0.  1.
     999900   -1    0    0    0    0 -0.00000000000E+00 -0.00000000000E+00 -0.74505805969E-08  0.93827000000E+00  0.93827000000E+00 0.  1.
     999902    2    1    2    0    0  0.29568894389E-02  0.22403554998E-01 -0.66526883516E-02  0.10203732444E+01  0.10201012877E+01 0.  0.
     999903    2    3    3    0    0 -0.92165354185E-01  0.92428236045E-01 -0.10514461744E-01  0.13247313151E+00  0.20028612935E-01 0.  0.
         14    1    1    2    0    0 -0.29568894389E-02 -0.22403554998E-01  0.66526883516E-02  0.23556755592E-01  0.00000000000E+00 0.  1.
     999901    1    3    3    0    0  0.95122243624E-01 -0.70024681047E-01  0.38617733927E-02  0.88790011290E+00  0.88000000000E+00 0.  1.
        -11    1    4    4    0    0 -0.46857372631E-01  0.48268632558E-01  0.45725946016E-02  0.67428806910E-01  0.51100000000E-03 0. -1.
         11    1    4    4    0    0 -0.45307981555E-01  0.44159603487E-01 -0.15087056346E-01  0.65044324602E-01  0.51100000000E-03 0.  1.
</event>
<event>
 8    1  0.9956970E+004  0.1043930E+01  0.7957747E-01            NaN
         13   -1    0    0    0    0  0.00000000000E+00  0.00000000000E+00  0.74505805969E-08  0.10566000000E+00  0.10566000000E+00 0.  1.
     999900   -1    0    0    0    0 -0.00000000000E+00 -0.00000000000E+00 -0.74505805969E-08  0.93827000000E+00  0.93827000000E+00 0.  1.
     999902    2    1    2    0    0  0.19822840450E-01 -0.36111725180E-02 -0.13687470827E-01  0.10195715840E+01  0.10192805711E+01 0.  0.
     999903    2    3    3    0    0  0.10749843628E+00 -0.61900561160E-01  0.39253310583E-01  0.13171608382E+00  0.20511242528E-01 0.  0.
         14    1    1    2    0    0 -0.19822840450E-01  0.36111725180E-02  0.13687470827E-01  0.24358415960E-01  0.00000000000E+00 0.  1.
     999901    1    3    3    0    0 -0.87675595834E-01  0.58289388642E-01 -0.52940781410E-01  0.88785550022E+00  0.88000000000E+00 0.  1.
        -11    1    4    4    0    0  0.92710963035E-01 -0.51641262618E-01  0.25732901008E-01  0.10919975269E+00  0.51100000000E-03 0.  1.
         11    1    4    4    0    0  0.14787473249E-01 -0.10259298541E-01  0.13520409575E-01  0.22516331133E-01  0.51100000000E-03 0. -1.
</event>
<event>
 8    1  0.9956970E+004  0.1043930E+01  0.7957747E-01            NaN
         13   -1    0    0    0    0  0.00000000000E+00  0.00000000000E+00  0.74505805969E-08  0.10566000000E+00  0.10566000000E+00 0. -1.
     999900   -1    0    0    0    0 -0.00000000000E+00 -0.00000000000E+00 -0.74505805969E-08  0.93827000000E+00  0.93827000000E+00 0. -1.
     999902    2    1    2    0    0  0.32226905177E-02  0.21963374411E-01 -0.67217736681E-02  0.10207360829E+01  0.10204725342E+01 0.  0.
     999903    2    3    3    0    0  0.83038222476E-01 -0.76521699338E-01  0.59460401289E-01  0.12919252861E+00  0.20106050487E-01 0.  0.
         14    1    1    2    0    0 -0.32226905177E-02 -0.21963374411E-01  0.67217736681E-02  0.23193917110E-01  0.00000000000E+00 0.  1.
     999901    1    3    3    0    0 -0.79815531958E-01  0.98485073748E-01 -0.66182174957E-01  0.89154355428E+00  0.88000000000E+00 0. -1.
        -11    1    4    4    0    0  0.19772198546E-01 -0.16185343439E-01  0.45678661316E-02  0.25962120475E-01  0.51100000000E-03 0.  1.
         11    1    4    4    0    0  0.63266023930E-01 -0.60336355899E-01  0.54892535157E-01  0.10323040814E+00  0.51100000000E-03 0. -1.
</event>
<event>
 8    1  0.9956970E+004  0.1043930E+01  0.7957747E-01            NaN
         13   -1    0    0    0    0  0.00000000000E+00  0.00000000000E+00  0.74505805969E-08  0.10566000000E+00  0.10566000000E+00 0.  1.
     999900   -1    0    0    0    0 -0.00000000000E+00 -0.00000000000E+00 -0.74505805969E-08  0.93827000000E+00  0.93827000000E+00 0. -1.
     999902    2    1    2    0    0  0.18233966129E-01 -0.67467301501E-02  0.14581222880E-01  0.10196275732E+01  0.10193379126E+01 0.  0.
     999903    2    3    3    0    0 -0.67442342870E-01  0.10608226450E+00 -0.12494275158E-01  0.12788551712E+00  0.19916880364E-01 0.  0.
         14    1    1    2    0    0 -0.18233966129E-01  0.67467301501E-02 -0.14581222880E-01  0.24302426816E-01  0.00000000000E+00 0. -1.
     999901    1    3    3    0    0  0.85676308999E-01 -0.11282899465E+00  0.27075498038E-01  0.89174205606E+00  0.88000000000E+00 0.  1.
        -11    1    4    4    0    0 -0.27775949388E-01  0.49680634055E-01 -0.15072169696E-01  0.58882087130E-01  0.51100000000E-03 0. -1.
         11    1    4    4    0    0 -0.39666393482E-01  0.56401630448E-01  0.25778945375E-02  0.69003429990E-01  0.51100000000E-03 0.  1.
</event>
<event>
 8    1  0.9956970E+004  0.1043930E+01  0.7957747E-01            NaN
         13   -1    0    0    0    0  0.00000000000E+00  0.00000000000E+00  0.74505805969E-08  0.10566000000E+00  0.10566000000E+00 0. -1.
     999900   -1    0    0    0    0 -0.00000000000E+00 -0.00000000000E+00 -0.74505805969E-08  0.93827000000E+00  0.93827000000E+00 0. -1.
     999902    2    1    2    0    0 -0.14425040178E-01 -0.48102922190E-03 -0.19088245016E-01  0.10199993863E+01  0.10197186248E+01 0.  0.
     999903    2    3    3    0    0  0.53577673074E-03  0.12685932629E+00  0.17232085807E-01  0.12996648883E+00  0.22377839780E-01 0.  0.
         14    1    1    2    0    0  0.14425040178E-01  0.48102922190E-03  0.19088245016E-01  0.23930613679E-01  0.00000000000E+00 0. -1.
     999901    1    3    3    0    0 -0.14960816909E-01 -0.12734035552E+00 -0.36320330823E-01  0.89003289749E+00  0.88000000000E+00 0.  1.
        -11    1    4    4    0    0 -0.97368545951E-02  0.40640677572E-01  0.89582392702E-02  0.42743212124E-01  0.51100000000E-03 0. -1.
         11    1    4    4    0    0  0.10272631326E-01  0.86218648722E-01  0.82738465364E-02  0.87223276706E-01  0.51100000000E-03 0.  1.
</event>
<event>
 8    1  0.9956970E+004  0.1043930E+01  0.7957747E-01            NaN
         13   -1    0    0    0    0  0.00000000000E+00  0.00000000000E+00  0.74505805969E-08  0.10566000000E+00  0.10566000000E+00 0.  1.
     999900   -1    0    0    0    0 -0.00000000000E+00 -0.00000000000E+00 -0.74505805969E-08  0.93827000000E+00  0.93827000000E+00 0.  1.
     999902    2    1    2    0    0 -0.54344657415E-02  0.10987140257E-01 -0.20678096664E-01  0.10198918147E+01  0.10196084932E+01 0.  0.
     999903    2    3    3    0    0 -0.10508937935E+00 -0.64205276581E-01  0.35119033843E-01  0.12933113678E+00  0.18085939578E-01 0.  0.
         14    1    1    2    0    0  0.54344657415E-02 -0.10987140257E-01  0.20678096664E-01  0.24038185259E-01  0.00000000000E+00 0.  1.
     999901    1    3    3    0    0  0.99654913606E-01  0.75192416838E-01 -0.55797130507E-01  0.89056067796E+00  0.88000000000E+00 0.  1.
        -11    1    4    4    0    0 -0.60303221293E-01 -0.35784333986E-01  0.29187959465E-01  0.75955218095E-01  0.51100000000E-03 0.  1.
         11    1    4    4    0    0 -0.44786158054E-01 -0.28420942595E-01  0.59310743784E-02  0.53375918686E-01  0.51100000000E-03 0. -1.
</event>
<event>
 8    1  0.9956970E+004  0.1043930E+01  0.7957747E-01            NaN
         13   -1    0    0    0    0  0.00000000000E+00  0.00000000000E+00  0.74505805969E-08  0.10566000000E+00  0.10566000000E+00 0. -1.
     999900   -1    0    0    0    0 -0.00000000000E+00 -0.00000000000E+00 -0.74505805969E-08  0.93827000000E+00  0.93827000000E+00 0.  1.
     999902    2    1    2    0    0  0.27746721657E-02 -0.23520776087E-01  0.43314842028E-02  0.10198533003E+01  0.10195690593E+01 0.  0.
     999903    2    3    3    0    0 -0.66719492575E-01 -0.10661897114E+00 -0.36439884178E-01  0.13227397796E+00  0.18693431752E-01 0.  0.
         14    1    1    2    0    0 -0.27746721657E-02  0.23520776087E-01 -0.43314842028E-02  0.24076699706E-01  0.00000000000E+00 0. -1.
     999901    1    3    3    0    0  0.69494164741E-01  0.83098195051E-01  0.40771368380E-01  0.88757932233E+00  0.88000000000E+00 0.  1.
        -11    1    4    4    0    0 -0.32801208289E-01 -0.65975866810E-01 -0.15202890505E-01  0.75233790728E-01  0.51100000000E-03 0. -1.
         11    1    4    4    0    0 -0.33918284286E-01 -0.40643104328E-01 -0.21236993673E-01  0.57040187233E-01  0.51100000000E-03 0.  1.
</event>
<event>
 8    1  0.9956970E+004  0.1043930E+01  0.7957747E-01            NaN
         13   -1    0    0    0    0  0.00000000000E+00  0.00000000000E+00  0.74505805969E-08  0.10566000000E+00  0.10566000000E+00 0.  1.
     999900   -1    0    0    0    0 -0.00000000000E+00 -0.00000000000E+00 -0.74505805969E-08  0.93827000000E+00  0.93827000000E+00 0.  1.
     999902    2    1    2    0    0  0.12727045903E-01 -0.19441331570E-01  0.34829675109E-02  0.10204337421E+01  0.10201631967E+01 0.  0.
     999903    2    3    3    0    0 -0.41292088369E-01  0.11937037795E+00 -0.13616670126E-02  0.12790350285E+00  0.20078052973E-01 0.  0.
         14    1    1    2    0    0 -0.12727045903E-01  0.19441331570E-01 -0.34829675109E-02  0.23496257858E-01  0.00000000000E+00 0. -1.
     999901    1    3    3    0    0  0.54019134273E-01 -0.13881170952E+00  0.48446345235E-02  0.89253023929E+00  0.88000000000E+00 0.  1.
        -11    1    4    4    0    0 -0.21390654226E-01  0.35630066591E-01 -0.42724526637E-02  0.41780099404E-01  0.51100000000E-03 0.  1.
         11    1    4    4    0    0 -0.19901434144E-01  0.83740311356E-01  0.29107856511E-02  0.86123403445E-01  0.51100000000E-03 0. -1.
</event>
<event>
 8    1  0.9956970E+004  0.1043930E+01  0.7957747E-01            NaN
         13   -1    0    0    0    0  0.00000000000E+00  0.00000000000E+00  0.74505805969E-08  0.10566000000E+00  0.10566000000E+00 0.  1.
     999900   -1    0    0    0    0 -0.00000000000E+00 -0.00000000000E+00 -0.74505805969E-08  0.93827000000E+00  0.93827000000E+00 0. -1.
     999902    2    1    2    0    0  0.20579385313E-01 -0.10340427954E-01 -0.91900582267E-02  0.10191329695E+01  0.10188312504E+01 0.  0.
     999903    2    3    3    0    0 -0.74048203334E-01  0.64431202313E-01  0.77121801939E-01  0.12672335817E+00  0.21829359224E-01 0.  0.
         14    1    1    2    0    0 -0.20579385313E-01  0.10340427954E-01  0.91900582267E-02  0.24797030475E-01  0.00000000000E+00 0. -1.
     999901    1    3    3    0    0  0.94627588648E-01 -0.74771630267E-01 -0.86311860166E-01  0.89240961135E+00  0.88000000000E+00 0. -1.
        -11    1    4    4    0    0 -0.26284087293E-01  0.11717505213E-01  0.28868959676E-01  0.40765563004E-01  0.51100000000E-03 0. -1.
         11    1    4    4    0    0 -0.47764116041E-01  0.52713697100E-01  0.48252842263E-01  0.85957795171E-01  0.51100000000E-03 0.  1.
</event>
<event>
 8    1  0.9956970E+004  0.1043930E+01  0.7957747E-01            NaN
         13   -1    0    0    0    0  0.00000000000E+00  0.00000000000E+00  0.74505805969E-08  0.10566000000E+00  0.10566000000E+00 0.  1.
     999900   -1    0    0    0    0 -0.00000000000E+00 -0.00000000000E+00 -0.74505805969E-08  0.93827000000E+00  0.93827000000E+00 0. -1.
     999902    2    1    2    0    0 -0.50538653055E-02 -0.38215392894E-02 -0.23451609270E-01  0.10196375383E+01  0.10193481181E+01 0.  0.
     999903    2    3    3    0    0  0.12111399605E+00 -0.22656628349E-01 -0.40089840892E-01  0.13028388506E+00  0.13593105486E-01 0.  0.
         14    1    1    2    0    0  0.50538653055E-02  0.38215392894E-02  0.23451609270E-01  0.24292461679E-01  0.00000000000E+00 0.  1.
     999901    1    3    3    0    0 -0.12616786135E+00  0.18835089059E-01  0.16638231623E-01  0.88935365326E+00  0.88000000000E+00 0.  1.
        -11    1    4    4    0    0  0.47877778558E-01 -0.94569167187E-02 -0.89789182123E-02  0.49624560923E-01  0.51100000000E-03 0.  1.
         11    1    4    4    0    0  0.73236217489E-01 -0.13199711630E-01 -0.31110922680E-01  0.80659324137E-01  0.51100000000E-03 0. -1.
</event>
<event>
 8    1  0.9956970E+004  0.1043930E+01  0.7957747E-01            NaN
         13   -1    0    0    0    0  0.00000000000E+00  0.00000000000E+00  0.74505805969E-08  0.10566000000E+00  0.10566000000E+00 0. -1.
     999900   -1    0    0    0    0 -0.00000000000E+00 -0.00000000000E+00 -0.74505805969E-08  0.93827000000E+00  0.93827000000E+00 0.  1.
     999902    2    1    2    0    0  0.11099276947E-01 -0.11798499996E-01 -0.16459754636E-01  0.10208362330E+01  0.10205749814E+01 0.  0.
     999903    2    3    3    0    0 -0.40620897372E-01 -0.77555480556E-01  0.94387061937E-01  0.12994568212E+00  0.17665021189E-01 0.  0.
         14    1    1    2    0    0 -0.11099276947E-01  0.11798499996E-01  0.16459754636E-01  0.23093766985E-01  0.00000000000E+00 0. -1.
     999901    1    3    3    0    0  0.51720174319E-01  0.65756980560E-01 -0.11084681657E+00  0.89089055089E+00  0.88000000000E+00 0.  1.
        -11    1    4    4    0    0 -0.13481484996E-01 -0.36441760683E-01  0.52261444144E-01  0.65125049132E-01  0.51100000000E-03 0. -1.
         11    1    4    4    0    0 -0.27139412376E-01 -0.41113719873E-01  0.42125617793E-01  0.64820632991E-01  0.51100000000E-03 0.  1.
</event>
<event>
 8    1  0.9956970E+004  0.1043930E+01  0.7957747E-01            NaN
         13   -1    0    0    0    0  0.00000000000E+00  0.00000000000E+00  0.74505805969E-08  0.10566000000E+00  0.10566000000E+00 0.  1.
     999900   -1    0    0    0    0 -0.00000000000E+00 -0.00000000000E+00 -0.74505805969E-08  0.93827000000E+00  0.93827000000E+00 0.  1.
     999902    2    1    2    0    0  0.11015322707E-01  0.78163660585E-02 -0.20607940926E-01  0.10192901919E+01  0.10189923332E+01 0.  0.
     999903    2    3    3    0    0 -0.47407878579E-01  0.47594054204E-02 -0.12110353523E+00  0.13164049755E+00  0.19824113014E-01 0.  0.
         14    1    1    2    0    0 -0.11015322707E-01 -0.78163660585E-02  0.20607940926E-01  0.24639808073E-01  0.00000000000E+00 0.  1.
     999901    1    3    3    0    0  0.58423201285E-01  0.30569606380E-02  0.10049559431E+00  0.88764969438E+00  0.88000000000E+00 0.  1.
        -11    1    4    4    0    0 -0.13719823431E-01 -0.64860300493E-02 -0.25845761016E-01  0.29976100885E-01  0.51100000000E-03 0. -1.
         11    1    4    4    0    0 -0.33688055148E-01  0.11245435470E-01 -0.95257774218E-01  0.10166439666E+00  0.51100000000E-03 0.  1.
</event>
<event>
 8    1  0.9956970E+004  0.1043930E+01  0.7957747E-01            NaN
         13   -1    0    0    0    0  0.00000000000E+00  0.00000000000E+00  0.74505805969E-08  0.10566000000E+00  0.10566000000E+00 0.  1.
     999900   -1    0    0    0    0 -0.00000000000E+00 -0.00000000000E+00 -0.74505805969E-08  0.93827000000E+00  0.93827000000E+00 0.  1.
     999902    2    1    2    0    0 -0.62117180554E-02  0.19731294449E-01  0.11469918858E-01  0.10202769144E+01  0.10200027027E+01 0.  0.
     999903    2    3    3    0    0  0.36642569597E-01 -0.99020756037E-01 -0.69200917700E-01  0.12761442308E+00  0.18678488540E-01 0.  0.
         14    1    1    2    0    0  0.62117180554E-02 -0.19731294449E-01 -0.11469918858E-01  0.23653085643E-01  0.00000000000E+00 0. -1.
     999901    1    3    3    0    0 -0.42854287652E-01  0.11875205049E+00  0.80670836558E-01  0.89266249128E+00  0.88000000000E+00 0. -1.
        -11    1    4    4    0    0  0.21072547508E-01 -0.40145484406E-01 -0.38134134811E-01  0.59246818779E-01  0.51100000000E-03 0.  1.
         11    1    4    4    0    0  0.15570022089E-01 -0.58875271631E-01 -0.31066782890E-01  0.68367604299E-01  0.51100000000E-03 0. -1.
</event>
<event>
 8    1  0.9956970E+004  0.1043930E+01  0.7957747E-01            NaN
         13   -1    0    0    0    0  0.00000000000E+00  0.00000000000E+00  0.74505805969E-08  0.10566000000E+00  0.10566000000E+00 0. -1.
     999900   -1    0    0    0    0 -0.00000000000E+00 -0.00000000000E+00 -0.74505805969E-08  0.93827000000E+00  0.93827000000E+00 0. -1.
     999902    2    1    2    0    0 -0.21307704816E-01  0.71983834637E-02 -0.67279515138E-04  0.10214391233E+01  0.10211914821E+01 0.  0.
     999903    2    3    3    0    0 -0.25749104638E-01  0.12781693273E+00 -0.16370912888E-01  0.13305048709E+00  0.20838441449E-01 0.  0.
         14    1    1    2    0    0  0.21307704816E-01 -0.71983834637E-02  0.67279515138E-04  0.22490876718E-01  0.00000000000E+00 0. -1.
     999901    1    3    3    0    0  0.44413998219E-02 -0.12061854927E+00  0.16303633373E-01  0.88838863620E+00  0.88000000000E+00 0.  1.
        -11    1    4    4    0    0 -0.27005025717E-01  0.11780027536E+00 -0.10383673254E-01  0.12130234161E+00  0.51100000000E-03 0.  1.
         11    1    4    4    0    0  0.12559210786E-02  0.10016657375E-01 -0.59872396343E-02  0.11748145478E-01  0.51100000000E-03 0. -1.
</event>
<event>
 8    1  0.9956970E+004  0.1043930E+01  0.7957747E-01            NaN
         13   -1    0    0    0    0  0.00000000000E+00  0.00000000000E+00  0.74505805969E-08  0.10566000000E+00  0.10566000000E+00 0.  1.
     999900   -1    0    0    0    0 -0.00000000000E+00 -0.00000000000E+00 -0.74505805969E-08  0.93827000000E+00  0.93827000000E+00 0.  1.
     999902    2    1    2    0    0  0.15749257053E-01 -0.15158713943E-01 -0.94260757562E-02  0.10201250297E+01  0.10198472433E+01 0.  0.
     999903    2    3    3    0    0  0.29191461430E-01 -0.12432937293E+00  0.29273194808E-01  0.13243332693E+00  0.19280346318E-01 0.  0.
         14    1    1    2    0    0 -0.15749257053E-01  0.15158713943E-01  0.94260757562E-02  0.23804970286E-01  0.00000000000E+00 0.  1.
     999901    1    3    3    0    0 -0.13442204377E-01  0.10917065899E+00 -0.38699270564E-01  0.88769170278E+00  0.88000000000E+00 0.  1.
        -11    1    4    4    0    0  0.17207729209E-01 -0.81968927539E-01  0.28258389745E-01  0.88395750681E-01  0.51100000000E-03 0.  1.
         11    1    4    4    0    0  0.11983732221E-01 -0.42360445395E-01  0.10148050629E-02  0.44037576253E-01  0.51100000000E-03 0. -1.
</event>
<event>
 8    1  0.9956970E+004  0.1043930E+01  0.7957747E-01            NaN
         13   -1    0    0    0    0  0.00000000000E+00  0.00000000000E+00  0.74505805969E-08  0.10566000000E+00  0.10566000000E+00 0.  1.
     999900   -1    0    0    0    0 -0.00000000000E+00 -0.00000000000E+00 -0.74505805969E-08  0.93827000000E+00  0.93827000000E+00 0. -1.
     999902    2    1    2    0    0  0.19306407394E-01 -0.15082507425E-01  0.16302801456E-02  0.10193764420E+01  0.10190806903E+01 0.  0.
     999903    2    3    3    0    0  0.81885998734E-01 -0.15914523020E-01 -0.99619148016E-01  0.13136273479E+00  0.19328854310E-01 0.  0.
         14    1    1    2    0    0 -0.19306407394E-01  0.15082507425E-01 -0.16302801456E-02  0.24553557991E-01  0.00000000000E+00 0. -1.
     999901    1    3    3    0    0 -0.62579591341E-01  0.83201559548E-03  0.10124942816E+00  0.88801370722E+00  0.88000000000E+00 0.  1.
        -11    1    4    4    0    0  0.58033652260E-01 -0.10035028652E-01 -0.55844350617E-01  0.81163164130E-01  0.51100000000E-03 0.  1.
         11    1    4    4    0    0  0.23852346474E-01 -0.58794943678E-02 -0.43774797399E-01  0.50199570662E-01  0.51100000000E-03 0. -1.
</event>
<event>
 8    1  0.9956970E+004  0.1043930E+01  0.7957747E-01            NaN
         13   -1    0    0    0    0  0.00000000000E+00  0.00000000000E+00  0.74505805969E-08  0.10566000000E+00  0.10566000000E+00 0.  1.
     999900   -1    0    0    0    0 -0.00000000000E+00 -0.00000000000E+00 -0.74505805969E-08  0.93827000000E+00  0.93827000000E+00 0. -1.
     999902    2    1    2    0    0  0.15783019437E-01  0.41941475709E-02 -0.13457160026E-01  0.10227689572E+01  0.10225500233E+01 0.  0.
     999903    2    3    3    0    0  0.74437716068E-01 -0.23676241667E-01 -0.10855220310E+00  0.13526673227E+00  0.20297045838E-01 0.  0.
         14    1    1    2    0    0 -0.15783019437E-01 -0.41941475709E-02  0.13457160026E-01  0.21161042799E-01  0.00000000000E+00 0.  1.
     999901    1    3    3    0    0 -0.58654696632E-01  0.27870389238E-01  0.95095043072E-01  0.88750222493E+00  0.88000000000E+00 0.  1.
        -11    1    4    4    0    0  0.61701825448E-01 -0.10975127073E-01 -0.82536022005E-01  0.10363409056E+00  0.51100000000E-03 0. -1.
         11    1    4    4    0    0  0.12735890621E-01 -0.12701114594E-01 -0.26016181093E-01  0.31632641709E-01  0.51100000000E-03 0.  1.
</event>
<event>
 8    1  0.9956970E+004  0.1043930E+01  0.7957747E-01            NaN
         13   -1    0    0    0    0  0.00000000000E+00  0.00000000000E+00  0.74505805969E-08  0.10566000000E+00  0.10566000000E+00 0.  1.
     999900   -1    0    0    0    0 -0.00000000000E+00 -0.00000000000E+00 -0.74505805969E-08  0.93827000000E+00  0.93827000000E+00 0.  1.
     999902    2    1    2    0    0 -0.20279103052E-01 -0.66668612732E-02  0.99486910895E-02  0.10203786622E+01  0.10201068320E+01 0.  0.
     999903    2    3    3    0    0 -0.59670572445E-01 -0.54951706288E-01 -0.10116362245E+00  0.13120541675E+00  0.20012886838E-01 0.  0.
         14    1    1    2    0    0  0.20279103052E-01  0.66668612732E-02 -0.99486910895E-02  0.23551337844E-01  0.00000000000E+00 0. -1.
     999901    1    3    3    0    0  0.39391469393E-01  0.48284845015E-01  0.11111231354E+00  0.88917324540E+00  0.88000000000E+00 0. -1.
        -11    1    4    4    0    0 -0.16114205181E-01 -0.18398548034E-01 -0.45346426072E-01  0.51524107531E-01  0.51100000000E-03 0.  1.
         11    1    4    4    0    0 -0.43556367264E-01 -0.36553158254E-01 -0.55817196374E-01  0.79681309224E-01  0.51100000000E-03 0. -1.
</event>
<event>
 8    1  0.9956970E+004  0.1043930E+01  0.7957747E-01            NaN
         13   -1    0    0    0    0  0.00000000000E+00  0.00000000000E+00  0.74505805969E-08  0.10566000000E+00  0.10566000000E+00 0. -1.
     999900   -1    0    0    0    0 -0.00000000000E+00 -0.00000000000E+00 -0.74505805969E-08  0.93827000000E+00  0.93827000000E+00 0. -1.
     999902    2    1    2    0    0 -0.17685584574E-01 -0.86893944094E-02 -0.13234581921E-01  0.10201931166E+01  0.10199169356E+01 0.  0.
     999903    2    3    3    0    0  0.10823934980E+00 -0.41419273758E-01 -0.54243498291E-01  0.12968199068E+00  0.21065339203E-01 0.  0.
         14    1    1    2    0    0  0.17685584574E-01  0.86893944094E-02  0.13234581921E-01  0.23736883442E-01  0.00000000000E+00 0. -1.
     999901    1    3    3    0    0 -0.12592493437E+00  0.32729879348E-01  0.41008916370E-01  0.89051112588E+00  0.88000000000E+00 0.  1.
        -11    1    4    4    0    0  0.23017260594E-01  0.11561038900E-04 -0.99741580334E-02  0.25090623117E-01  0.51100000000E-03 0.  1.
         11    1    4    4    0    0  0.85222089202E-01 -0.41430834797E-01 -0.44269340258E-01  0.10459136756E+00  0.51100000000E-03 0. -1.
</event>
<event>
 8    1  0.9956970E+004  0.1043930E+01  0.7957747E-01            NaN
         13   -1    0    0    0    0  0.00000000000E+00  0.00000000000E+00  0.74505805969E-08  0.10566000000E+00  0.10566000000E+00 0.  1.
     999900   -1    0    0    0    0 -0.00000000000E+00 -0.00000000000E+00 -0.74505805969E-08  0.93827000000E+00  0.93827000000E+00 0. -1.
     999902    2    1    2    0    0  0.65525053834E-03  0.25155295623E-01 -0.12288669924E-02  0.10187361840E+01  0.10184246090E+01 0.  0.
     999903    2    3    3    0    0  0.91667908212E-01  0.80158233353E-01  0.44256379647E-01  0.13116785722E+00  0.20445827418E-01 0.  0.
         14    1    1    2    0    0 -0.65525053834E-03 -0.25155295623E-01  0.12288669924E-02  0.25193816012E-01  0.00000000000E+00 0.  1.
     999901    1    3    3    0    0 -0.91012657673E-01 -0.55002937730E-01 -0.45485246640E-01  0.88756832677E+00  0.88000000000E+00 0.  1.
        -11    1    4    4    0    0  0.39742702715E-01  0.47527812075E-01  0.18597832466E-01  0.64687833734E-01  0.51100000000E-03 0. -1.
         11    1    4    4    0    0  0.51925205497E-01  0.32630421277E-01  0.25658547182E-01  0.66480023489E-01  0.51100000000E-03 0.  1.
</event>
<event>
 8    1  0.9956970E+004  0.1043930E+01  0.7957747E-01            NaN
         13   -1    0    0    0    0  0.00000000000E+00  0.00000000000E+00  0.74505805969E-08  0.10566000000E+00  0.10566000000E+00 0. -1.
     999900   -1    0    0    0    0 -0.00000000000E+00 -0.00000000000E+00 -0.74505805969E-08  0.93827000000E+00  0.93827000000E+00 0.  1.
     999902    2    1    2    0    0  0.25667796923E-03 -0.78382402756E-02  0.21780202856E-01  0.10207808935E+01  0.10205183739E+01 0.  0.
     999903    2    3    3    0    0  0.74238489304E-01  0.93677408099E-01 -0.45199347804E-01  0.12934104952E+00  0.19982891843E-01 0.  0.
         14    1    1    2    0    0 -0.25667796923E-03  0.78382402756E-02 -0.21780202856E-01  0.23149106476E-01  0.00000000000E+00 0.  1.
     999901    1    3    3    0    0 -0.73981811335E-01 -0.10151564837E+00  0.66979550661E-01  0.89143984401E+00  0.88000000000E+00 0. -1.
        -11    1    4    4    0    0  0.76160291408E-02  0.20621615981E-02 -0.30282050276E-02  0.84668504781E-02  0.51100000000E-03 0. -1.
         11    1    4    4    0    0  0.66622460163E-01  0.91615246501E-01 -0.42171142777E-01  0.12087419904E+00  0.51100000000E-03 0.  1.
</event>
<event>
 8    1  0.1034423E+005  0.1043930E+01  0.7957747E-01            NaN
         13   -1    0    0    0    0  0.00000000000E+00  0.00000000000E+00  0.74505805969E-08  0.10566000000E+00  0.10566000000E+00 0. -1.
     999900   -1    0    0    0    0 -0.00000000000E+00 -0.00000000000E+00 -0.74505805969E-08  0.93827000000E+00  0.93827000000E+00 0.  1.
     999902    2    1    2    0    0  0.24191438841E-01 -0.21146767586E-02 -0.11255651335E-01  0.10171645884E+01  0.10168123783E+01 0.  0.
     999903    2    3    3    0    0  0.72143909385E-01  0.39664141949E-01  0.96379717586E-01  0.12832811201E+00  0.20026646054E-01 0.  0.
         14    1    1    2    0    0 -0.24191438841E-01  0.21146767586E-02  0.11255651335E-01  0.26765411597E-01  0.00000000000E+00 0. -1.
     999901    1    3    3    0    0 -0.47952470544E-01 -0.41778818707E-01 -0.10763536892E+00  0.88883647639E+00  0.88000000000E+00 0.  1.
        -11    1    4    4    0    0  0.12234108466E-01  0.14403880163E-01  0.29612402539E-01  0.35132615599E-01  0.51100000000E-03 0. -1.
         11    1    4    4    0    0  0.59909800919E-01  0.25260261786E-01  0.66767315048E-01  0.93195496411E-01  0.51100000000E-03 0.  1.
</event>
<event>
 8    1  0.9956970E+004  0.1043930E+01  0.7957747E-01            NaN
         13   -1    0    0    0    0  0.00000000000E+00  0.00000000000E+00  0.74505805969E-08  0.10566000000E+00  0.10566000000E+00 0. -1.
     999900   -1    0    0    0    0 -0.00000000000E+00 -0.00000000000E+00 -0.74505805969E-08  0.93827000000E+00  0.93827000000E+00 0.  1.
     999902    2    1    2    0    0 -0.14254642691E-01 -0.38036983528E-03  0.17191666575E-01  0.10215940890E+01  0.10213498861E+01 0.  0.
     999903    2    3    3    0    0 -0.85179566634E-01 -0.46096355900E-01  0.91028331290E-01  0.13447958161E+00  0.20449160675E-01 0.  0.
         14    1    1    2    0    0  0.14254642691E-01  0.38036983528E-03 -0.17191666575E-01  0.22335910975E-01  0.00000000000E+00 0.  1.
     999901    1    3    3    0    0  0.70924923942E-01  0.45715986064E-01 -0.73836664715E-01  0.88711450742E+00  0.88000000000E+00 0.  1.
        -11    1    4    4    0    0 -0.37314024883E-01 -0.24196900390E-01  0.28859737200E-01  0.53018600450E-01  0.51100000000E-03 0. -1.
         11    1    4    4    0    0 -0.47865541751E-01 -0.21899455510E-01  0.62168594090E-01  0.81460981155E-01  0.51100000000E-03 0.  1.
</event>
<event>
 8    1  0.9956970E+004  0.1043930E+01  0.7957747E-01            NaN
         13   -1    0    0    0    0  0.00000000000E+00  0.00000000000E+00  0.74505805969E-08  0.10566000000E+00  0.10566000000E+00 0.  1.
     999900   -1    0    0    0    0 -0.00000000000E+00 -0.00000000000E+00 -0.74505805969E-08  0.93827000000E+00  0.93827000000E+00 0.  1.
     999902    2    1    2    0    0 -0.13708958416E-01 -0.14355126731E-01  0.12774456635E-01  0.10203250864E+01  0.10200520036E+01 0.  0.
     999903    2    3    3    0    0  0.32486538505E-01 -0.64533821527E-01  0.10921994112E+00  0.13243226807E+00  0.19731213376E-01 0.  0.
         14    1    1    2    0    0  0.13708958416E-01  0.14355126731E-01 -0.12774456635E-01  0.23604913612E-01  0.00000000000E+00 0. -1.
     999901    1    3    3    0    0 -0.46195496922E-01  0.50178694797E-01 -0.96445484488E-01  0.88789281832E+00  0.88000000000E+00 0.  1.
        -11    1    4    4    0    0  0.10555153264E-01 -0.42354104395E-01  0.65996569275E-01  0.79127047819E-01  0.51100000000E-03 0. -1.
         11    1    4    4    0    0  0.21931385241E-01 -0.22179717132E-01  0.43223371849E-01  0.53305220248E-01  0.51100000000E-03 0.  1.
</event>
<event>
 8    1  0.9956970E+004  0.1043930E+01  0.7957747E-01            NaN
         13   -1    0    0    0    0  0.00000000000E+00  0.00000000000E+00  0.74505805969E-08  0.10566000000E+00  0.10566000000E+00 0. -1.
     999900   -1    0    0    0    0 -0.00000000000E+00 -0.00000000000E+00 -0.74505805969E-08  0.93827000000E+00  0.93827000000E+00 0.  1.
     999902    2    1    2    0    0  0.10818017303E-01  0.15870114441E-01  0.14345485646E-01  0.10199574534E+01  0.10196756954E+01 0.  0.
     999903    2    3    3    0    0  0.12186890127E+00 -0.31150369134E-01 -0.28320280809E-01  0.13070856120E+00  0.21454954462E-01 0.  0.
         14    1    1    2    0    0 -0.10818017303E-01 -0.15870114441E-01 -0.14345485646E-01  0.23972546572E-01  0.00000000000E+00 0.  1.
     999901    1    3    3    0    0 -0.11105088397E+00  0.47020483575E-01  0.42665766455E-01  0.88924889223E+00  0.88000000000E+00 0. -1.
        -11    1    4    4    0    0  0.30340272130E-01 -0.13509362450E-03 -0.13555334879E-02  0.30375137123E-01  0.51100000000E-03 0.  1.
         11    1    4    4    0    0  0.91528629141E-01 -0.31015275510E-01 -0.26964747321E-01  0.10033342407E+00  0.51100000000E-03 0. -1.
</event>
<event>
 8    1  0.9956970E+004  0.1043930E+01  0.7957747E-01            NaN
         13   -1    0    0    0    0  0.00000000000E+00  0.00000000000E+00  0.74505805969E-08  0.10566000000E+00  0.10566000000E+00 0. -1.
     999900   -1    0    0    0    0 -0.00000000000E+00 -0.00000000000E+00 -0.74505805969E-08  0.93827000000E+00  0.93827000000E+00 0.  1.
     999902    2    1    2    0    0 -0.20643964710E-01 -0.85223747151E-02  0.59132381786E-02  0.10208265255E+01  0.10205650516E+01 0.  0.
     999903    2    3    3    0    0 -0.94710229574E-01  0.49731531132E-01 -0.75017150241E-01  0.13210325194E+00  0.19504962660E-01 0.  0.
         14    1    1    2    0    0  0.20643964710E-01  0.85223747151E-02 -0.59132381786E-02  0.23103474533E-01  0.00000000000E+00 0. -1.
     999901    1    3    3    0    0  0.74066264864E-01 -0.58253905847E-01  0.80930388420E-01  0.88872327353E+00  0.88000000000E+00 0. -1.
        -11    1    4    4    0    0 -0.48223053793E-01  0.28263181512E-01 -0.50491606776E-01  0.75325519063E-01  0.51100000000E-03 0.  1.
         11    1    4    4    0    0 -0.46487175781E-01  0.21468349620E-01 -0.24525543466E-01  0.56777732878E-01  0.51100000000E-03 0. -1.
</event>
<event>
 7    1  0.1169301E+005  0.1043930E+01  0.7957747E-01            NaN
         13   -1    0    0    0    0  0.00000000000E+00  0.00000000000E+00  0.74505805969E-08  0.10566000000E+00  0.10566000000E+00 0.  1.
     999900   -1    0    0    0    0 -0.00000000000E+00 -0.00000000000E+00 -0.74505805969E-08  0.93827000000E+00  0.93827000000E+00 0.  1.
     999903    2    1    2    0    0  0.55603242975E-01  0.57521432533E-01 -0.76751047437E-01  0.11308124166E+00  0.22275729021E-01 0.  0.
         14    1    1    2    0    0 -0.97902963526E-02  0.17970072672E-01  0.40863832749E-01  0.45701490582E-01  0.00000000000E+00 0.  1.
     999901    1    1    2    0    0 -0.45812946622E-01 -0.75491505205E-01  0.35887214688E-01  0.88514726776E+00  0.88000000000E+00 0. -1.
        -11    1    3    3    0    0  0.41288499045E-01  0.27027490096E-01 -0.46210538388E-01  0.67608434041E-01  0.51100000000E-03 0.  1.
         11    1    3    3    0    0  0.14314743930E-01  0.30493942437E-01 -0.30540509048E-01  0.45472807622E-01  0.51100000000E-03 0. -1.
</event>
<event>
 8    1  0.9956970E+004  0.1043930E+01  0.7957747E-01            NaN
         13   -1    0    0    0    0  0.00000000000E+00  0.00000000000E+00  0.74505805969E-08  0.10566000000E+00  0.10566000000E+00 0. -1.
     999900   -1    0    0    0    0 -0.00000000000E+00 -0.00000000000E+00 -0.74505805969E-08  0.93827000000E+00  0.93827000000E+00 0. -1.
     999902    2    1    2    0    0  0.57445554511E-02 -0.21456448855E-01 -0.63224520416E-02  0.10208355739E+01  0.10205743072E+01 0.  0.
     999903    2    3    3    0    0 -0.71709919627E-01 -0.51753140423E-01  0.94693404402E-01  0.13116075218E+00  0.20386317953E-01 0.  0.
         14    1    1    2    0    0 -0.57445554511E-02  0.21456448855E-01  0.63224520416E-02  0.23094426051E-01  0.00000000000E+00 0. -1.
     999901    1    3    3    0    0  0.77454475078E-01  0.30296691569E-01 -0.10101585644E+00  0.88967482177E+00  0.88000000000E+00 0. -1.
        -11    1    4    4    0    0 -0.98476462811E-02 -0.80303527006E-02  0.25798329626E-01  0.28762434429E-01  0.51100000000E-03 0.  1.
         11    1    4    4    0    0 -0.61862273346E-01 -0.43722787723E-01  0.68895074776E-01  0.10239831776E+00  0.51100000000E-03 0. -1.
</event>
<event>
 8    1  0.9956970E+004  0.1043930E+01  0.7957747E-01            NaN
         13   -1    0    0    0    0  0.00000000000E+00  0.00000000000E+00  0.74505805969E-08  0.10566000000E+00  0.10566000000E+00 0. -1.
     999900   -1    0    0    0    0 -0.00000000000E+00 -0.00000000000E+00 -0.74505805969E-08  0.93827000000E+00  0.93827000000E+00 0. -1.
     999902    2    1    2    0    0 -0.17107130878E-01 -0.48513824597E-02  0.15888264870E-01  0.10200841031E+01  0.10198053494E+01 0.  0.
     999903    2    3    3    0    0 -0.91393628022E-01 -0.58609106486E-01 -0.70767041586E-01  0.13108606109E+00  0.19691587832E-01 0.  0.
         14    1    1    2    0    0  0.17107130878E-01  0.48513824597E-02 -0.15888264870E-01  0.23845896905E-01  0.00000000000E+00 0.  1.
     999901    1    3    3    0    0  0.74286497144E-01  0.53757724026E-01  0.86655306455E-01  0.88899804200E+00  0.88000000000E+00 0.  1.
        -11    1    4    4    0    0 -0.16127220410E-01 -0.19447412410E-01 -0.19854854571E-01  0.32136668443E-01  0.51100000000E-03 0. -1.
         11    1    4    4    0    0 -0.75266407611E-01 -0.39161694077E-01 -0.50912187015E-01  0.98949392648E-01  0.51100000000E-03 0.  1.
</event>
<event>
 8    1  0.9956970E+004  0.1043930E+01  0.7957747E-01            NaN
         13   -1    0    0    0    0  0.00000000000E+00  0.00000000000E+00  0.74505805969E-08  0.10566000000E+00  0.10566000000E+00 0.  1.
     999900   -1    0    0    0    0 -0.00000000000E+00 -0.00000000000E+00 -0.74505805969E-08  0.93827000000E+00  0.93827000000E+00 0. -1.
     999902    2    1    2    0    0 -0.45719415299E-02  0.15349828377E-01 -0.16565929122E-01  0.10208876501E+01  0.10206275737E+01 0.  0.
     999903    2    3    3    0    0  0.50883300413E-01  0.12066028636E+00  0.91669108468E-02  0.13250273609E+00  0.18025755181E-01 0.  0.
         14    1    1    2    0    0  0.45719415299E-02 -0.15349828377E-01  0.16565929122E-01  0.23042349885E-01  0.00000000000E+00 0.  1.
     999901    1    3    3    0    0 -0.55455241943E-01 -0.10531045799E+00 -0.25732839969E-01  0.88838491403E+00  0.88000000000E+00 0.  1.
        -11    1    4    4    0    0  0.21385959770E-01  0.73503796856E-01  0.46221024725E-02  0.76692844385E-01  0.51100000000E-03 0. -1.
         11    1    4    4    0    0  0.29497340643E-01  0.47156489507E-01  0.45448083744E-02  0.55809891702E-01  0.51100000000E-03 0.  1.
</event>
<event>
 8    1  0.9956970E+004  0.1043930E+01  0.7957747E-01            NaN
         13   -1    0    0    0    0  0.00000000000E+00  0.00000000000E+00  0.74505805969E-08  0.10566000000E+00  0.10566000000E+00 0.  1.
     999900   -1    0    0    0    0 -0.00000000000E+00 -0.00000000000E+00 -0.74505805969E-08  0.93827000000E+00  0.93827000000E+00 0. -1.
     999902    2    1    2    0    0  0.15268482788E-01 -0.16457539548E-01 -0.73672277316E-02  0.10203026172E+01  0.10200290081E+01 0.  0.
     999903    2    3    3    0    0 -0.60748279794E-03 -0.17113054678E-01  0.12728238581E+00  0.12991899513E+00  0.19619222270E-01 0.  0.
         14    1    1    2    0    0 -0.15268482788E-01  0.16457539548E-01  0.73672277316E-02  0.23627382823E-01  0.00000000000E+00 0. -1.
     999901    1    3    3    0    0  0.15875965586E-01  0.65551512975E-03 -0.13464961354E+00  0.89038362205E+00  0.88000000000E+00 0. -1.
        -11    1    4    4    0    0  0.80748179654E-02 -0.13999337274E-01  0.93900398309E-01  0.95282370106E-01  0.51100000000E-03 0.  1.
         11    1    4    4    0    0 -0.86823007634E-02 -0.31137174038E-02  0.33381987500E-01  0.34636625024E-01  0.51100000000E-03 0. -1.
</event>
<event>
 8    1  0.9956970E+004  0.1043930E+01  0.7957747E-01            NaN
         13   -1    0    0    0    0  0.00000000000E+00  0.00000000000E+00  0.74505805969E-08  0.10566000000E+00  0.10566000000E+00 0. -1.
     999900   -1    0    0    0    0 -0.00000000000E+00 -0.00000000000E+00 -0.74505805969E-08  0.93827000000E+00  0.93827000000E+00 0.  1.
     999902    2    1    2    0    0  0.60101015478E-02  0.41135694892E-02 -0.21888361374E-01  0.10208617721E+01  0.10206011046E+01 0.  0.
     999903    2    3    3    0    0  0.12245850614E+00 -0.39803422692E-01 -0.22880363729E-01  0.13210425894E+00  0.18644731192E-01 0.  0.
         14    1    1    2    0    0 -0.60101015478E-02 -0.41135694892E-02  0.21888361374E-01  0.23068227894E-01  0.00000000000E+00 0. -1.
     999901    1    3    3    0    0 -0.11644840460E+00  0.43916992181E-01  0.99200235512E-03  0.88875751316E+00  0.88000000000E+00 0. -1.
        -11    1    4    4    0    0  0.74836519787E-01 -0.25191831300E-01 -0.48050323138E-02  0.79110571447E-01  0.51100000000E-03 0. -1.
         11    1    4    4    0    0  0.47621986358E-01 -0.14611591392E-01 -0.18075331415E-01  0.52993687496E-01  0.51100000000E-03 0.  1.
</event>
<event>
 8    1  0.9956970E+004  0.1043930E+01  0.7957747E-01            NaN
         13   -1    0    0    0    0  0.00000000000E+00  0.00000000000E+00  0.74505805969E-08  0.10566000000E+00  0.10566000000E+00 0.  1.
     999900   -1    0    0    0    0 -0.00000000000E+00 -0.00000000000E+00 -0.74505805969E-08  0.93827000000E+00  0.93827000000E+00 0. -1.
     999902    2    1    2    0    0 -0.28268930934E-02  0.30044690709E-02 -0.23112274737E-01  0.10204524490E+01  0.10201823392E+01 0.  0.
     999903    2    3    3    0    0 -0.10371100185E+00 -0.65275845067E-01  0.38889156342E-01  0.12989982157E+00  0.18565810223E-01 0.  0.
         14    1    1    2    0    0  0.28268930934E-02 -0.30044690709E-02  0.23112274737E-01  0.23477551033E-01  0.00000000000E+00 0.  1.
     999901    1    3    3    0    0  0.10088410876E+00  0.68280314138E-01 -0.62001431079E-01  0.89055262739E+00  0.88000000000E+00 0.  1.
        -11    1    4    4    0    0 -0.27705992110E-01 -0.27534199072E-01  0.13238886021E-01  0.41246616121E-01  0.51100000000E-03 0.  1.
         11    1    4    4    0    0 -0.76005009745E-01 -0.37741645995E-01  0.25650270320E-01  0.88653205454E-01  0.51100000000E-03 0. -1.
</event>
<event>
 8    1  0.9956970E+004  0.1043930E+01  0.7957747E-01            NaN
         13   -1    0    0    0    0  0.00000000000E+00  0.00000000000E+00  0.74505805969E-08  0.10566000000E+00  0.10566000000E+00 0. -1.
     999900   -1    0    0    0    0 -0.00000000000E+00 -0.00000000000E+00 -0.74505805969E-08  0.93827000000E+00  0.93827000000E+00 0. -1.
     999902    2    1    2    0    0 -0.74724471249E-02 -0.12540396439E-01 -0.19761354474E-01  0.10193615214E+01  0.10190654058E+01 0.  0.
     999903    2    3    3    0    0  0.77814450025E-01 -0.37876014037E-01 -0.96890022574E-01  0.13151886656E+00  0.20490356658E-01 0.  0.
         14    1    1    2    0    0  0.74724471249E-02  0.12540396439E-01  0.19761354474E-01  0.24568478576E-01  0.00000000000E+00 0. -1.
     999901    1    3    3    0    0 -0.85286897150E-01  0.25335617598E-01  0.77128668100E-01  0.88784265486E+00  0.88000000000E+00 0.  1.
        -11    1    4    4    0    0  0.37404519573E-01 -0.73306968213E-02 -0.37748530542E-01  0.53647459207E-01  0.51100000000E-03 0. -1.
         11    1    4    4    0    0  0.40409930453E-01 -0.30545317215E-01 -0.59141492032E-01  0.77871407357E-01  0.51100000000E-03 0.  1.
</event>
<event>
 8    1  0.9956970E+004  0.1043930E+01  0.7957747E-01            NaN
         13   -1    0    0    0    0  0.00000000000E+00  0.00000000000E+00  0.74505805969E-08  0.10566000000E+00  0.10566000000E+00 0. -1.
     999900   -1    0    0    0    0 -0.00000000000E+00 -0.00000000000E+00 -0.74505805969E-08  0.93827000000E+00  0.93827000000E+00 0. -1.
     999902    2    1    2    0    0  0.34698407094E-03 -0.48783036724E-02  0.23660994464E-01  0.10197688555E+01  0.10194825932E+01 0.  0.
     999903    2    3    3    0    0  0.33521886970E-01 -0.18344727598E-01  0.12629929886E+00  0.13308033054E+00  0.17280496173E-01 0.  0.
         14    1    1    2    0    0 -0.34698407094E-03  0.48783036724E-02 -0.23660994464E-01  0.24161144503E-01  0.00000000000E+00 0.  1.
     999901    1    3    3    0    0 -0.33174902900E-01  0.13466423925E-01 -0.10263830440E+00  0.88668852495E+00  0.88000000000E+00 0. -1.
        -11    1    4    4    0    0  0.12930175082E-01 -0.83231579752E-02  0.79507288345E-01  0.80982309224E-01  0.51100000000E-03 0. -1.
         11    1    4    4    0    0  0.20591711889E-01 -0.10021569622E-01  0.46792010516E-01  0.52098021319E-01  0.51100000000E-03 0.  1.
</event>
<event>
 8    1  0.9956970E+004  0.1043930E+01  0.7957747E-01            NaN
         13   -1    0    0    0    0  0.00000000000E+00  0.00000000000E+00  0.74505805969E-08  0.10566000000E+00  0.10566000000E+00 0.  1.
     999900   -1    0    0    0    0 -0.00000000000E+00 -0.00000000000E+00 -0.74505805969E-08  0.93827000000E+00  0.93827000000E+00 0.  1.
     999902    2    1    2    0    0  0.43242608888E-02 -0.14932931857E-01 -0.17147958420E-01  0.10207838521E+01  0.10205214003E+01 0.  0.
     999903    2    3    3    0    0 -0.29890993360E-01  0.96834752708E-01  0.75877015184E-01  0.12819416770E+00  0.20149004483E-01 0.  0.
         14    1    1    2    0    0 -0.43242608888E-02  0.14932931857E-01  0.17147958420E-01  0.23146147931E-01  0.00000000000E+00 0.  1.
     999901    1    3    3    0    0  0.34215254249E-01 -0.11176768457E+00 -0.93024973604E-01  0.89258968437E+00  0.88000000000E+00 0.  1.
        -11    1    4    4    0    0 -0.15239470920E-01  0.69496049856E-01  0.43696231708E-01  0.83495893348E-01  0.51100000000E-03 0. -1.
         11    1    4    4    0    0 -0.14651522440E-01  0.27338702852E-01  0.32180783476E-01  0.44698274347E-01  0.51100000000E-03 0.  1.
</event>
<event>
 8    1  0.9956970E+004  0.1043930E+01  0.7957747E-01            NaN
         13   -1    0    0    0    0  0.00000000000E+00  0.00000000000E+00  0.74505805969E-08  0.10566000000E+00  0.10566000000E+00 0. -1.
     999900   -1    0    0    0    0 -0.00000000000E+00 -0.00000000000E+00 -0.74505805969E-08  0.93827000000E+00  0.93827000000E+00 0. -1.
     999902    2    1    2    0    0 -0.92384331863E-02 -0.81658064133E-02 -0.20188821298E-01  0.10202737630E+01  0.10199994774E+01 0.  0.
     999903    2    3    3    0    0 -0.82162266220E-01  0.20841370926E-01 -0.10063751538E+00  0.13312592071E+00  0.20238590106E-01 0.  0.
         14    1    1    2    0    0  0.92384331863E-02  0.81658064133E-02  0.20188821298E-01  0.23656236969E-01  0.00000000000E+00 0. -1.
     999901    1    3    3    0    0  0.72923833033E-01 -0.29007177339E-01  0.80448694083E-01  0.88714784232E+00  0.88000000000E+00 0. -1.
        -11    1    4    4    0    0 -0.17745362782E-01  0.13434067470E-01 -0.23967557956E-01  0.32712031798E-01  0.51100000000E-03 0. -1.
         11    1    4    4    0    0 -0.64416903438E-01  0.74073034561E-02 -0.76669957425E-01  0.10041388891E+00  0.51100000000E-03 0.  1.
</event>
<event>
 8    1  0.9956970E+004  0.1043930E+01  0.7957747E-01            NaN
         13   -1    0    0    0    0  0.00000000000E+00  0.00000000000E+00  0.74505805969E-08  0.10566000000E+00  0.10566000000E+00 0. -1.
     999900   -1    0    0    0    0 -0.00000000000E+00 -0.00000000000E+00 -0.74505805969E-08  0.93827000000E+00  0.93827000000E+00 0.  1.
     999902    2    1    2    0    0  0.10267038068E-01 -0.43819070587E-02 -0.19607402436E-01  0.10213675664E+01  0.10211183292E+01 0.  0.
     999903    2    3    3    0    0 -0.23548906685E-01  0.69873548437E-01 -0.10895147683E+00  0.13308846925E+00  0.20130885859E-01 0.  0.
         14    1    1    2    0    0 -0.10267038068E-01  0.43819070587E-02  0.19607402436E-01  0.22562433611E-01  0.00000000000E+00 0. -1.
     999901    1    3    3    0    0  0.33815944754E-01 -0.74255455496E-01  0.89344074395E-01  0.88827909714E+00  0.88000000000E+00 0. -1.
        -11    1    4    4    0    0 -0.12249826242E-01  0.57070690934E-01 -0.74599670518E-01  0.94723249359E-01  0.51100000000E-03 0. -1.
         11    1    4    4    0    0 -0.11299080443E-01  0.12802857504E-01 -0.34351806313E-01  0.38365219888E-01  0.51100000000E-03 0.  1.
</event>
<event>
 8    1  0.9956970E+004  0.1043930E+01  0.7957747E-01            NaN
         13   -1    0    0    0    0  0.00000000000E+00  0.00000000000E+00  0.74505805969E-08  0.10566000000E+00  0.10566000000E+00 0.  1.
     999900   -1    0    0    0    0 -0.00000000000E+00 -0.00000000000E+00 -0.74505805969E-08  0.93827000000E+00  0.93827000000E+00 0. -1.
     999902    2    1    2    0    0 -0.18380786646E-01 -0.11477836348E-02  0.13894138702E-01  0.10208601535E+01  0.10205994490E+01 0.  0.
     999903    2    3    3    0    0 -0.14334008354E-01  0.11309310310E+00 -0.60356030720E-01  0.13036565931E+00  0.18890233374E-01 0.  0.
         14    1    1    2    0    0  0.18380786646E-01  0.11477836348E-02 -0.13894138702E-01  0.23069846451E-01  0.00000000000E+00 0. -1.
     999901    1    3    3    0    0 -0.40467782923E-02 -0.11424088674E+00  0.74250169422E-01  0.89049449424E+00  0.88000000000E+00 0.  1.
        -11    1    4    4    0    0  0.10233428340E-02  0.60920141590E-01 -0.36012425517E-01  0.70777586809E-01  0.51100000000E-03 0.  1.
         11    1    4    4    0    0 -0.15357351188E-01  0.52172961514E-01 -0.24343605203E-01  0.59588072497E-01  0.51100000000E-03 0. -1.
</event>
<event>
 8    1  0.9956970E+004  0.1043930E+01  0.7957747E-01            NaN
         13   -1    0    0    0    0  0.00000000000E+00  0.00000000000E+00  0.74505805969E-08  0.10566000000E+00  0.10566000000E+00 0.  1.
     999900   -1    0    0    0    0 -0.00000000000E+00 -0.00000000000E+00 -0.74505805969E-08  0.93827000000E+00  0.93827000000E+00 0.  1.
     999902    2    1    2    0    0 -0.44427234331E-02  0.90609891651E-02  0.22730056491E-01  0.10190604446E+01  0.10187569362E+01 0.  0.
     999903    2    3    3    0    0  0.30415650782E-01 -0.87236977969E-01  0.89928189165E-01  0.13057634586E+00  0.20680927331E-01 0.  0.
         14    1    1    2    0    0  0.44427234331E-02 -0.90609891651E-02 -0.22730056491E-01  0.24869555368E-01  0.00000000000E+00 0. -1.
     999901    1    3    3    0    0 -0.34858374215E-01  0.96297967134E-01 -0.67198132674E-01  0.88848409877E+00  0.88000000000E+00 0.  1.
        -11    1    4    4    0    0  0.20259739739E-01 -0.63916726236E-01  0.76784527724E-01  0.10194081501E+00  0.51100000000E-03 0.  1.
         11    1    4    4    0    0  0.10155911042E-01 -0.23320251733E-01  0.13143661441E-01  0.28635530850E-01  0.51100000000E-03 0. -1.
</event>
<event>
 8    1  0.9956970E+004  0.1043930E+01  0.7957747E-01            NaN
         13   -1    0    0    0    0  0.00000000000E+00  0.00000000000E+00  0.74505805969E-08  0.10566000000E+00  0.10566000000E+00 0.  1.
     999900   -1    0    0    0    0 -0.00000000000E+00 -0.00000000000E+00 -0.74505805969E-08  0.93827000000E+00  0.93827000000E+00 0. -1.
     999902    2    1    2    0    0 -0.15782872696E-01  0.44021378865E-02 -0.13836569672E-01  0.10224840552E+01  0.10222591230E+01 0.  0.
     999903    2    3    3    0    0 -0.12608838756E+00  0.11146651525E-01  0.38446470238E-01  0.13403241816E+00  0.21541326036E-01 0.  0.
         14    1    1    2    0    0  0.15782872696E-01 -0.44021378865E-02  0.13836569672E-01  0.21445944811E-01  0.00000000000E+00 0.  1.
     999901    1    3    3    0    0  0.11030551486E+00 -0.67445136383E-02 -0.52283039911E-01  0.88845163703E+00  0.88000000000E+00 0.  1.
        -11    1    4    4    0    0 -0.44490821308E-01  0.11344064417E-01  0.21456730598E-01  0.50683068051E-01  0.51100000000E-03 0. -1.
         11    1    4    4    0    0 -0.81597566251E-01 -0.19741289245E-03  0.16989739640E-01  0.83349350111E-01  0.51100000000E-03 0.  1.
</event>
<event>
 8    1  0.9956970E+004  0.1043930E+01  0.7957747E-01            NaN
         13   -1    0    0    0    0  0.00000000000E+00  0.00000000000E+00  0.74505805969E-08  0.10566000000E+00  0.10566000000E+00 0.  1.
     999900   -1    0    0    0    0 -0.00000000000E+00 -0.00000000000E+00 -0.74505805969E-08  0.93827000000E+00  0.93827000000E+00 0. -1.
     999902    2    1    2    0    0 -0.10910036021E-01 -0.18297510637E-01 -0.88933211258E-02  0.10208449628E+01  0.10205839109E+01 0.  0.
     999903    2    3    3    0    0  0.28823896428E-02 -0.13142880027E+00 -0.11119011660E-01  0.13349279292E+00  0.20368005105E-01 0.  0.
         14    1    1    2    0    0  0.10910036021E-01  0.18297510637E-01  0.88933211258E-02  0.23085037192E-01  0.00000000000E+00 0. -1.
     999901    1    3    3    0    0 -0.13792425664E-01  0.11313128963E+00  0.22256905339E-02  0.88735216988E+00  0.88000000000E+00 0. -1.
        -11    1    4    4    0    0  0.50711125766E-02 -0.31697976835E-01 -0.10354943040E-01  0.33733720289E-01  0.51100000000E-03 0. -1.
         11    1    4    4    0    0 -0.21887229338E-02 -0.99730823435E-01 -0.76406861926E-03  0.99759072635E-01  0.51100000000E-03 0.  1.
</event>
<event>
 8    1  0.9956970E+004  0.1043930E+01  0.7957747E-01            NaN
         13   -1    0    0    0    0  0.00000000000E+00  0.00000000000E+00  0.74505805969E-08  0.10566000000E+00  0.10566000000E+00 0. -1.
     999900   -1    0    0    0    0 -0.00000000000E+00 -0.00000000000E+00 -0.74505805969E-08  0.93827000000E+00  0.93827000000E+00 0. -1.
     999902    2    1    2    0    0 -0.10345532023E-01 -0.16260680468E-01 -0.14434184269E-01  0.10198512659E+01  0.10195669762E+01 0.  0.
     999903    2    3    3    0    0 -0.40240768603E-02  0.98613440954E-01 -0.81929814835E-01  0.12979975909E+00  0.19866528860E-01 0.  0.
         14    1    1    2    0    0  0.10345532023E-01  0.16260680468E-01  0.14434184269E-01  0.24078734136E-01  0.00000000000E+00 0. -1.
     999901    1    3    3    0    0 -0.63214551626E-02 -0.11487412142E+00  0.67495630567E-01  0.89005150678E+00  0.88000000000E+00 0.  1.
        -11    1    4    4    0    0  0.57790195887E-02  0.22858281725E-01 -0.26149670408E-01  0.35213129572E-01  0.51100000000E-03 0.  1.
         11    1    4    4    0    0 -0.98030964490E-02  0.75755159229E-01 -0.55780144427E-01  0.94586629516E-01  0.51100000000E-03 0. -1.
</event>
<event>
 8    1  0.9956970E+004  0.1043930E+01  0.7957747E-01            NaN
         13   -1    0    0    0    0  0.00000000000E+00  0.00000000000E+00  0.74505805969E-08  0.10566000000E+00  0.10566000000E+00 0. -1.
     999900   -1    0    0    0    0 -0.00000000000E+00 -0.00000000000E+00 -0.74505805969E-08  0.93827000000E+00  0.93827000000E+00 0.  1.
     999902    2    1    2    0    0 -0.17978225255E-03 -0.12531745769E-01  0.20999131043E-01  0.10194751339E+01  0.10191817836E+01 0.  0.
     999903    2    3    3    0    0  0.12015280037E+00  0.53464859290E-02 -0.41715736719E-01  0.12889514517E+00  0.20210774607E-01 0.  0.
         14    1    1    2    0    0  0.17978225255E-03  0.12531745769E-01 -0.20999131043E-01  0.24454866146E-01  0.00000000000E+00 0.  1.
     999901    1    3    3    0    0 -0.12033258262E+00 -0.17878231698E-01  0.62714867763E-01  0.89057998869E+00  0.88000000000E+00 0. -1.
        -11    1    4    4    0    0  0.66229913567E-01 -0.42615240106E-02 -0.15424808072E-01  0.68137712487E-01  0.51100000000E-03 0. -1.
         11    1    4    4    0    0  0.53922886800E-01  0.96080099395E-02 -0.26290928648E-01  0.60757432681E-01  0.51100000000E-03 0.  1.
</event>
<event>
 8    1  0.9956970E+004  0.1043930E+01  0.7957747E-01            NaN
         13   -1    0    0    0    0  0.00000000000E+00  0.00000000000E+00  0.74505805969E-08  0.10566000000E+00  0.10566000000E+00 0. -1.
     999900   -1    0    0    0    0 -0.00000000000E+00 -0.00000000000E+00 -0.74505805969E-08  0.93827000000E+00  0.93827000000E+00 0. -1.
     999902    2    1    2    0    0 -0.43289179361E-02 -0.22694107023E-01  0.56933511716E-02  0.10201355412E+01  0.10198580029E+01 0.  0.
     999903    2    3    3    0    0  0.82021795524E-02  0.44733657320E-01 -0.11874948468E+00  0.12873801412E+00  0.20091299672E-01 0.  0.
         14    1    1    2    0    0  0.43289179361E-02  0.22694107023E-01 -0.56933511716E-02  0.23794458843E-01  0.00000000000E+00 0.  1.
     999901    1    3    3    0    0 -0.12531097489E-01 -0.67427764343E-01  0.12444283585E+00  0.89139752703E+00  0.88000000000E+00 0.  1.
        -11    1    4    4    0    0 -0.65016029714E-02  0.15115427897E-01 -0.44859116198E-01  0.47784395244E-01  0.51100000000E-03 0.  1.
         11    1    4    4    0    0  0.14703782524E-01  0.29618229423E-01 -0.73890368479E-01  0.80953618879E-01  0.51100000000E-03 0. -1.
</event>
<event>
 8    1  0.9956970E+004  0.1043930E+01  0.7957747E-01            NaN
         13   -1    0    0    0    0  0.00000000000E+00  0.00000000000E+00  0.74505805969E-08  0.10566000000E+00  0.10566000000E+00 0. -1.
     999900   -1    0    0    0    0 -0.00000000000E+00 -0.00000000000E+00 -0.74505805969E-08  0.93827000000E+00  0.93827000000E+00 0. -1.
     999902    2    1    2    0    0 -0.58191313317E-02 -0.34694249329E-03 -0.23272426825E-01  0.10199385743E+01  0.10196563670E+01 0.  0.
     999903    2    3    3    0    0  0.45666060499E-02  0.12355726582E+00  0.32571667623E-01  0.12944507105E+00  0.20195570337E-01 0.  0.
         14    1    1    2    0    0  0.58191313317E-02  0.34694249329E-03  0.23272426825E-01  0.23991425736E-01  0.00000000000E+00 0. -1.
     999901    1    3    3    0    0 -0.10385737382E-01 -0.12390420831E+00 -0.55844094448E-01  0.89049350321E+00  0.88000000000E+00 0. -1.
        -11    1    4    4    0    0  0.91095011659E-02  0.24940748807E-01  0.67534038477E-02  0.27402436882E-01  0.51100000000E-03 0. -1.
         11    1    4    4    0    0 -0.45428951160E-02  0.98616517009E-01  0.25818263776E-01  0.10204263417E+00  0.51100000000E-03 0.  1.
</event>
<event>
 8    1  0.9956970E+004  0.1043930E+01  0.7957747E-01            NaN
         13   -1    0    0    0    0  0.00000000000E+00  0.00000000000E+00  0.74505805969E-08  0.10566000000E+00  0.10566000000E+00 0.  1.
     999900   -1    0    0    0    0 -0.00000000000E+00 -0.00000000000E+00 -0.74505805969E-08  0.93827000000E+00  0.93827000000E+00 0.  1.
     999902    2    1    2    0    0 -0.16842730867E-01  0.14506115384E-01 -0.78927187387E-02  0.10203418679E+01  0.10200691778E+01 0.  0.
     999903    2    3    3    0    0 -0.11567192092E+00 -0.12559342429E-01  0.59090720998E-01  0.13186759759E+00  0.18963639298E-01 0.  0.
         14    1    1    2    0    0  0.16842730867E-01 -0.14506115384E-01  0.78927187387E-02  0.23588132094E-01  0.00000000000E+00 0.  1.
     999901    1    3    3    0    0  0.98829190050E-01  0.27065457813E-01 -0.66983439737E-01  0.88847427031E+00  0.88000000000E+00 0.  1.
        -11    1    4    4    0    0 -0.39704937242E-01 -0.60245641128E-02  0.30513026507E-01  0.50438906825E-01  0.51100000000E-03 0. -1.
         11    1    4    4    0    0 -0.75966983675E-01 -0.65347783157E-02  0.28577694491E-01  0.81428690765E-01  0.51100000000E-03 0.  1.
</event>
<event>
 8    1  0.9956970E+004  0.1043930E+01  0.7957747E-01            NaN
         13   -1    0    0    0    0  0.00000000000E+00  0.00000000000E+00  0.74505805969E-08  0.10566000000E+00  0.10566000000E+00 0. -1.
     999900   -1    0    0    0    0 -0.00000000000E+00 -0.00000000000E+00 -0.74505805969E-08  0.93827000000E+00  0.93827000000E+00 0. -1.
     999902    2    1    2    0    0 -0.29237625708E-02  0.13264420646E-01 -0.19486366129E-01  0.10201768590E+01  0.10199002951E+01 0.  0.
     999903    2    3    3    0    0 -0.52625596363E-01 -0.11264453239E+00 -0.32645678900E-01  0.12972949713E+00  0.17485937360E-01 0.  0.
         14    1    1    2    0    0  0.29237625708E-02 -0.13264420646E-01  0.19486366129E-01  0.23753141004E-01  0.00000000000E+00 0. -1.
     999901    1    3    3    0    0  0.49701833792E-01  0.12590895304E+00  0.13159312771E-01  0.89044736186E+00  0.88000000000E+00 0.  1.
        -11    1    4    4    0    0 -0.11195097575E-01 -0.24413195312E-01 -0.14679759294E-01  0.30611938341E-01  0.51100000000E-03 0.  1.
         11    1    4    4    0    0 -0.41430498787E-01 -0.88231337079E-01 -0.17965919605E-01  0.99117558792E-01  0.51100000000E-03 0. -1.
</event>
<event>
 8    1  0.9956970E+004  0.1043930E+01  0.7957747E-01            NaN
         13   -1    0    0    0    0  0.00000000000E+00  0.00000000000E+00  0.74505805969E-08  0.10566000000E+00  0.10566000000E+00 0.  1.
     999900   -1    0    0    0    0 -0.00000000000E+00 -0.00000000000E+00 -0.74505805969E-08  0.93827000000E+00  0.93827000000E+00 0. -1.
     999902    2    1    2    0    0  0.12045516718E-01  0.18125963732E-01 -0.10001994106E-01  0.10199782794E+01  0.10196970165E+01 0.  0.
     999903    2    3    3    0    0  0.22155911721E-01  0.68184166613E-03  0.12572795719E+00  0.12934415857E+00  0.20761570362E-01 0.  0.
         14    1    1    2    0    0 -0.12045516718E-01 -0.18125963732E-01  0.10001994106E-01  0.23951720612E-01  0.00000000000E+00 0.  1.
     999901    1    3    3    0    0 -0.10110395003E-01  0.17444122066E-01 -0.13572995130E+00  0.89063412082E+00  0.88000000000E+00 0. -1.
        -11    1    4    4    0    0  0.77755756107E-02  0.10368628654E-01  0.49992740343E-01  0.51647877442E-01  0.51100000000E-03 0.  1.
         11    1    4    4    0    0  0.14380336110E-01 -0.96867869875E-02  0.75735216852E-01  0.77696281129E-01  0.51100000000E-03 0. -1.
</event>
<event>
 8    1  0.9956970E+004  0.1043930E+01  0.7957747E-01            NaN
         13   -1    0    0    0    0  0.00000000000E+00  0.00000000000E+00  0.74505805969E-08  0.10566000000E+00  0.10566000000E+00 0. -1.
     999900   -1    0    0    0    0 -0.00000000000E+00 -0.00000000000E+00 -0.74505805969E-08  0.93827000000E+00  0.93827000000E+00 0.  1.
     999902    2    1    2    0    0  0.46924528508E-02  0.20564251270E-02 -0.22001570340E-01  0.10213398009E+01  0.10210899431E+01 0.  0.
     999903    2    3    3    0    0  0.10299174581E+00 -0.27577523897E-01 -0.78147955146E-01  0.13359358803E+00  0.19295707849E-01 0.  0.
         14    1    1    2    0    0 -0.46924528508E-02 -0.20564251270E-02  0.22001570340E-01  0.22590199102E-01  0.00000000000E+00 0. -1.
     999901    1    3    3    0    0 -0.98299292955E-01  0.29633949024E-01  0.56146384806E-01  0.88774621287E+00  0.88000000000E+00 0. -1.
        -11    1    4    4    0    0  0.59418555938E-01 -0.16934213569E-01 -0.56751656741E-01  0.83894839191E-01  0.51100000000E-03 0.  1.
         11    1    4    4    0    0  0.43573189867E-01 -0.10643310328E-01 -0.21396298405E-01  0.49698748841E-01  0.51100000000E-03 0. -1.
</event>
<event>
 8    1  0.9956970E+004  0.1043930E+01  0.7957747E-01            NaN
         13   -1    0    0    0    0  0.00000000000E+00  0.00000000000E+00  0.74505805969E-08  0.10566000000E+00  0.10566000000E+00 0. -1.
     999900   -1    0    0    0    0 -0.00000000000E+00 -0.00000000000E+00 -0.74505805969E-08  0.93827000000E+00  0.93827000000E+00 0.  1.
     999902    2    1    2    0    0 -0.16637214596E-01 -0.63836359126E-02 -0.15582067787E-01  0.10202583175E+01  0.10199836694E+01 0.  0.
     999903    2    3    3    0    0 -0.24266751324E-02 -0.10990132434E-01  0.12615133416E+00  0.12879238068E+00  0.23380471508E-01 0.  0.
         14    1    1    2    0    0  0.16637214596E-01  0.63836359126E-02  0.15582067787E-01  0.23671682523E-01  0.00000000000E+00 0. -1.
     999901    1    3    3    0    0 -0.14210539464E-01  0.46064965217E-02 -0.14173340195E+00  0.89146593680E+00  0.88000000000E+00 0.  1.
        -11    1    4    4    0    0 -0.70268201161E-02  0.54249396242E-02  0.42626685599E-01  0.43544248954E-01  0.51100000000E-03 0.  1.
         11    1    4    4    0    0  0.46001449837E-02 -0.16415072058E-01  0.83524648560E-01  0.85248131725E-01  0.51100000000E-03 0. -1.
</event>
<event>
 8    1  0.9956970E+004  0.1043930E+01  0.7957747E-01            NaN
         13   -1    0    0    0    0  0.00000000000E+00  0.00000000000E+00  0.74505805969E-08  0.10566000000E+00  0.10566000000E+00 0. -1.
     999900   -1    0    0    0    0 -0.00000000000E+00 -0.00000000000E+00 -0.74505805969E-08  0.93827000000E+00  0.93827000000E+00 0.  1.
     999902    2    1    2    0    0  0.19048510449E-01  0.11722857449E-01  0.78905224503E-02  0.10202122539E+01  0.10199365232E+01 0.  0.
     999903    2    3    3    0    0 -0.62584579498E-01  0.76253694988E-01 -0.81346729961E-01  0.12959927530E+00  0.21147720765E-01 0.  0.
         14    1    1    2    0    0 -0.19048510449E-01 -0.11722857449E-01 -0.78905224503E-02  0.23717746133E-01  0.00000000000E+00 0. -1.
     999901    1    3    3    0    0  0.81633089947E-01 -0.64530837540E-01  0.89237252411E-01  0.89061297856E+00  0.88000000000E+00 0. -1.
        -11    1    4    4    0    0 -0.35581355345E-01  0.53324966225E-01 -0.62221315507E-01  0.89338334972E-01  0.51100000000E-03 0.  1.
         11    1    4    4    0    0 -0.27003224153E-01  0.22928728763E-01 -0.19125414453E-01  0.40260940331E-01  0.51100000000E-03 0. -1.
</event>
<event>
 8    1  0.9956970E+004  0.1043930E+01  0.7957747E-01            NaN
         13   -1    0    0    0    0  0.00000000000E+00  0.00000000000E+00  0.74505805969E-08  0.10566000000E+00  0.10566000000E+00 0.  1.
     999900   -1    0    0    0    0 -0.00000000000E+00 -0.00000000000E+00 -0.74505805969E-08  0.93827000000E+00  0.93827000000E+00 0. -1.
     999902    2    1    2    0    0  0.10442768807E-01 -0.16437126154E-01 -0.52495589690E-02  0.10237610038E+01  0.10235623110E+01 0.  0.
     999903    2    3    3    0    0  0.11823530208E+00  0.92590753440E-02 -0.60476351785E-01  0.13509372998E+00  0.22969754442E-01 0.  0.
         14    1    1    2    0    0 -0.10442768807E-01  0.16437126154E-01  0.52495589690E-02  0.20168996156E-01  0.00000000000E+00 0.  1.
     999901    1    3    3    0    0 -0.10779253327E+00 -0.25696201498E-01  0.55226792816E-01  0.88866727387E+00  0.88000000000E+00 0.  1.
        -11    1    4    4    0    0  0.77470434775E-01 -0.47603858093E-02 -0.41100405200E-01  0.87828434837E-01  0.51100000000E-03 0.  1.
         11    1    4    4    0    0  0.40764867305E-01  0.14019461153E-01 -0.19375946585E-01  0.47265295138E-01  0.51100000000E-03 0. -1.
</event>
<event>
 8    1  0.9956970E+004  0.1043930E+01  0.7957747E-01            NaN
         13   -1    0    0    0    0  0.00000000000E+00  0.00000000000E+00  0.74505805969E-08  0.10566000000E+00  0.10566000000E+00 0. -1.
     999900   -1    0    0    0    0 -0.00000000000E+00 -0.00000000000E+00 -0.74505805969E-08  0.93827000000E+00  0.93827000000E+00 0. -1.
     999902    2    1    2    0    0  0.37997970505E-02 -0.20320284531E-01  0.92516409337E-02  0.10212817047E+01  0.10210305456E+01 0.  0.
     999903    2    3    3    0    0  0.51338650303E-01  0.11552452971E+00 -0.16068199078E-01  0.12923078101E+00  0.21467038851E-01 0.  0.
         14    1    1    2    0    0 -0.37997970505E-02  0.20320284531E-01 -0.92516409337E-02  0.22648295323E-01  0.00000000000E+00 0. -1.
     999901    1    3    3    0    0 -0.47538853252E-01 -0.13584481425E+00  0.25319840012E-01  0.89205092367E+00  0.88000000000E+00 0. -1.
        -11    1    4    4    0    0  0.11681336326E-01  0.43736758826E-01  0.17344234634E-02  0.45305927170E-01  0.51100000000E-03 0. -1.
         11    1    4    4    0    0  0.39657313977E-01  0.71787770888E-01 -0.17802622542E-01  0.83924853835E-01  0.51100000000E-03 0.  1.
</event>
<event>
 8    1  0.9956970E+004  0.1043930E+01  0.7957747E-01            NaN
         13   -1    0    0    0    0  0.00000000000E+00  0.00000000000E+00  0.74505805969E-08  0.10566000000E+00  0.10566000000E+00 0. -1.
     999900   -1    0    0    0    0 -0.00000000000E+00 -0.00000000000E+00 -0.74505805969E-08  0.93827000000E+00  0.93827000000E+00 0.  1.
     999902    2    1    2    0    0 -0.44501206434E-02 -0.78839509469E-03  0.22397043301E-01  0.10210815276E+01  0.10208258585E+01 0.  0.
     999903    2    3    3    0    0  0.20372523538E-02  0.11389549307E+00  0.64731326800E-01  0.13260717698E+00  0.20449571653E-01 0.  0.
         14    1    1    2    0    0  0.44501206434E-02  0.78839509469E-03 -0.22397043301E-01  0.22848472360E-01  0.00000000000E+00 0.  1.
     999901    1    3    3    0    0 -0.64873729973E-02 -0.11468388816E+00 -0.42334283499E-01  0.88847435065E+00  0.88000000000E+00 0.  1.
        -11    1    4    4    0    0 -0.71411589325E-02  0.71490785680E-01  0.46237556802E-01  0.85440630663E-01  0.51100000000E-03 0.  1.
         11    1    4    4    0    0  0.91784112864E-02  0.42404707386E-01  0.18493769998E-01  0.47166546322E-01  0.51100000000E-03 0. -1.
</event>
<event>
 8    1  0.9956970E+004  0.1043930E+01  0.7957747E-01            NaN
         13   -1    0    0    0    0  0.00000000000E+00  0.00000000000E+00  0.74505805969E-08  0.10566000000E+00  0.10566000000E+00 0. -1.
     999900   -1    0    0    0    0 -0.00000000000E+00 -0.00000000000E+00 -0.74505805969E-08  0.93827000000E+00  0.93827000000E+00 0. -1.
     999902    2    1    2    0    0  0.11732347058E-01  0.19669834345E-01 -0.47473439369E-02  0.10205400957E+01  0.10202720222E+01 0.  0.
     999903    2    3    3    0    0  0.75793345673E-01 -0.98766205805E-01 -0.31246839462E-01  0.12990373304E+00  0.19980496106E-01 0.  0.
         14    1    1    2    0    0 -0.11732347058E-01 -0.19669834345E-01  0.47473439369E-02  0.23389904342E-01  0.00000000000E+00 0.  1.
     999901    1    3    3    0    0 -0.64060998615E-01  0.11843604015E+00  0.26499495525E-01  0.89063636262E+00  0.88000000000E+00 0.  1.
        -11    1    4    4    0    0  0.49516298964E-01 -0.78304918417E-01 -0.25601985554E-01  0.96121001330E-01  0.51100000000E-03 0.  1.
         11    1    4    4    0    0  0.26277046709E-01 -0.20461287388E-01 -0.56448539075E-02  0.33782731713E-01  0.51100000000E-03 0. -1.
</event>
<event>
 8    1  0.1396286E+005  0.1043930E+01  0.7957747E-01            NaN
         13   -1    0    0    0    0  0.00000000000E+00  0.00000000000E+00  0.74505805969E-08  0.10566000000E+00  0.10566000000E+00 0.  1.
     999900   -1    0    0    0    0 -0.00000000000E+00 -0.00000000000E+00 -0.74505805969E-08  0.93827000000E+00  0.93827000000E+00 0.  1.
     999902    2    1    2    0    0 -0.66190334604E-02  0.91556923791E-02  0.20270132899E-01  0.10207240397E+01  0.10204602141E+01 0.  0.
     999903    2    3    3    0    0 -0.60583127817E-02 -0.11410105744E-01 -0.12620961761E+00  0.12837904822E+00  0.19632085450E-01 0.  0.
         14    1    1    2    0    0  0.66190334604E-02 -0.91556923791E-02 -0.20270132899E-01  0.23205960325E-01  0.00000000000E+00 0. -1.
     999901    1    3    3    0    0 -0.56072067863E-03  0.20565798123E-01  0.14647975051E+00  0.89234499145E+00  0.88000000000E+00 0. -1.
        -11    1    4    4    0    0  0.44694322394E-02 -0.11677626497E-03 -0.68184334216E-01  0.68332671649E-01  0.51100000000E-03 0.  1.
         11    1    4    4    0    0 -0.10527745021E-01 -0.11293329479E-01 -0.58025283392E-01  0.60046376574E-01  0.51100000000E-03 0. -1.
</event>
<event>
 8    1  0.9956970E+004  0.1043930E+01  0.7957747E-01            NaN
         13   -1    0    0    0    0  0.00000000000E+00  0.00000000000E+00  0.74505805969E-08  0.10566000000E+00  0.10566000000E+00 0.  1.
     999900   -1    0    0    0    0 -0.00000000000E+00 -0.00000000000E+00 -0.74505805969E-08  0.93827000000E+00  0.93827000000E+00 0. -1.
     999902    2    1    2    0    0  0.21622227525E-01  0.13622875786E-01  0.51989338501E-02  0.10178506522E+01  0.10175164951E+01 0.  0.
     999903    2    3    3    0    0 -0.54487515193E-01 -0.11121128310E+00  0.10017176220E-01  0.12577471620E+00  0.19547291743E-01 0.  0.
         14    1    1    2    0    0 -0.21622227525E-01 -0.13622875786E-01 -0.51989338501E-02  0.26079347787E-01  0.00000000000E+00 0.  1.
     999901    1    3    3    0    0  0.76109742719E-01  0.12483415888E+00 -0.48182423696E-02  0.89207593602E+00  0.88000000000E+00 0. -1.
        -11    1    4    4    0    0 -0.29855852918E-01 -0.75722266839E-01  0.13177246532E-01  0.82456865062E-01  0.51100000000E-03 0.  1.
         11    1    4    4    0    0 -0.24631662275E-01 -0.35489016259E-01 -0.31600703127E-02  0.43317851133E-01  0.51100000000E-03 0. -1.
</event>
<event>
 8    1  0.9956970E+004  0.1043930E+01  0.7957747E-01            NaN
         13   -1    0    0    0    0  0.00000000000E+00  0.00000000000E+00  0.74505805969E-08  0.10566000000E+00  0.10566000000E+00 0.  1.
     999900   -1    0    0    0    0 -0.00000000000E+00 -0.00000000000E+00 -0.74505805969E-08  0.93827000000E+00  0.93827000000E+00 0. -1.
     999902    2    1    2    0    0 -0.17349844618E-01  0.55735543256E-02  0.15521276691E-01  0.10199927561E+01  0.10197118371E+01 0.  0.
     999903    2    3    3    0    0  0.87875999639E-01  0.39091321378E-01 -0.78693528316E-01  0.12810019053E+00  0.31091231817E-01 0.  0.
         14    1    1    2    0    0  0.17349844618E-01 -0.55735543256E-02 -0.15521276691E-01  0.23937243914E-01  0.00000000000E+00 0. -1.
     999901    1    3    3    0    0 -0.10522584426E+00 -0.33517767053E-01  0.94214805006E-01  0.89189256555E+00  0.88000000000E+00 0.  1.
        -11    1    4    4    0    0  0.60811930020E-01  0.10910444268E-01 -0.52271046382E-01  0.80929920535E-01  0.51100000000E-03 0. -1.
         11    1    4    4    0    0  0.27064069619E-01  0.28180877111E-01 -0.26422481934E-01  0.47170269997E-01  0.51100000000E-03 0.  1.
</event>
<event>
 8    1  0.9956970E+004  0.1043930E+01  0.7957747E-01            NaN
         13   -1    0    0    0    0  0.00000000000E+00  0.00000000000E+00  0.74505805969E-08  0.10566000000E+00  0.10566000000E+00 0. -1.
     999900   -1    0    0    0    0 -0.00000000000E+00 -0.00000000000E+00 -0.74505805969E-08  0.93827000000E+00  0.93827000000E+00 0.  1.
     999902    2    1    2    0    0  0.19286896920E-01 -0.48923609129E-03  0.13838184928E-01  0.10201872304E+01  0.10199109108E+01 0.  0.
     999903    2    3    3    0    0  0.50907296706E-02 -0.11508550725E+00 -0.56354477873E-01  0.12987220391E+00  0.20502991624E-01 0.  0.
         14    1    1    2    0    0 -0.19286896920E-01  0.48923609129E-03 -0.13838184928E-01  0.23742769570E-01  0.00000000000E+00 0. -1.
     999901    1    3    3    0    0  0.14196167250E-01  0.11459627116E+00  0.70192662802E-01  0.89031502652E+00  0.88000000000E+00 0. -1.
        -11    1    4    4    0    0  0.98028054730E-02 -0.71000663689E-01 -0.26494210202E-01  0.76415924615E-01  0.51100000000E-03 0. -1.
         11    1    4    4    0    0 -0.47120758024E-02 -0.44084843561E-01 -0.29860267671E-01  0.53456279300E-01  0.51100000000E-03 0.  1.
</event>
<event>
 8    1  0.9956970E+004  0.1043930E+01  0.7957747E-01            NaN
         13   -1    0    0    0    0  0.00000000000E+00  0.00000000000E+00  0.74505805969E-08  0.10566000000E+00  0.10566000000E+00 0. -1.
     999900   -1    0    0    0    0 -0.00000000000E+00 -0.00000000000E+00 -0.74505805969E-08  0.93827000000E+00  0.93827000000E+00 0. -1.
     999902    2    1    2    0    0 -0.72121369607E-02  0.13526817572E-01 -0.18911200053E-01  0.10195861466E+01  0.10192954856E+01 0.  0.
     999903    2    3    3    0    0 -0.26560763384E-01 -0.15334985328E-01  0.12241471895E+00  0.12763301528E+00  0.19083690580E-01 0.  0.
         14    1    1    2    0    0  0.72121369607E-02 -0.13526817572E-01  0.18911200053E-01  0.24343853446E-01  0.00000000000E+00 0. -1.
     999901    1    3    3    0    0  0.19348626423E-01  0.28861802900E-01 -0.14132591901E+00  0.89195313128E+00  0.88000000000E+00 0. -1.
        -11    1    4    4    0    0 -0.22142683099E-01 -0.28116500736E-02  0.86614284920E-01  0.89445510028E-01  0.51100000000E-03 0. -1.
         11    1    4    4    0    0 -0.44180802848E-02 -0.12523335254E-01  0.35800434032E-01  0.38187505249E-01  0.51100000000E-03 0.  1.
</event>
<event>
 8    1  0.9956970E+004  0.1043930E+01  0.7957747E-01            NaN
         13   -1    0    0    0    0  0.00000000000E+00  0.00000000000E+00  0.74505805969E-08  0.10566000000E+00  0.10566000000E+00 0. -1.
     999900   -1    0    0    0    0 -0.00000000000E+00 -0.00000000000E+00 -0.74505805969E-08  0.93827000000E+00  0.93827000000E+00 0. -1.
     999902    2    1    2    0    0  0.17910284416E-01 -0.24760426555E-02 -0.11020741852E-01  0.10227553494E+01  0.10225361309E+01 0.  0.
     999903    2    3    3    0    0 -0.82401378490E-02  0.21411372805E-01 -0.12970806905E+00  0.13408154268E+00  0.25046559722E-01 0.  0.
         14    1    1    2    0    0 -0.17910284416E-01  0.24760426555E-02  0.11020741852E-01  0.21174650553E-01  0.00000000000E+00 0.  1.
     999901    1    3    3    0    0  0.26150422265E-01 -0.23887415461E-01  0.11868732719E+00  0.88867380677E+00  0.88000000000E+00 0.  1.
        -11    1    4    4    0    0  0.41635596690E-02  0.49713075257E-02 -0.80133075615E-01  0.80396642070E-01  0.51100000000E-03 0. -1.
         11    1    4    4    0    0 -0.12403697518E-01  0.16440065279E-01 -0.49574993431E-01  0.53684900607E-01  0.51100000000E-03 0.  1.
</event>
<event>
 8    1  0.9956970E+004  0.1043930E+01  0.7957747E-01            NaN
         13   -1    0    0    0    0  0.00000000000E+00  0.00000000000E+00  0.74505805969E-08  0.10566000000E+00  0.10566000000E+00 0.  1.
     999900   -1    0    0    0    0 -0.00000000000E+00 -0.00000000000E+00 -0.74505805969E-08  0.93827000000E+00  0.93827000000E+00 0.  1.
     999902    2    1    2    0    0  0.12507551187E-01 -0.19644033784E-01  0.57929106931E-02  0.10199324019E+01  0.10196500477E+01 0.  0.
     999903    2    3    3    0    0 -0.72544076389E-02 -0.71029463606E-01 -0.10775587479E+00  0.13093053233E+00  0.20824615589E-01 0.  0.
         14    1    1    2    0    0 -0.12507551187E-01  0.19644033784E-01 -0.57929106931E-02  0.23997598094E-01  0.00000000000E+00 0. -1.
     999901    1    3    3    0    0  0.19761958826E-01  0.51385429822E-01  0.11354878549E+00  0.88900186957E+00  0.88000000000E+00 0. -1.
        -11    1    4    4    0    0 -0.68033389956E-02 -0.48962808924E-01 -0.56213218063E-01  0.74858727516E-01  0.51100000000E-03 0. -1.
         11    1    4    4    0    0 -0.45106864327E-03 -0.22066654682E-01 -0.51542656731E-01  0.56071804819E-01  0.51100000000E-03 0.  1.
</event>
<event>
 8    1  0.9956970E+004  0.1043930E+01  0.7957747E-01            NaN
         13   -1    0    0    0    0  0.00000000000E+00  0.00000000000E+00  0.74505805969E-08  0.10566000000E+00  0.10566000000E+00 0. -1.
     999900   -1    0    0    0    0 -0.00000000000E+00 -0.00000000000E+00 -0.74505805969E-08  0.93827000000E+00  0.93827000000E+00 0.  1.
     999902    2    1    2    0    0 -0.28031523038E-02  0.14001767493E-01 -0.19103352174E-01  0.10200795237E+01  0.10198006616E+01 0.  0.
     999903    2    3    3    0    0  0.10394897874E+00 -0.21679932800E-01  0.69543917878E-01  0.12849243333E+00  0.19963447615E-01 0.  0.
         14    1    1    2    0    0  0.28031523038E-02 -0.14001767493E-01  0.19103352174E-01  0.23850476307E-01  0.00000000000E+00 0. -1.
     999901    1    3    3    0    0 -0.10675213105E+00  0.35681700293E-01 -0.88647270052E-01  0.89158709037E+00  0.88000000000E+00 0.  1.
        -11    1    4    4    0    0  0.48847158993E-01 -0.13583354319E-01  0.44352726241E-01  0.67364515156E-01  0.51100000000E-03 0. -1.
         11    1    4    4    0    0  0.55101819750E-01 -0.80965784813E-02  0.25191191637E-01  0.61127918171E-01  0.51100000000E-03 0.  1.
</event>
<event>
 8    1  0.9956970E+004  0.1043930E+01  0.7957747E-01            NaN
         13   -1    0    0    0    0  0.00000000000E+00  0.00000000000E+00  0.74505805969E-08  0.10566000000E+00  0.10566000000E+00 0. -1.
     999900   -1    0    0    0    0 -0.00000000000E+00 -0.00000000000E+00 -0.74505805969E-08  0.93827000000E+00  0.93827000000E+00 0. -1.
     999902    2    1    2    0    0  0.14564723388E-02  0.20550546441E-01  0.11551183346E-01  0.10203105989E+01  0.10200371769E+01 0.  0.
     999903    2    3    3    0    0 -0.10136707801E+00  0.15144916799E-01 -0.77311288647E-01  0.12986214883E+00  0.19557334617E-01 0.  0.
         14    1    1    2    0    0 -0.14564723388E-02 -0.20550546441E-01 -0.11551183346E-01  0.23619401080E-01  0.00000000000E+00 0. -1.
     999901    1    3    3    0    0  0.10282355035E+00  0.54056296417E-02  0.88862471993E-01  0.89044845009E+00  0.88000000000E+00 0. -1.
        -11    1    4    4    0    0 -0.77097037963E-01  0.13737669702E-01 -0.48307716352E-01  0.92013984870E-01  0.51100000000E-03 0. -1.
         11    1    4    4    0    0 -0.24270040047E-01  0.14072470971E-02 -0.29003572295E-01  0.37848163960E-01  0.51100000000E-03 0.  1.
</event>
<event>
 8    1  0.9956970E+004  0.1043930E+01  0.7957747E-01            NaN
         13   -1    0    0    0    0  0.00000000000E+00  0.00000000000E+00  0.74505805969E-08  0.10566000000E+00  0.10566000000E+00 0.  1.
     999900   -1    0    0    0    0 -0.00000000000E+00 -0.00000000000E+00 -0.74505805969E-08  0.93827000000E+00  0.93827000000E+00 0. -1.
     999902    2    1    2    0    0  0.40943580246E-02 -0.20812585631E-01  0.41037723007E-02  0.10223251756E+01  0.10220968625E+01 0.  0.
     999903    2    3    3    0    0  0.12039707746E+00  0.45269432583E-01 -0.17202750585E-01  0.13196169729E+00  0.23941118081E-01 0.  0.
         14    1    1    2    0    0 -0.40943580246E-02  0.20812585631E-01 -0.41037723007E-02  0.21604824354E-01  0.00000000000E+00 0.  1.
     999901    1    3    3    0    0 -0.11630271944E+00 -0.66082018215E-01  0.21306522886E-01  0.89036347836E+00  0.88000000000E+00 0. -1.
        -11    1    4    4    0    0  0.11008225080E+00  0.45945687214E-01 -0.20633506636E-01  0.12105829518E+00  0.51100000000E-03 0.  1.
         11    1    4    4    0    0  0.10314826664E-01 -0.67625463104E-03  0.34307560508E-02  0.10903402107E-01  0.51100000000E-03 0. -1.
</event>
<event>
 8    1  0.9956970E+004  0.1043930E+01  0.7957747E-01            NaN
         13   -1    0    0    0    0  0.00000000000E+00  0.00000000000E+00  0.74505805969E-08  0.10566000000E+00  0.10566000000E+00 0.  1.
     999900   -1    0    0    0    0 -0.00000000000E+00 -0.00000000000E+00 -0.74505805969E-08  0.93827000000E+00  0.93827000000E+00 0.  1.
     999902    2    1    2    0    0 -0.26329354975E-01  0.92048176777E-02  0.89289809850E-02  0.10146436499E+01  0.10142209059E+01 0.  0.
     999903    2    3    3    0    0 -0.46078734552E-01 -0.22207750540E-01  0.11502530773E+00  0.12749472327E+00  0.20190321515E-01 0.  0.
         14    1    1    2    0    0  0.26329354975E-01 -0.92048176777E-02 -0.89289809850E-02  0.29286350119E-01  0.00000000000E+00 0. -1.
     999901    1    3    3    0    0  0.19749379577E-01  0.31412568218E-01 -0.10609632674E+00  0.88714892661E+00  0.88000000000E+00 0.  1.
        -11    1    4    4    0    0 -0.25375983232E-01 -0.65021105578E-02  0.77802452748E-01  0.82095680405E-01  0.51100000000E-03 0. -1.
         11    1    4    4    0    0 -0.20702751320E-01 -0.15705639982E-01  0.37222854978E-01  0.45399042866E-01  0.51100000000E-03 0.  1.
</event>
<event>
 8    1  0.9956970E+004  0.1043930E+01  0.7957747E-01            NaN
         13   -1    0    0    0    0  0.00000000000E+00  0.00000000000E+00  0.74505805969E-08  0.10566000000E+00  0.10566000000E+00 0.  1.
     999900   -1    0    0    0    0 -0.00000000000E+00 -0.00000000000E+00 -0.74505805969E-08  0.93827000000E+00  0.93827000000E+00 0. -1.
     999902    2    1    2    0    0 -0.12586040570E-01  0.19295599850E-01  0.45921641428E-02  0.10204392239E+01  0.10201688062E+01 0.  0.
     999903    2    3    3    0    0  0.92706663498E-01  0.90342335613E-01  0.96211577392E-02  0.13130510410E+00  0.19804055798E-01 0.  0.
         14    1    1    2    0    0  0.12586040570E-01 -0.19295599850E-01 -0.45921641428E-02  0.23490776111E-01  0.00000000000E+00 0. -1.
     999901    1    3    3    0    0 -0.10529270407E+00 -0.71046735763E-01 -0.50289935964E-02  0.88913411979E+00  0.88000000000E+00 0.  1.
        -11    1    4    4    0    0  0.83616802843E-01  0.84179256193E-01  0.34591590233E-02  0.11870191150E+00  0.51100000000E-03 0.  1.
         11    1    4    4    0    0  0.90898606557E-02  0.61630794199E-02  0.61619987159E-02  0.12603192605E-01  0.51100000000E-03 0. -1.
</event>
<event>
 8    1  0.9956970E+004  0.1043930E+01  0.7957747E-01            NaN
         13   -1    0    0    0    0  0.00000000000E+00  0.00000000000E+00  0.74505805969E-08  0.10566000000E+00  0.10566000000E+00 0.  1.
     999900   -1    0    0    0    0 -0.00000000000E+00 -0.00000000000E+00 -0.74505805969E-08  0.93827000000E+00  0.93827000000E+00 0. -1.
     999902    2    1    2    0    0 -0.24735917773E-02  0.10714865032E-01 -0.19532516079E-01  0.10215146889E+01  0.10212687273E+01 0.  0.
     999903    2    3    3    0    0  0.75359407738E-01 -0.96697829557E-02 -0.10791742275E+00  0.13343507452E+00  0.19652072195E-01 0.  0.
         14    1    1    2    0    0  0.24735917773E-02 -0.10714865032E-01  0.19532516079E-01  0.22415311136E-01  0.00000000000E+00 0.  1.
     999901    1    3    3    0    0 -0.77832999516E-01  0.20384647987E-01  0.88384906672E-01  0.88807961434E+00  0.88000000000E+00 0.  1.
        -11    1    4    4    0    0  0.57610215464E-01 -0.19450452469E-02 -0.68573538990E-01  0.89584102928E-01  0.51100000000E-03 0. -1.
         11    1    4    4    0    0  0.17749192275E-01 -0.77247377088E-02 -0.39343883762E-01  0.43850971591E-01  0.51100000000E-03 0.  1.
</event>
<event>
 8    1  0.9956970E+004  0.1043930E+01  0.7957747E-01            NaN
         13   -1    0    0    0    0  0.00000000000E+00  0.00000000000E+00  0.74505805969E-08  0.10566000000E+00  0.10566000000E+00 0. -1.
     999900   -1    0    0    0    0 -0.00000000000E+00 -0.00000000000E+00 -0.74505805969E-08  0.93827000000E+00  0.93827000000E+00 0. -1.
     999902    2    1    2    0    0 -0.62489811271E-02  0.21073225616E-01 -0.11418877450E-01  0.10191606366E+01  0.10188595986E+01 0.  0.
     999903    2    3    3    0    0  0.71685874280E-01  0.64512758856E-01 -0.87223086334E-01  0.13140666568E+00  0.18949521587E-01 0.  0.
         14    1    1    2    0    0  0.62489811271E-02 -0.21073225616E-01  0.11418877450E-01  0.24769363439E-01  0.00000000000E+00 0.  1.
     999901    1    3    3    0    0 -0.77934855407E-01 -0.43439533240E-01  0.75804208884E-01  0.88775397088E+00  0.88000000000E+00 0.  1.
        -11    1    4    4    0    0  0.48721151704E-01  0.48465177150E-01 -0.50842387842E-01  0.85485867499E-01  0.51100000000E-03 0. -1.
         11    1    4    4    0    0  0.22964722575E-01  0.16047581706E-01 -0.36380698492E-01  0.45920798179E-01  0.51100000000E-03 0.  1.
</event>
<event>
 8    1  0.9956970E+004  0.1043930E+01  0.7957747E-01            NaN
         13   -1    0    0    0    0  0.00000000000E+00  0.00000000000E+00  0.74505805969E-08  0.10566000000E+00  0.10566000000E+00 0. -1.
     999900   -1    0    0    0    0 -0.00000000000E+00 -0.00000000000E+00 -0.74505805969E-08  0.93827000000E+00  0.93827000000E+00 0. -1.
     999902    2    1    2    0    0 -0.24936880571E-02  0.22977560596E-01 -0.39674872821E-02  0.10204794621E+01  0.10202099808E+01 0.  0.
     999903    2    3    3    0    0 -0.43442018826E-02 -0.12618408372E+00 -0.51078928265E-02  0.12792474613E+00  0.19933766061E-01 0.  0.
         14    1    1    2    0    0  0.24936880571E-02 -0.22977560596E-01  0.39674872821E-02  0.23450537870E-01  0.00000000000E+00 0.  1.
     999901    1    3    3    0    0  0.18505138255E-02  0.14916164431E+00  0.11404055444E-02  0.89255471600E+00  0.88000000000E+00 0. -1.
        -11    1    4    4    0    0  0.11721334818E-03 -0.31777516633E-01 -0.99056368297E-02  0.33289744131E-01  0.51100000000E-03 0.  1.
         11    1    4    4    0    0 -0.44614152308E-02 -0.94406567082E-01  0.47977440032E-02  0.94635001995E-01  0.51100000000E-03 0. -1.
</event>
<event>
 8    1  0.9956970E+004  0.1043930E+01  0.7957747E-01            NaN
         13   -1    0    0    0    0  0.00000000000E+00  0.00000000000E+00  0.74505805969E-08  0.10566000000E+00  0.10566000000E+00 0.  1.
     999900   -1    0    0    0    0 -0.00000000000E+00 -0.00000000000E+00 -0.74505805969E-08  0.93827000000E+00  0.93827000000E+00 0. -1.
     999902    2    1    2    0    0 -0.67749934088E-02  0.19045473951E-01  0.12224633982E-01  0.10203064463E+01  0.10200329269E+01 0.  0.
     999903    2    3    3    0    0  0.23780844724E-01 -0.99027343375E-01 -0.74898166457E-01  0.12763336403E+00  0.17566928145E-01 0.  0.
         14    1    1    2    0    0  0.67749934088E-02 -0.19045473951E-01 -0.12224633982E-01  0.23623553706E-01  0.00000000000E+00 0.  1.
     999901    1    3    3    0    0 -0.30555838133E-01  0.11807281733E+00  0.87122800439E-01  0.89267308226E+00  0.88000000000E+00 0.  1.
        -11    1    4    4    0    0  0.18393992367E-01 -0.39641105740E-01 -0.30770016250E-01  0.53449146303E-01  0.51100000000E-03 0.  1.
         11    1    4    4    0    0  0.53868523570E-02 -0.59386237635E-01 -0.44128150207E-01  0.74184217731E-01  0.51100000000E-03 0. -1.
</event>
<event>
 8    1  0.9956970E+004  0.1043930E+01  0.7957747E-01            NaN
         13   -1    0    0    0    0  0.00000000000E+00  0.00000000000E+00  0.74505805969E-08  0.10566000000E+00  0.10566000000E+00 0. -1.
     999900   -1    0    0    0    0 -0.00000000000E+00 -0.00000000000E+00 -0.74505805969E-08  0.93827000000E+00  0.93827000000E+00 0. -1.
     999902    2    1    2    0    0  0.21727144175E-01 -0.99095341455E-02 -0.49378558852E-03  0.10200446178E+01  0.10197649291E+01 0.  0.
     999903    2    3    3    0    0  0.30661316445E-01  0.12834933920E-01 -0.12512384785E+00  0.13092719993E+00  0.19521847399E-01 0.  0.
         14    1    1    2    0    0 -0.21727144175E-01  0.99095341455E-02  0.49378558852E-03  0.23885382249E-01  0.00000000000E+00 0.  1.
     999901    1    3    3    0    0 -0.89341722699E-02 -0.22744468066E-01  0.12463006226E+00  0.88911741783E+00  0.88000000000E+00 0.  1.
        -11    1    4    4    0    0  0.13359854967E-01 -0.32078856013E-03 -0.23827326833E-01  0.27323822116E-01  0.51100000000E-03 0. -1.
         11    1    4    4    0    0  0.17301461478E-01  0.13155722480E-01 -0.10129652101E+00  0.10360337781E+00  0.51100000000E-03 0.  1.
</event>
<event>
 8    1  0.9956970E+004  0.1043930E+01  0.7957747E-01            NaN
         13   -1    0    0    0    0  0.00000000000E+00  0.00000000000E+00  0.74505805969E-08  0.10566000000E+00  0.10566000000E+00 0. -1.
     999900   -1    0    0    0    0 -0.00000000000E+00 -0.00000000000E+00 -0.74505805969E-08  0.93827000000E+00  0.93827000000E+00 0.  1.
     999902    2    1    2    0    0  0.13998295271E-01  0.12357440686E-01 -0.14525278202E-01  0.10202732395E+01  0.10199989416E+01 0.  0.
     999903    2    3    3    0    0 -0.81027000463E-01  0.26896924089E-01 -0.97503479499E-01  0.13115761974E+00  0.20163664617E-01 0.  0.
         14    1    1    2    0    0 -0.13998295271E-01 -0.12357440686E-01  0.14525278202E-01  0.23656760506E-01  0.00000000000E+00 0. -1.
     999901    1    3    3    0    0  0.95025295735E-01 -0.14539483404E-01  0.82978201298E-01  0.88911561976E+00  0.88000000000E+00 0. -1.
        -11    1    4    4    0    0 -0.52714851177E-01  0.73267339230E-02 -0.56491727412E-01  0.77615159290E-01  0.51100000000E-03 0.  1.
         11    1    4    4    0    0 -0.28312149286E-01  0.19570190166E-01 -0.41011752087E-01  0.53542460446E-01  0.51100000000E-03 0. -1.
</event>
<event>
 8    1  0.9956970E+004  0.1043930E+01  0.7957747E-01            NaN
         13   -1    0    0    0    0  0.00000000000E+00  0.00000000000E+00  0.74505805969E-08  0.10566000000E+00  0.10566000000E+00 0. -1.
     999900   -1    0    0    0    0 -0.00000000000E+00 -0.00000000000E+00 -0.74505805969E-08  0.93827000000E+00  0.93827000000E+00 0.  1.
     999902    2    1    2    0    0  0.69743675927E-02  0.12884128391E-01 -0.15813348311E-01  0.10223729930E+01  0.10221457001E+01 0.  0.
     999903    2    3    3    0    0 -0.27103341275E-01  0.28265349891E-01  0.12298891548E+00  0.13070941254E+00  0.20619313347E-01 0.  0.
         14    1    1    2    0    0 -0.69743675927E-02 -0.12884128391E-01  0.15813348311E-01  0.21557007040E-01  0.00000000000E+00 0. -1.
     999901    1    3    3    0    0  0.34077708868E-01 -0.15381221500E-01 -0.13880226379E+00  0.89166358042E+00  0.88000000000E+00 0.  1.
        -11    1    4    4    0    0 -0.61720132114E-02  0.14059198892E-01  0.73937437114E-01  0.75516624319E-01  0.51100000000E-03 0. -1.
         11    1    4    4    0    0 -0.20931328064E-01  0.14206150999E-01  0.49051478365E-01  0.55192788220E-01  0.51100000000E-03 0.  1.
</event>
<event>
 8    1  0.9956970E+004  0.1043930E+01  0.7957747E-01            NaN
         13   -1    0    0    0    0  0.00000000000E+00  0.00000000000E+00  0.74505805969E-08  0.10566000000E+00  0.10566000000E+00 0.  1.
     999900   -1    0    0    0    0 -0.00000000000E+00 -0.00000000000E+00 -0.74505805969E-08  0.93827000000E+00  0.93827000000E+00 0.  1.
     999902    2    1    2    0    0 -0.22177881102E-01  0.38529352943E-03 -0.64182277234E-02  0.10208388652E+01  0.10205776737E+01 0.  0.
     999903    2    3    3    0    0 -0.59581520692E-01 -0.44038422764E-01 -0.10870049574E+00  0.13301334110E+00  0.19682755107E-01 0.  0.
         14    1    1    2    0    0  0.22177881102E-01 -0.38529352943E-03  0.64182277234E-02  0.23091134844E-01  0.00000000000E+00 0. -1.
     999901    1    3    3    0    0  0.37403639590E-01  0.44423716294E-01  0.10228226801E+00  0.88782552406E+00  0.88000000000E+00 0. -1.
        -11    1    4    4    0    0 -0.55940048623E-01 -0.34097867543E-01 -0.87478228451E-01  0.10929160620E+00  0.51100000000E-03 0. -1.
         11    1    4    4    0    0 -0.36414720692E-02 -0.99405552211E-02 -0.21222267285E-01  0.23721734900E-01  0.51100000000E-03 0.  1.
</event>
<event>
 7    1  0.1066342E+005  0.1043930E+01  0.7957747E-01            NaN
         13   -1    0    0    0    0  0.00000000000E+00  0.00000000000E+00  0.74505805969E-08  0.10566000000E+00  0.10566000000E+00 0.  1.
     999900   -1    0    0    0    0 -0.00000000000E+00 -0.00000000000E+00 -0.74505805969E-08  0.93827000000E+00  0.93827000000E+00 0.  1.
     999903    2    1    2    0    0 -0.43336824827E-01 -0.87051229939E-01  0.56329627782E-01  0.11408967859E+00  0.19683261303E-01 0.  0.
         14    1    1    2    0    0  0.41995432602E-01 -0.57064375623E-02 -0.11090893111E-01  0.43808534546E-01  0.00000000000E+00 0. -1.
     999901    1    1    2    0    0  0.13413922245E-02  0.92757667501E-01 -0.45238734671E-01  0.88603178686E+00  0.88000000000E+00 0.  1.
        -11    1    3    3    0    0 -0.10537676271E-01 -0.42419064496E-01  0.27550160269E-01  0.51669063334E-01  0.51100000000E-03 0.  1.
         11    1    3    3    0    0 -0.32799148555E-01 -0.44632165443E-01  0.28779467512E-01  0.62420615259E-01  0.51100000000E-03 0. -1.
</event>
<event>
 8    1  0.9956970E+004  0.1043930E+01  0.7957747E-01            NaN
         13   -1    0    0    0    0  0.00000000000E+00  0.00000000000E+00  0.74505805969E-08  0.10566000000E+00  0.10566000000E+00 0.  1.
     999900   -1    0    0    0    0 -0.00000000000E+00 -0.00000000000E+00 -0.74505805969E-08  0.93827000000E+00  0.93827000000E+00 0. -1.
     999902    2    1    2    0    0  0.46296454217E-02 -0.16635787108E-02 -0.21118775423E-01  0.10222458171E+01  0.10220158056E+01 0.  0.
     999903    2    3    3    0    0 -0.28189608927E-01 -0.92225945939E-01  0.85503247378E-01  0.13059179143E+00  0.21050689344E-01 0.  0.
         14    1    1    2    0    0 -0.46296454217E-02  0.16635787108E-02  0.21118775423E-01  0.21684182859E-01  0.00000000000E+00 0.  1.
     999901    1    3    3    0    0  0.32819254349E-01  0.90562367228E-01 -0.10662202280E+00  0.89165402571E+00  0.88000000000E+00 0. -1.
        -11    1    4    4    0    0 -0.23411211348E-02 -0.25340461252E-01  0.33204494050E-01  0.41838013466E-01  0.51100000000E-03 0.  1.
         11    1    4    4    0    0 -0.25848487792E-01 -0.66885484687E-01  0.52298753329E-01  0.88753777968E-01  0.51100000000E-03 0. -1.
</event>
<event>
 8    1  0.9956970E+004  0.1043930E+01  0.7957747E-01            NaN
         13   -1    0    0    0    0  0.00000000000E+00  0.00000000000E+00  0.74505805969E-08  0.10566000000E+00  0.10566000000E+00 0.  1.
     999900   -1    0    0    0    0 -0.00000000000E+00 -0.00000000000E+00 -0.74505805969E-08  0.93827000000E+00  0.93827000000E+00 0.  1.
     999902    2    1    2    0    0  0.10506740369E-01 -0.15412679292E-01  0.15331119387E-01  0.10197849074E+01  0.10194990298E+01 0.  0.
     999903    2    3    3    0    0 -0.54236099967E-01 -0.11625162478E+00 -0.17708861697E-01  0.13104885621E+00  0.20104828462E-01 0.  0.
         14    1    1    2    0    0 -0.10506740369E-01  0.15412679292E-01 -0.15331119387E-01  0.24145092624E-01  0.00000000000E+00 0. -1.
     999901    1    3    3    0    0  0.64742840337E-01  0.10083894548E+00  0.33039981084E-01  0.88873605117E+00  0.88000000000E+00 0. -1.
        -11    1    4    4    0    0 -0.22975566480E-01 -0.65780011215E-01 -0.16780562137E-01  0.71671018669E-01  0.51100000000E-03 0.  1.
         11    1    4    4    0    0 -0.31260533487E-01 -0.50471613561E-01 -0.92829955924E-03  0.59377837536E-01  0.51100000000E-03 0. -1.
</event>
<event>
 8    1  0.9956970E+004  0.1043930E+01  0.7957747E-01            NaN
         13   -1    0    0    0    0  0.00000000000E+00  0.00000000000E+00  0.74505805969E-08  0.10566000000E+00  0.10566000000E+00 0.  1.
     999900   -1    0    0    0    0 -0.00000000000E+00 -0.00000000000E+00 -0.74505805969E-08  0.93827000000E+00  0.93827000000E+00 0. -1.
     999902    2    1    2    0    0 -0.77585995854E-02 -0.13821936696E-01 -0.14515841516E-01  0.10224369440E+01  0.10222110120E+01 0.  0.
     999903    2    3    3    0    0 -0.39251329283E-01  0.93403419145E-01  0.79406139950E-01  0.13041093117E+00  0.20900008315E-01 0.  0.
         14    1    1    2    0    0  0.77585995854E-02  0.13821936696E-01  0.14515841516E-01  0.21493056006E-01  0.00000000000E+00 0.  1.
     999901    1    3    3    0    0  0.31492729698E-01 -0.10722535584E+00 -0.93921981466E-01  0.89202601283E+00  0.88000000000E+00 0. -1.
        -11    1    4    4    0    0 -0.37537163165E-02  0.26746685667E-01  0.28889514519E-01  0.39551747755E-01  0.51100000000E-03 0. -1.
         11    1    4    4    0    0 -0.35497612967E-01  0.66656733477E-01  0.50516625431E-01  0.90859183411E-01  0.51100000000E-03 0.  1.
</event>
<event>
 8    1  0.9956970E+004  0.1043930E+01  0.7957747E-01            NaN
         13   -1    0    0    0    0  0.00000000000E+00  0.00000000000E+00  0.74505805969E-08  0.10566000000E+00  0.10566000000E+00 0. -1.
     999900   -1    0    0    0    0 -0.00000000000E+00 -0.00000000000E+00 -0.74505805969E-08  0.93827000000E+00  0.93827000000E+00 0.  1.
     999902    2    1    2    0    0  0.15230320989E-01  0.97642802872E-02  0.15090571707E-01  0.10203709423E+01  0.10200989318E+01 0.  0.
     999903    2    3    3    0    0 -0.67776774572E-01 -0.44287957041E-01 -0.96741397944E-01  0.12778021202E+00  0.20341342108E-01 0.  0.
         14    1    1    2    0    0 -0.15230320989E-01 -0.97642802872E-02 -0.15090571707E-01  0.23559057736E-01  0.00000000000E+00 0.  1.
     999901    1    3    3    0    0  0.83007095561E-01  0.54052237328E-01  0.11183196965E+00  0.89259073024E+00  0.88000000000E+00 0. -1.
        -11    1    4    4    0    0 -0.34141150136E-01 -0.32317435741E-01 -0.46339935343E-01  0.66012767811E-01  0.51100000000E-03 0.  1.
         11    1    4    4    0    0 -0.33635624437E-01 -0.11970521300E-01 -0.50401462600E-01  0.61767444214E-01  0.51100000000E-03 0. -1.
</event>
<event>
 8    1  0.9956970E+004  0.1043930E+01  0.7957747E-01            NaN
         13   -1    0    0    0    0  0.00000000000E+00  0.00000000000E+00  0.74505805969E-08  0.10566000000E+00  0.10566000000E+00 0. -1.
     999900   -1    0    0    0    0 -0.00000000000E+00 -0.00000000000E+00 -0.74505805969E-08  0.93827000000E+00  0.93827000000E+00 0.  1.
     999902    2    1    2    0    0  0.41536266998E-02 -0.22065528715E-01  0.67205665500E-02  0.10204927180E+01  0.10202235448E+01 0.  0.
     999903    2    3    3    0    0 -0.10944851919E+00  0.48615848049E-01  0.44518248709E-01  0.12957747550E+00  0.21586307086E-01 0.  0.
         14    1    1    2    0    0 -0.41536266998E-02  0.22065528715E-01 -0.67205665500E-02  0.23437281988E-01  0.00000000000E+00 0. -1.
     999901    1    3    3    0    0  0.11360214589E+00 -0.70681376764E-01 -0.37797682159E-01  0.89091524252E+00  0.88000000000E+00 0. -1.
        -11    1    4    4    0    0 -0.40169686172E-01  0.12596410280E-01  0.60585996865E-02  0.42535173566E-01  0.51100000000E-03 0.  1.
         11    1    4    4    0    0 -0.69278833016E-01  0.36019437769E-01  0.38459649022E-01  0.87042301930E-01  0.51100000000E-03 0. -1.
</event>
<event>
 8    1  0.9956970E+004  0.1043930E+01  0.7957747E-01            NaN
         13   -1    0    0    0    0  0.00000000000E+00  0.00000000000E+00  0.74505805969E-08  0.10566000000E+00  0.10566000000E+00 0. -1.
     999900   -1    0    0    0    0 -0.00000000000E+00 -0.00000000000E+00 -0.74505805969E-08  0.93827000000E+00  0.93827000000E+00 0. -1.
     999902    2    1    2    0    0 -0.94203951718E-02 -0.24357240290E-01  0.72040593042E-03  0.10178045721E+01  0.10174692177E+01 0.  0.
     999903    2    3    3    0    0  0.42982124442E-01  0.11593433053E+00  0.16724203350E-02  0.12515197714E+00  0.19287000207E-01 0.  0.
         14    1    1    2    0    0  0.94203951718E-02  0.24357240290E-01 -0.72040593042E-03  0.26125427928E-01  0.00000000000E+00 0. -1.
     999901    1    3    3    0    0 -0.52402519614E-01 -0.14029157081E+00 -0.95201440454E-03  0.89265259493E+00  0.88000000000E+00 0. -1.
        -11    1    4    4    0    0  0.16939693947E-01  0.55461113485E-01 -0.82072579856E-02  0.58570543319E-01  0.51100000000E-03 0.  1.
         11    1    4    4    0    0  0.26042430495E-01  0.60473217040E-01  0.98796783205E-02  0.66581433823E-01  0.51100000000E-03 0. -1.
</event>
<event>
 8    1  0.9956970E+004  0.1043930E+01  0.7957747E-01            NaN
         13   -1    0    0    0    0  0.00000000000E+00  0.00000000000E+00  0.74505805969E-08  0.10566000000E+00  0.10566000000E+00 0. -1.
     999900   -1    0    0    0    0 -0.00000000000E+00 -0.00000000000E+00 -0.74505805969E-08  0.93827000000E+00  0.93827000000E+00 0.  1.
     999902    2    1    2    0    0 -0.21828392898E-01 -0.30502396884E-02  0.90394042280E-02  0.10201078774E+01  0.10198296857E+01 0.  0.
     999903    2    3    3    0    0 -0.76879826429E-01  0.45176729519E-01 -0.94053252837E-01  0.13107210932E+00  0.19556044375E-01 0.  0.
         14    1    1    2    0    0  0.21828392898E-01  0.30502396884E-02 -0.90394042280E-02  0.23822122648E-01  0.00000000000E+00 0. -1.
     999901    1    3    3    0    0  0.55051433531E-01 -0.48226969208E-01  0.10309265706E+00  0.88903576803E+00  0.88000000000E+00 0. -1.
        -11    1    4    4    0    0 -0.53594650365E-01  0.41155885645E-01 -0.72035215807E-01  0.98770070914E-01  0.51100000000E-03 0.  1.
         11    1    4    4    0    0 -0.23285176064E-01  0.40208438741E-02 -0.22018037030E-01  0.32302038410E-01  0.51100000000E-03 0. -1.
</event>
<event>
 8    1  0.9956970E+004  0.1043930E+01  0.7957747E-01            NaN
         13   -1    0    0    0    0  0.00000000000E+00  0.00000000000E+00  0.74505805969E-08  0.10566000000E+00  0.10566000000E+00 0.  1.
     999900   -1    0    0    0    0 -0.00000000000E+00 -0.00000000000E+00 -0.74505805969E-08  0.93827000000E+00  0.93827000000E+00 0.  1.
     999902    2    1    2    0    0  0.62658473778E-02 -0.13816934120E-01  0.18098002050E-01  0.10203141962E+01  0.10200408584E+01 0.  0.
     999903    2    3    3    0    0 -0.96063464056E-01 -0.63949781932E-01 -0.55914829035E-01  0.12988593429E+00  0.20642773184E-01 0.  0.
         14    1    1    2    0    0 -0.62658473778E-02  0.13816934120E-01 -0.18098002050E-01  0.23615803819E-01  0.00000000000E+00 0. -1.
     999901    1    3    3    0    0  0.10232931143E+00  0.50132847812E-01  0.74012831085E-01  0.89042826189E+00  0.88000000000E+00 0. -1.
        -11    1    4    4    0    0 -0.21784832417E-01 -0.20462572492E-01 -0.23065277762E-01  0.37756641213E-01  0.51100000000E-03 0. -1.
         11    1    4    4    0    0 -0.74278631639E-01 -0.43487209440E-01 -0.32849551273E-01  0.92129293077E-01  0.51100000000E-03 0.  1.
</event>
<event>
 8    1  0.9956970E+004  0.1043930E+01  0.7957747E-01            NaN
         13   -1    0    0    0    0  0.00000000000E+00  0.00000000000E+00  0.74505805969E-08  0.10566000000E+00  0.10566000000E+00 0.  1.
     999900   -1    0    0    0    0 -0.00000000000E+00 -0.00000000000E+00 -0.74505805969E-08  0.93827000000E+00  0.93827000000E+00 0.  1.
     999902    2    1    2    0    0 -0.14693174308E-01 -0.17250472642E-01  0.52154264398E-02  0.10206777130E+01  0.10204128209E+01 0.  0.
     999903    2    3    3    0    0  0.37354494120E-01  0.11964987043E+00 -0.17859355282E-01  0.12827471588E+00  0.20591173820E-01 0.  0.
         14    1    1    2    0    0  0.14693174308E-01  0.17250472642E-01 -0.52154264398E-02  0.23252286997E-01  0.00000000000E+00 0. -1.
     999901    1    3    3    0    0 -0.52047668428E-01 -0.13690034307E+00  0.23074781722E-01  0.89240299712E+00  0.88000000000E+00 0.  1.
        -11    1    4    4    0    0  0.11090357391E-01  0.13186220954E-01 -0.44387471564E-02  0.17799888972E-01  0.51100000000E-03 0. -1.
         11    1    4    4    0    0  0.26264136730E-01  0.10646364947E+00 -0.13420608125E-01  0.11047482691E+00  0.51100000000E-03 0.  1.
</event>
<event>
 8    1  0.9956970E+004  0.1043930E+01  0.7957747E-01            NaN
         13   -1    0    0    0    0  0.00000000000E+00  0.00000000000E+00  0.74505805969E-08  0.10566000000E+00  0.10566000000E+00 0.  1.
     999900   -1    0    0    0    0 -0.00000000000E+00 -0.00000000000E+00 -0.74505805969E-08  0.93827000000E+00  0.93827000000E+00 0. -1.
     999902    2    1    2    0    0 -0.85193808424E-03  0.23551124960E-01  0.21942328610E-02  0.10202615412E+01  0.10199869688E+01 0.  0.
     999903    2    3    3    0    0 -0.97697268430E-01 -0.35940831641E-01  0.75647196323E-01  0.12991686143E+00  0.17871567749E-01 0.  0.
         14    1    1    2    0    0  0.85193808424E-03 -0.23551124960E-01 -0.21942328610E-02  0.23668458827E-01  0.00000000000E+00 0. -1.
     999901    1    3    3    0    0  0.96845330346E-01  0.59491956602E-01 -0.73452963462E-01  0.89034467975E+00  0.88000000000E+00 0. -1.
        -11    1    4    4    0    0 -0.93175807884E-01 -0.30985264599E-01  0.74093932636E-01  0.12301215294E+00  0.51100000000E-03 0.  1.
         11    1    4    4    0    0 -0.45214605461E-02 -0.49555670421E-02  0.15532636875E-02  0.69047084849E-02  0.51100000000E-03 0. -1.
</event>
<event>
 8    1  0.9956970E+004  0.1043930E+01  0.7957747E-01            NaN
         13   -1    0    0    0    0  0.00000000000E+00  0.00000000000E+00  0.74505805969E-08  0.10566000000E+00  0.10566000000E+00 0. -1.
     999900   -1    0    0    0    0 -0.00000000000E+00 -0.00000000000E+00 -0.74505805969E-08  0.93827000000E+00  0.93827000000E+00 0. -1.
     999902    2    1    2    0    0 -0.18305236847E-01 -0.14483063218E-01  0.51033613661E-02  0.10200367978E+01  0.10197569238E+01 0.  0.
     999903    2    3    3    0    0  0.43575572253E-01 -0.10501630763E+00  0.62829747235E-01  0.13135359295E+00  0.19466224043E-01 0.  0.
         14    1    1    2    0    0  0.18305236847E-01  0.14483063218E-01 -0.51033613661E-02  0.23893202243E-01  0.00000000000E+00 0. -1.
     999901    1    3    3    0    0 -0.61880809100E-01  0.90533244410E-01 -0.57726385869E-01  0.88868320481E+00  0.88000000000E+00 0. -1.
        -11    1    4    4    0    0  0.11894157999E-01 -0.51485278615E-01  0.33613517829E-01  0.62628544693E-01  0.51100000000E-03 0.  1.
         11    1    4    4    0    0  0.31681414253E-01 -0.53531029014E-01  0.29216229407E-01  0.68725048258E-01  0.51100000000E-03 0. -1.
</event>
<event>
 8    1  0.9956970E+004  0.1043930E+01  0.7957747E-01            NaN
         13   -1    0    0    0    0  0.00000000000E+00  0.00000000000E+00  0.74505805969E-08  0.10566000000E+00  0.10566000000E+00 0.  1.
     999900   -1    0    0    0    0 -0.00000000000E+00 -0.00000000000E+00 -0.74505805969E-08  0.93827000000E+00  0.93827000000E+00 0. -1.
     999902    2    1    2    0    0 -0.33235630523E-01 -0.39947916704E-02 -0.26164837766E-02  0.10103530513E+01  0.10097949677E+01 0.  0.
     999903    2    3    3    0    0 -0.44096663206E-01  0.11136324495E+00  0.16452861876E-01  0.12255291693E+00  0.20055741140E-01 0.  0.
         14    1    1    2    0    0  0.33235630523E-01  0.39947916704E-02  0.26164837766E-02  0.33576948702E-01  0.00000000000E+00 0. -1.
     999901    1    3    3    0    0  0.10861032683E-01 -0.11535803662E+00 -0.19069345653E-01  0.88780013437E+00  0.88000000000E+00 0. -1.
        -11    1    4    4    0    0 -0.80057420115E-03  0.19924826724E-01  0.60640065896E-02  0.20848811380E-01  0.51100000000E-03 0.  1.
         11    1    4    4    0    0 -0.43296089005E-01  0.91438418223E-01  0.10388855286E-01  0.10170410555E+00  0.51100000000E-03 0. -1.
</event>
<event>
 8    1  0.9956970E+004  0.1043930E+01  0.7957747E-01            NaN
         13   -1    0    0    0    0  0.00000000000E+00  0.00000000000E+00  0.74505805969E-08  0.10566000000E+00  0.10566000000E+00 0.  1.
     999900   -1    0    0    0    0 -0.00000000000E+00 -0.00000000000E+00 -0.74505805969E-08  0.93827000000E+00  0.93827000000E+00 0.  1.
     999902    2    1    2    0    0  0.72615608574E-02 -0.21679835537E-01  0.10723154017E-01  0.10186766524E+01  0.10183635846E+01 0.  0.
     999903    2    3    3    0    0 -0.63959506047E-01 -0.45362741113E-01 -0.99359692516E-01  0.12864769020E+00  0.23006151367E-01 0.  0.
         14    1    1    2    0    0 -0.72615608574E-02  0.21679835537E-01 -0.10723154017E-01  0.25253347641E-01  0.00000000000E+00 0. -1.
     999901    1    3    3    0    0  0.71221066905E-01  0.23682905576E-01  0.11008284653E+00  0.89002896216E+00  0.88000000000E+00 0. -1.
        -11    1    4    4    0    0 -0.52243069555E-01 -0.28637039610E-01 -0.61488131240E-01  0.85618162551E-01  0.51100000000E-03 0.  1.
         11    1    4    4    0    0 -0.11716436492E-01 -0.16725701504E-01 -0.37871561277E-01  0.43029527646E-01  0.51100000000E-03 0. -1.
</event>
<event>
 8    1  0.9956970E+004  0.1043930E+01  0.7957747E-01            NaN
         13   -1    0    0    0    0  0.00000000000E+00  0.00000000000E+00  0.74505805969E-08  0.10566000000E+00  0.10566000000E+00 0. -1.
     999900   -1    0    0    0    0 -0.00000000000E+00 -0.00000000000E+00 -0.74505805969E-08  0.93827000000E+00  0.93827000000E+00 0.  1.
     999902    2    1    2    0    0  0.18449173637E-01 -0.66884366700E-02  0.15256876017E-01  0.10190728188E+01  0.10187696160E+01 0.  0.
     999903    2    3    3    0    0 -0.66583873001E-01 -0.33185262746E-01  0.10488027633E+00  0.13004804144E+00  0.19440856808E-01 0.  0.
         14    1    1    2    0    0 -0.18449173637E-01  0.66884366700E-02 -0.15256876017E-01  0.24857181232E-01  0.00000000000E+00 0.  1.
     999901    1    3    3    0    0  0.85033046638E-01  0.26496826076E-01 -0.89623400311E-01  0.88902477732E+00  0.88000000000E+00 0.  1.
        -11    1    4    4    0    0 -0.36675571240E-01 -0.23966693277E-01  0.47062153391E-01  0.64300912242E-01  0.51100000000E-03 0.  1.
         11    1    4    4    0    0 -0.29908301762E-01 -0.92185694686E-02  0.57818122937E-01  0.65747129202E-01  0.51100000000E-03 0. -1.
</event>
<event>
 8    1  0.9956970E+004  0.1043930E+01  0.7957747E-01            NaN
         13   -1    0    0    0    0  0.00000000000E+00  0.00000000000E+00  0.74505805969E-08  0.10566000000E+00  0.10566000000E+00 0.  1.
     999900   -1    0    0    0    0 -0.00000000000E+00 -0.00000000000E+00 -0.74505805969E-08  0.93827000000E+00  0.93827000000E+00 0.  1.
     999902    2    1    2    0    0  0.13585866215E-01  0.16444528191E-01  0.10645259368E-01  0.10200905408E+01  0.10198119393E+01 0.  0.
     999903    2    3    3    0    0 -0.92260410140E-01  0.44185553649E-01  0.78512455669E-01  0.13072056432E+00  0.21431607767E-01 0.  0.
         14    1    1    2    0    0 -0.13585866215E-01 -0.16444528191E-01 -0.10645259368E-01  0.23839459207E-01  0.00000000000E+00 0.  1.
     999901    1    3    3    0    0  0.10584627636E+00 -0.27741025459E-01 -0.67867196301E-01  0.88936997647E+00  0.88000000000E+00 0. -1.
        -11    1    4    4    0    0 -0.57686295221E-02  0.31547805612E-02  0.13426775960E-01  0.14958915757E-01  0.51100000000E-03 0.  1.
         11    1    4    4    0    0 -0.86491780618E-01  0.41030773088E-01  0.65085679709E-01  0.11576164857E+00  0.51100000000E-03 0. -1.
</event>
<event>
 7    1  0.9956970E+004  0.1043930E+01  0.7957747E-01            NaN
         13   -1    0    0    0    0  0.00000000000E+00  0.00000000000E+00  0.74505805969E-08  0.10566000000E+00  0.10566000000E+00 0. -1.
     999900   -1    0    0    0    0 -0.00000000000E+00 -0.00000000000E+00 -0.74505805969E-08  0.93827000000E+00  0.93827000000E+00 0. -1.
     999903    2    1    2    0    0 -0.87466749114E-02 -0.11689427767E+00  0.47958308969E-02  0.11899383616E+00  0.19893631547E-01 0.  0.
         14    1    1    2    0    0  0.83980986053E-02  0.24933643338E-01  0.29438461966E-01  0.39482118398E-01  0.00000000000E+00 0. -1.
     999901    1    1    2    0    0  0.34857630609E-03  0.91960634337E-01 -0.34234292863E-01  0.88545404544E+00  0.88000000000E+00 0. -1.
        -11    1    3    3    0    0 -0.97392441968E-02 -0.65151328720E-01  0.11274064103E-01  0.66834977025E-01  0.51100000000E-03 0.  1.
         11    1    3    3    0    0  0.99256928541E-03 -0.51742948955E-01 -0.64782332060E-02  0.52158859140E-01  0.51100000000E-03 0. -1.
</event>
<event>
 8    1  0.9956970E+004  0.1043930E+01  0.7957747E-01            NaN
         13   -1    0    0    0    0  0.00000000000E+00  0.00000000000E+00  0.74505805969E-08  0.10566000000E+00  0.10566000000E+00 0.  1.
     999900   -1    0    0    0    0 -0.00000000000E+00 -0.00000000000E+00 -0.74505805969E-08  0.93827000000E+00  0.93827000000E+00 0.  1.
     999902    2    1    2    0    0 -0.20484760328E-01  0.10840419209E-01  0.58547085974E-02  0.10200256551E+01  0.10197455169E+01 0.  0.
     999903    2    3    3    0    0 -0.28104318098E-01  0.87146338244E-01 -0.91948078873E-01  0.13129282896E+00  0.19975504096E-01 0.  0.
         14    1    1    2    0    0  0.20484760328E-01 -0.10840419209E-01 -0.58547085974E-02  0.23904344941E-01  0.00000000000E+00 0.  1.
     999901    1    3    3    0    0  0.76195577700E-02 -0.76305919035E-01  0.97802787471E-01  0.88873282609E+00  0.88000000000E+00 0. -1.
        -11    1    4    4    0    0 -0.30874592450E-02  0.19356056035E-01 -0.31396082698E-01  0.37015732325E-01  0.51100000000E-03 0.  1.
         11    1    4    4    0    0 -0.25016858853E-01  0.67790282209E-01 -0.60551996176E-01  0.94277096639E-01  0.51100000000E-03 0. -1.
</event>
<event>
 8    1  0.9956970E+004  0.1043930E+01  0.7957747E-01            NaN
         13   -1    0    0    0    0  0.00000000000E+00  0.00000000000E+00  0.74505805969E-08  0.10566000000E+00  0.10566000000E+00 0. -1.
     999900   -1    0    0    0    0 -0.00000000000E+00 -0.00000000000E+00 -0.74505805969E-08  0.93827000000E+00  0.93827000000E+00 0.  1.
     999902    2    1    2    0    0  0.19100702987E-01  0.12980062268E-01  0.31021404411E-02  0.10206288810E+01  0.10203628622E+01 0.  0.
     999903    2    3    3    0    0  0.36587086771E-01 -0.31658060838E-02 -0.12438154935E+00  0.13112421331E+00  0.19343015604E-01 0.  0.
         14    1    1    2    0    0 -0.19100702987E-01 -0.12980062268E-01 -0.31021404411E-02  0.23301118995E-01  0.00000000000E+00 0. -1.
     999901    1    3    3    0    0 -0.17486383784E-01  0.16145868352E-01  0.12748368979E+00  0.88950466769E+00  0.88000000000E+00 0. -1.
        -11    1    4    4    0    0  0.16056995437E-01 -0.22761395923E-02 -0.26226652767E-01  0.30840012164E-01  0.51100000000E-03 0.  1.
         11    1    4    4    0    0  0.20530091334E-01 -0.88966649147E-03 -0.98154896580E-01  0.10028420115E+00  0.51100000000E-03 0. -1.
</event>
<event>
 8    1  0.9956970E+004  0.1043930E+01  0.7957747E-01            NaN
         13   -1    0    0    0    0  0.00000000000E+00  0.00000000000E+00  0.74505805969E-08  0.10566000000E+00  0.10566000000E+00 0. -1.
     999900   -1    0    0    0    0 -0.00000000000E+00 -0.00000000000E+00 -0.74505805969E-08  0.93827000000E+00  0.93827000000E+00 0. -1.
     999902    2    1    2    0    0  0.10547075898E-02 -0.23387400426E-01 -0.58772805348E-03  0.10205114533E+01  0.10202427152E+01 0.  0.
     999903    2    3    3    0    0  0.47484364116E-01  0.11645977169E+00 -0.14355794875E-01  0.12815361909E+00  0.19990447243E-01 0.  0.
         14    1    1    2    0    0 -0.10547075898E-02  0.23387400426E-01  0.58772805348E-03  0.23418546733E-01  0.00000000000E+00 0. -1.
     999901    1    3    3    0    0 -0.46429656526E-01 -0.13984717212E+00  0.13768066822E-01  0.89235783418E+00  0.88000000000E+00 0.  1.
        -11    1    4    4    0    0  0.96969876938E-02  0.11089342964E-01 -0.59520972220E-02  0.15896341719E-01  0.51100000000E-03 0. -1.
         11    1    4    4    0    0  0.37787376422E-01  0.10537042873E+00 -0.84036976531E-02  0.11225727737E+00  0.51100000000E-03 0.  1.
</event>
<event>
 8    1  0.9956970E+004  0.1043930E+01  0.7957747E-01            NaN
         13   -1    0    0    0    0  0.00000000000E+00  0.00000000000E+00  0.74505805969E-08  0.10566000000E+00  0.10566000000E+00 0. -1.
     999900   -1    0    0    0    0 -0.00000000000E+00 -0.00000000000E+00 -0.74505805969E-08  0.93827000000E+00  0.93827000000E+00 0.  1.
     999902    2    1    2    0    0 -0.12383778941E-01  0.86383264266E-02  0.15144476869E-01  0.10225446348E+01  0.10223209850E+01 0.  0.
     999903    2    3    3    0    0  0.11325656313E+00 -0.53979315940E-01 -0.28892062423E-01  0.13033071345E+00  0.20261489477E-01 0.  0.
         14    1    1    2    0    0  0.12383778941E-01 -0.86383264266E-02 -0.15144476869E-01  0.21385365181E-01  0.00000000000E+00 0.  1.
     999901    1    3    3    0    0 -0.12564034207E+00  0.62617642367E-01  0.44036539292E-01  0.89221392137E+00  0.88000000000E+00 0. -1.
        -11    1    4    4    0    0  0.11168825649E+00 -0.54693909635E-01 -0.26197450115E-01  0.12709153356E+00  0.51100000000E-03 0.  1.
         11    1    4    4    0    0  0.15683066395E-02  0.71459369544E-03 -0.26946123083E-02  0.32391798896E-02  0.51100000000E-03 0. -1.
</event>
<event>
 8    1  0.9956970E+004  0.1043930E+01  0.7957747E-01            NaN
         13   -1    0    0    0    0  0.00000000000E+00  0.00000000000E+00  0.74505805969E-08  0.10566000000E+00  0.10566000000E+00 0.  1.
     999900   -1    0    0    0    0 -0.00000000000E+00 -0.00000000000E+00 -0.74505805969E-08  0.93827000000E+00  0.93827000000E+00 0. -1.
     999902    2    1    2    0    0 -0.19477955498E-01 -0.48122806910E-02 -0.16581307266E-01  0.10179013898E+01  0.10175685485E+01 0.  0.
     999903    2    3    3    0    0  0.14366429443E-01 -0.99580270368E-01 -0.79808496428E-01  0.12991259954E+00  0.19628114432E-01 0.  0.
         14    1    1    2    0    0  0.19477955498E-01  0.48122806910E-02  0.16581307266E-01  0.26028610152E-01  0.00000000000E+00 0. -1.
     999901    1    3    3    0    0 -0.33844384940E-01  0.94767989677E-01  0.63227189162E-01  0.88798879031E+00  0.88000000000E+00 0.  1.
        -11    1    4    4    0    0  0.24357393694E-02 -0.31816766606E-01 -0.37057215440E-01  0.48905396438E-01  0.51100000000E-03 0.  1.
         11    1    4    4    0    0  0.11930690074E-01 -0.67763503761E-01 -0.42751280988E-01  0.81007203104E-01  0.51100000000E-03 0. -1.
</event>
<event>
 8    1  0.9956970E+004  0.1043930E+01  0.7957747E-01            NaN
         13   -1    0    0    0    0  0.00000000000E+00  0.00000000000E+00  0.74505805969E-08  0.10566000000E+00  0.10566000000E+00 0.  1.
     999900   -1    0    0    0    0 -0.00000000000E+00 -0.00000000000E+00 -0.74505805969E-08  0.93827000000E+00  0.93827000000E+00 0.  1.
     999902    2    1    2    0    0  0.11235651614E-01 -0.17276765326E-01  0.12785165138E-01  0.10196774345E+01  0.10193889755E+01 0.  0.
     999903    2    3    3    0    0  0.17966833364E-01  0.60494050764E-01  0.11267279843E+00  0.13059299083E+00  0.19417323923E-01 0.  0.
         14    1    1    2    0    0 -0.11235651614E-01  0.17276765326E-01 -0.12785165138E-01  0.24252565532E-01  0.00000000000E+00 0. -1.
     999901    1    3    3    0    0 -0.67311817505E-02 -0.77770816089E-01 -0.99887633289E-01  0.88908444364E+00  0.88000000000E+00 0.  1.
        -11    1    4    4    0    0  0.17922192205E-01  0.30960197231E-01  0.52094172934E-01  0.63196540733E-01  0.51100000000E-03 0.  1.
         11    1    4    4    0    0  0.44641159282E-04  0.29533853533E-01  0.60578625493E-01  0.67396450092E-01  0.51100000000E-03 0. -1.
</event>
<event>
 8    1  0.9956970E+004  0.1043930E+01  0.7957747E-01            NaN
         13   -1    0    0    0    0  0.00000000000E+00  0.00000000000E+00  0.74505805969E-08  0.10566000000E+00  0.10566000000E+00 0. -1.
     999900   -1    0    0    0    0 -0.00000000000E+00 -0.00000000000E+00 -0.74505805969E-08  0.93827000000E+00  0.93827000000E+00 0. -1.
     999902    2    1    2    0    0 -0.94494599529E-02 -0.13463887045E-01  0.81389764729E-02  0.10255775755E+01  0.10254133566E+01 0.  0.
     999903    2    3    3    0    0  0.10685685382E+00 -0.25151657888E-02  0.79955607196E-01  0.13495719531E+00  0.19895531558E-01 0.  0.
         14    1    1    2    0    0  0.94494599529E-02  0.13463887045E-01 -0.81389764729E-02  0.18352424521E-01  0.00000000000E+00 0.  1.
     999901    1    3    3    0    0 -0.11630631378E+00 -0.10948721257E-01 -0.71816630724E-01  0.89062038017E+00  0.88000000000E+00 0. -1.
        -11    1    4    4    0    0  0.10619657602E+00 -0.46875185970E-02  0.78995963667E-01  0.13243983157E+00  0.51100000000E-03 0.  1.
         11    1    4    4    0    0  0.66027779970E-03  0.21723528082E-02  0.95964352926E-03  0.25173637400E-02  0.51100000000E-03 0. -1.
</event>
<event>
 8    1  0.9956970E+004  0.1043930E+01  0.7957747E-01            NaN
         13   -1    0    0    0    0  0.00000000000E+00  0.00000000000E+00  0.74505805969E-08  0.10566000000E+00  0.10566000000E+00 0.  1.
     999900   -1    0    0    0    0 -0.00000000000E+00 -0.00000000000E+00 -0.74505805969E-08  0.93827000000E+00  0.93827000000E+00 0.  1.
     999902    2    1    2    0    0  0.25669867714E-01  0.35473285302E-02  0.58805342673E-02  0.10173573386E+01  0.10170102498E+01 0.  0.
     999903    2    3    3    0    0  0.87736515984E-01 -0.45631914663E-01  0.82486618711E-01  0.13048679625E+00  0.21042667552E-01 0.  0.
         14    1    1    2    0    0 -0.25669867714E-01 -0.35473285302E-02 -0.58805342673E-02  0.26572661354E-01  0.00000000000E+00 0.  1.
     999901    1    3    3    0    0 -0.62066648270E-01  0.49179243193E-01 -0.76606084444E-01  0.88687054239E+00  0.88000000000E+00 0. -1.
        -11    1    4    4    0    0  0.64259182519E-01 -0.22412618598E-01  0.54137941418E-01  0.86964049080E-01  0.51100000000E-03 0. -1.
         11    1    4    4    0    0  0.23477333465E-01 -0.23219296065E-01  0.28348677293E-01  0.43522747175E-01  0.51100000000E-03 0.  1.
</event>
<event>
 8    1  0.9956970E+004  0.1043930E+01  0.7957747E-01            NaN
         13   -1    0    0    0    0  0.00000000000E+00  0.00000000000E+00  0.74505805969E-08  0.10566000000E+00  0.10566000000E+00 0.  1.
     999900   -1    0    0    0    0 -0.00000000000E+00 -0.00000000000E+00 -0.74505805969E-08  0.93827000000E+00  0.93827000000E+00 0. -1.
     999902    2    1    2    0    0 -0.13015972768E-01 -0.68959318290E-02  0.17210462106E-01  0.10212767568E+01  0.10210254867E+01 0.  0.
     999903    2    3    3    0    0 -0.11044705406E+00 -0.26036172831E-01 -0.64386412522E-01  0.13194149132E+00  0.19659933035E-01 0.  0.
         14    1    1    2    0    0  0.13015972768E-01  0.68959318290E-02 -0.17210462106E-01  0.22653243228E-01  0.00000000000E+00 0. -1.
     999901    1    3    3    0    0  0.97431081297E-01  0.19140241002E-01  0.81596874627E-01  0.88933526545E+00  0.88000000000E+00 0.  1.
        -11    1    4    4    0    0 -0.11462357593E-01 -0.39469863416E-02 -0.14526789062E-01  0.18927574177E-01  0.51100000000E-03 0.  1.
         11    1    4    4    0    0 -0.98984696471E-01 -0.22089186489E-01 -0.49859623460E-01  0.11301391714E+00  0.51100000000E-03 0. -1.
</event>
<event>
 8    1  0.9956970E+004  0.1043930E+01  0.7957747E-01            NaN
         13   -1    0    0    0    0  0.00000000000E+00  0.00000000000E+00  0.74505805969E-08  0.10566000000E+00  0.10566000000E+00 0.  1.
     999900   -1    0    0    0    0 -0.00000000000E+00 -0.00000000000E+00 -0.74505805969E-08  0.93827000000E+00  0.93827000000E+00 0.  1.
     999902    2    1    2    0    0  0.98985238318E-02  0.17455386205E-01 -0.12399218162E-01  0.10203416153E+01  0.10200689193E+01 0.  0.
     999903    2    3    3    0    0 -0.21572495235E-01  0.10394732410E+00 -0.76977573894E-01  0.13318793956E+00  0.23303682593E-01 0.  0.
         14    1    1    2    0    0 -0.98985238318E-02 -0.17455386205E-01  0.12399218162E-01  0.23588384697E-01  0.00000000000E+00 0. -1.
     999901    1    3    3    0    0  0.31471019067E-01 -0.86491937895E-01  0.64578355732E-01  0.88715367575E+00  0.88000000000E+00 0. -1.
        -11    1    4    4    0    0 -0.18532033298E-01  0.34430307458E-01 -0.27823680386E-01  0.47992714458E-01  0.51100000000E-03 0. -1.
         11    1    4    4    0    0 -0.30404619372E-02  0.69517016641E-01 -0.49153893508E-01  0.85195225098E-01  0.51100000000E-03 0.  1.
</event>
<event>
 8    1  0.9956970E+004  0.1043930E+01  0.7957747E-01            NaN
         13   -1    0    0    0    0  0.00000000000E+00  0.00000000000E+00  0.74505805969E-08  0.10566000000E+00  0.10566000000E+00 0. -1.
     999900   -1    0    0    0    0 -0.00000000000E+00 -0.00000000000E+00 -0.74505805969E-08  0.93827000000E+00  0.93827000000E+00 0.  1.
     999902    2    1    2    0    0 -0.80198410384E-02  0.14362254024E-01 -0.17778379792E-01  0.10197088733E+01  0.10194211707E+01 0.  0.
     999903    2    3    3    0    0  0.12598718407E-01  0.96565998634E-01  0.83825968744E-01  0.12981785510E+00  0.18497639551E-01 0.  0.
         14    1    1    2    0    0  0.80198410384E-02 -0.14362254024E-01  0.17778379792E-01  0.24221126707E-01  0.00000000000E+00 0. -1.
     999901    1    3    3    0    0 -0.20618559446E-01 -0.82203744610E-01 -0.10160434854E+00  0.88989101819E+00  0.88000000000E+00 0.  1.
        -11    1    4    4    0    0  0.11189187527E-01  0.23451978708E-01  0.21318735479E-01  0.33614622210E-01  0.51100000000E-03 0. -1.
         11    1    4    4    0    0  0.14095308805E-02  0.73114019925E-01  0.62507233264E-01  0.96203232889E-01  0.51100000000E-03 0.  1.
</event>
<event>
 8    1  0.9956970E+004  0.1043930E+01  0.7957747E-01            NaN
         13   -1    0    0    0    0  0.00000000000E+00  0.00000000000E+00  0.74505805969E-08  0.10566000000E+00  0.10566000000E+00 0. -1.
     999900   -1    0    0    0    0 -0.00000000000E+00 -0.00000000000E+00 -0.74505805969E-08  0.93827000000E+00  0.93827000000E+00 0.  1.
     999902    2    1    2    0    0 -0.22305864063E-01 -0.51605763960E-02  0.54910870760E-02  0.10203856767E+01  0.10201140104E+01 0.  0.
     999903    2    3    3    0    0 -0.57225467241E-01 -0.89230364355E-01 -0.76346984173E-01  0.13191250448E+00  0.18309418905E-01 0.  0.
         14    1    1    2    0    0  0.22305864063E-01  0.51605763960E-02 -0.54910870760E-02  0.23544323257E-01  0.00000000000E+00 0. -1.
     999901    1    3    3    0    0  0.34919603178E-01  0.84069787959E-01  0.81838071249E-01  0.88847317227E+00  0.88000000000E+00 0. -1.
        -11    1    4    4    0    0 -0.51389511784E-01 -0.67059145845E-01 -0.62880834351E-01  0.10531890340E+00  0.51100000000E-03 0.  1.
         11    1    4    4    0    0 -0.58359554571E-02 -0.22171218510E-01 -0.13466149823E-01  0.26593601080E-01  0.51100000000E-03 0. -1.
</event>
<event>
 8    1  0.9956970E+004  0.1043930E+01  0.7957747E-01            NaN
         13   -1    0    0    0    0  0.00000000000E+00  0.00000000000E+00  0.74505805969E-08  0.10566000000E+00  0.10566000000E+00 0.  1.
     999900   -1    0    0    0    0 -0.00000000000E+00 -0.00000000000E+00 -0.74505805969E-08  0.93827000000E+00  0.93827000000E+00 0.  1.
     999902    2    1    2    0    0  0.48788291872E-02 -0.17623165872E-01  0.14222844205E-01  0.10207638988E+01  0.10205009891E+01 0.  0.
     999903    2    3    3    0    0  0.15269405114E-01 -0.11131283116E-02 -0.12690408772E+00  0.12930590405E+00  0.19518595146E-01 0.  0.
         14    1    1    2    0    0 -0.48788291872E-02  0.17623165872E-01 -0.14222844205E-01  0.23166101244E-01  0.00000000000E+00 0.  1.
     999901    1    3    3    0    0 -0.10390575927E-01 -0.16510037560E-01  0.14112693192E+00  0.89145799470E+00  0.88000000000E+00 0. -1.
        -11    1    4    4    0    0 -0.22440001635E-02 -0.60788808389E-02 -0.38614454052E-01  0.39157700542E-01  0.51100000000E-03 0.  1.
         11    1    4    4    0    0  0.17513405278E-01  0.49657525273E-02 -0.88289633664E-01  0.90148203510E-01  0.51100000000E-03 0. -1.
</event>
<event>
 8    1  0.9956970E+004  0.1043930E+01  0.7957747E-01            NaN
         13   -1    0    0    0    0  0.00000000000E+00  0.00000000000E+00  0.74505805969E-08  0.10566000000E+00  0.10566000000E+00 0.  1.
     999900   -1    0    0    0    0 -0.00000000000E+00 -0.00000000000E+00 -0.74505805969E-08  0.93827000000E+00  0.93827000000E+00 0. -1.
     999902    2    1    2    0    0  0.12630589386E-01  0.18288609985E-01 -0.75227562717E-02  0.10204651986E+01  0.10201953855E+01 0.  0.
     999903    2    3    3    0    0  0.44282676784E-01 -0.44960871796E-01 -0.11051585906E+00  0.13164017036E+00  0.33659231919E-01 0.  0.
         14    1    1    2    0    0 -0.12630589386E-01 -0.18288609985E-01  0.75227562717E-02  0.23464801412E-01  0.00000000000E+00 0.  1.
     999901    1    3    3    0    0 -0.31652087398E-01  0.63249481781E-01  0.10299310279E+00  0.88882502823E+00  0.88000000000E+00 0.  1.
        -11    1    4    4    0    0  0.27887439837E-01 -0.46476161171E-01 -0.75491498683E-01  0.92935301970E-01  0.51100000000E-03 0. -1.
         11    1    4    4    0    0  0.16395236947E-01  0.15152893751E-02 -0.35024360374E-01  0.38704868390E-01  0.51100000000E-03 0.  1.
</event>
<event>
 8    1  0.9956970E+004  0.1043930E+01  0.7957747E-01            NaN
         13   -1    0    0    0    0  0.00000000000E+00  0.00000000000E+00  0.74505805969E-08  0.10566000000E+00  0.10566000000E+00 0. -1.
     999900   -1    0    0    0    0 -0.00000000000E+00 -0.00000000000E+00 -0.74505805969E-08  0.93827000000E+00  0.93827000000E+00 0. -1.
     999902    2    1    2    0    0 -0.18684515684E-01  0.16617815699E-01  0.15971371076E-02  0.10188737878E+01  0.10185656491E+01 0.  0.
     999903    2    3    3    0    0 -0.11402742909E+00  0.63873731643E-01  0.61887503619E-02  0.13245149808E+00  0.20566733659E-01 0.  0.
         14    1    1    2    0    0  0.18684515684E-01 -0.16617815699E-01 -0.15971371076E-02  0.25056212242E-01  0.00000000000E+00 0.  1.
     999901    1    3    3    0    0  0.95342913406E-01 -0.47255915944E-01 -0.45916132543E-02  0.88642228968E+00  0.88000000000E+00 0.  1.
        -11    1    4    4    0    0 -0.53771947693E-01  0.30996508045E-01 -0.72981883755E-02  0.62495844216E-01  0.51100000000E-03 0.  1.
         11    1    4    4    0    0 -0.60255481397E-01  0.32877223598E-01  0.13486938737E-01  0.69955653863E-01  0.51100000000E-03 0. -1.
</event>
<event>
 8    1  0.9956970E+004  0.1043930E+01  0.7957747E-01            NaN
         13   -1    0    0    0    0  0.00000000000E+00  0.00000000000E+00  0.74505805969E-08  0.10566000000E+00  0.10566000000E+00 0. -1.
     999900   -1    0    0    0    0 -0.00000000000E+00 -0.00000000000E+00 -0.74505805969E-08  0.93827000000E+00  0.93827000000E+00 0.  1.
     999902    2    1    2    0    0  0.10564019892E-01 -0.21219631940E-01  0.36309272181E-03  0.10202233948E+01  0.10199479262E+01 0.  0.
     999903    2    3    3    0    0  0.12932704417E+00 -0.64143009108E-03 -0.15682424720E-01  0.13186221992E+00  0.20391439665E-01 0.  0.
         14    1    1    2    0    0 -0.10564019892E-01  0.21219631940E-01 -0.36309272181E-03  0.23706605246E-01  0.00000000000E+00 0.  1.
     999901    1    3    3    0    0 -0.11876302427E+00 -0.20578201849E-01  0.16045517442E-01  0.88836117484E+00  0.88000000000E+00 0. -1.
        -11    1    4    4    0    0  0.57994891668E-01 -0.61935410783E-02  0.12338320015E-02  0.58339959488E-01  0.51100000000E-03 0.  1.
         11    1    4    4    0    0  0.71332152497E-01  0.55521109872E-02 -0.16916256721E-01  0.73522260430E-01  0.51100000000E-03 0. -1.
</event>
<event>
 8    1  0.9956970E+004  0.1043930E+01  0.7957747E-01            NaN
         13   -1    0    0    0    0  0.00000000000E+00  0.00000000000E+00  0.74505805969E-08  0.10566000000E+00  0.10566000000E+00 0. -1.
     999900   -1    0    0    0    0 -0.00000000000E+00 -0.00000000000E+00 -0.74505805969E-08  0.93827000000E+00  0.93827000000E+00 0.  1.
     999902    2    1    2    0    0 -0.11554149926E-01  0.12004199902E-01  0.11449507708E-01  0.10237139068E+01  0.10235142757E+01 0.  0.
     999903    2    3    3    0    0 -0.35818090097E-01 -0.12349933835E-01  0.12769257683E+00  0.13540409954E+00  0.24360204287E-01 0.  0.
         14    1    1    2    0    0  0.11554149926E-01 -0.12004199902E-01 -0.11449507708E-01  0.20216093158E-01  0.00000000000E+00 0. -1.
     999901    1    3    3    0    0  0.24263940171E-01  0.24354133737E-01 -0.11624306912E+00  0.88830980730E+00  0.88000000000E+00 0.  1.
        -11    1    4    4    0    0 -0.23586303787E-01 -0.11903070572E-01  0.11403799469E+00  0.11705948133E+00  0.51100000000E-03 0.  1.
         11    1    4    4    0    0 -0.12231786310E-01 -0.44686326257E-03  0.13654582138E-01  0.18344618216E-01  0.51100000000E-03 0. -1.
</event>
<event>
 8    1  0.9956970E+004  0.1043930E+01  0.7957747E-01            NaN
         13   -1    0    0    0    0  0.00000000000E+00  0.00000000000E+00  0.74505805969E-08  0.10566000000E+00  0.10566000000E+00 0.  1.
     999900   -1    0    0    0    0 -0.00000000000E+00 -0.00000000000E+00 -0.74505805969E-08  0.93827000000E+00  0.93827000000E+00 0. -1.
     999902    2    1    2    0    0  0.44695661307E-02 -0.19095930396E-01  0.13111379644E-01  0.10203389031E+01  0.10200661436E+01 0.  0.
     999903    2    3    3    0    0 -0.16648743739E-01  0.59617243708E-01 -0.11016890655E+00  0.12801621716E+00  0.20483346192E-01 0.  0.
         14    1    1    2    0    0 -0.44695661307E-02  0.19095930396E-01 -0.13111379644E-01  0.23591096949E-01  0.00000000000E+00 0. -1.
     999901    1    3    3    0    0  0.21118309870E-01 -0.78713174104E-01  0.12328028619E+00  0.89232268589E+00  0.88000000000E+00 0.  1.
        -11    1    4    4    0    0 -0.20096873411E-01  0.55965091784E-01 -0.95481827098E-01  0.11248562684E+00  0.51100000000E-03 0.  1.
         11    1    4    4    0    0  0.34481296716E-02  0.36521519235E-02 -0.14687079449E-01  0.15530590318E-01  0.51100000000E-03 0. -1.
</event>
<event>
 8    1  0.9956970E+004  0.1043930E+01  0.7957747E-01            NaN
         13   -1    0    0    0    0  0.00000000000E+00  0.00000000000E+00  0.74505805969E-08  0.10566000000E+00  0.10566000000E+00 0. -1.
     999900   -1    0    0    0    0 -0.00000000000E+00 -0.00000000000E+00 -0.74505805969E-08  0.93827000000E+00  0.93827000000E+00 0. -1.
     999902    2    1    2    0    0 -0.12492793522E-01  0.19493270060E-01  0.21043955165E-02  0.10206816463E+01  0.10204168448E+01 0.  0.
     999903    2    3    3    0    0  0.10121400380E+00 -0.27850399680E-01  0.72856258324E-01  0.12929144843E+00  0.19705961865E-01 0.  0.
         14    1    1    2    0    0  0.12492793522E-01 -0.19493270060E-01 -0.21043955165E-02  0.23248353665E-01  0.00000000000E+00 0. -1.
     999901    1    3    3    0    0 -0.11370679733E+00  0.47343669740E-01 -0.70751862808E-01  0.89139019790E+00  0.88000000000E+00 0.  1.
        -11    1    4    4    0    0  0.93398998448E-01 -0.29221184047E-01  0.62059596405E-01  0.11588315294E+00  0.51100000000E-03 0. -1.
         11    1    4    4    0    0  0.78150053552E-02  0.13707843673E-02  0.10796661919E-01  0.13408295495E-01  0.51100000000E-03 0.  1.
</event>
<event>
 8    1  0.9956970E+004  0.1043930E+01  0.7957747E-01            NaN
         13   -1    0    0    0    0  0.00000000000E+00  0.00000000000E+00  0.74505805969E-08  0.10566000000E+00  0.10566000000E+00 0.  1.
     999900   -1    0    0    0    0 -0.00000000000E+00 -0.00000000000E+00 -0.74505805969E-08  0.93827000000E+00  0.93827000000E+00 0.  1.
     999902    2    1    2    0    0 -0.54744008133E-02  0.96057989207E-02  0.21032254296E-01  0.10201687678E+01  0.10198920132E+01 0.  0.
     999903    2    3    3    0    0  0.12439374250E+00  0.25766391792E-01 -0.12756204453E-01  0.12984940968E+00  0.23673578614E-01 0.  0.
         14    1    1    2    0    0  0.54744008133E-02 -0.96057989207E-02 -0.21032254296E-01  0.23761232248E-01  0.00000000000E+00 0. -1.
     999901    1    3    3    0    0 -0.12986814331E+00 -0.16160592871E-01  0.33788458749E-01  0.89031935807E+00  0.88000000000E+00 0. -1.
        -11    1    4    4    0    0  0.34050143506E-01  0.70910566333E-02  0.70513133070E-02  0.35491935666E-01  0.51100000000E-03 0.  1.
         11    1    4    4    0    0  0.90343598991E-01  0.18675335159E-01 -0.19807517760E-01  0.94357474017E-01  0.51100000000E-03 0. -1.
</event>
<event>
 8    1  0.9956970E+004  0.1043930E+01  0.7957747E-01            NaN
         13   -1    0    0    0    0  0.00000000000E+00  0.00000000000E+00  0.74505805969E-08  0.10566000000E+00  0.10566000000E+00 0. -1.
     999900   -1    0    0    0    0 -0.00000000000E+00 -0.00000000000E+00 -0.74505805969E-08  0.93827000000E+00  0.93827000000E+00 0.  1.
     999902    2    1    2    0    0 -0.23124309653E-01  0.51494439258E-02  0.20912524195E-02  0.10201471531E+01  0.10198698889E+01 0.  0.
     999903    2    3    3    0    0 -0.62475376573E-01 -0.11289409945E+00 -0.11630938818E-01  0.13128772489E+00  0.21282330686E-01 0.  0.
         14    1    1    2    0    0  0.23124309653E-01 -0.51494439258E-02 -0.20912524195E-02  0.23782846893E-01  0.00000000000E+00 0. -1.
     999901    1    3    3    0    0  0.39351066921E-01  0.11804354338E+00  0.13722191237E-01  0.88885942822E+00  0.88000000000E+00 0. -1.
        -11    1    4    4    0    0 -0.32579273225E-01 -0.64923745437E-01  0.36488713787E-02  0.72732916542E-01  0.51100000000E-03 0. -1.
         11    1    4    4    0    0 -0.29896103348E-01 -0.47970354016E-01 -0.15279810197E-01  0.58554808346E-01  0.51100000000E-03 0.  1.
</event>
<event>
 8    1  0.9956970E+004  0.1043930E+01  0.7957747E-01            NaN
         13   -1    0    0    0    0  0.00000000000E+00  0.00000000000E+00  0.74505805969E-08  0.10566000000E+00  0.10566000000E+00 0. -1.
     999900   -1    0    0    0    0 -0.00000000000E+00 -0.00000000000E+00 -0.74505805969E-08  0.93827000000E+00  0.93827000000E+00 0.  1.
     999902    2    1    2    0    0  0.68974152122E-02 -0.20381096698E-01 -0.12346797460E-01  0.10191226050E+01  0.10188206305E+01 0.  0.
     999903    2    3    3    0    0  0.10328693426E+00  0.49272788103E-02 -0.78357840319E-01  0.13104101470E+00  0.18420844926E-01 0.  0.
         14    1    1    2    0    0 -0.68974152122E-02  0.20381096698E-01  0.12346797460E-01  0.24807395001E-01  0.00000000000E+00 0. -1.
     999901    1    3    3    0    0 -0.96389519049E-01 -0.25308375508E-01  0.66011042859E-01  0.88808159030E+00  0.88000000000E+00 0. -1.
        -11    1    4    4    0    0  0.27974024939E-01  0.65542218637E-02 -0.14019803462E-01  0.31973737749E-01  0.51100000000E-03 0.  1.
         11    1    4    4    0    0  0.75312909322E-01 -0.16269430534E-02 -0.64338036857E-01  0.99067276948E-01  0.51100000000E-03 0. -1.
</event>
<event>
 8    1  0.9956970E+004  0.1043930E+01  0.7957747E-01            NaN
         13   -1    0    0    0    0  0.00000000000E+00  0.00000000000E+00  0.74505805969E-08  0.10566000000E+00  0.10566000000E+00 0.  1.
     999900   -1    0    0    0    0 -0.00000000000E+00 -0.00000000000E+00 -0.74505805969E-08  0.93827000000E+00  0.93827000000E+00 0.  1.
     999902    2    1    2    0    0 -0.19182024724E-01 -0.47321275785E-02 -0.11813796242E-01  0.10209102501E+01  0.10206506894E+01 0.  0.
     999903    2    3    3    0    0  0.11333847095E+00 -0.44154529928E-01  0.37203803353E-01  0.12876758625E+00  0.20043372345E-01 0.  0.
         14    1    1    2    0    0  0.19182024724E-01  0.47321275785E-02  0.11813796242E-01  0.23019749903E-01  0.00000000000E+00 0.  1.
     999901    1    3    3    0    0 -0.13252049567E+00  0.39422402349E-01 -0.49017599595E-01  0.89214266384E+00  0.88000000000E+00 0. -1.
        -11    1    4    4    0    0  0.81640382676E-01 -0.40096885771E-01  0.31784613034E-01  0.96350584216E-01  0.51100000000E-03 0.  1.
         11    1    4    4    0    0  0.31698088275E-01 -0.40576441567E-02  0.54191903186E-02  0.32417002037E-01  0.51100000000E-03 0. -1.
</event>
<event>
 8    1  0.9956970E+004  0.1043930E+01  0.7957747E-01            NaN
         13   -1    0    0    0    0  0.00000000000E+00  0.00000000000E+00  0.74505805969E-08  0.10566000000E+00  0.10566000000E+00 0. -1.
     999900   -1    0    0    0    0 -0.00000000000E+00 -0.00000000000E+00 -0.74505805969E-08  0.93827000000E+00  0.93827000000E+00 0.  1.
     999902    2    1    2    0    0  0.50539188738E-02  0.20683029132E-01  0.99133695766E-02  0.10204437341E+01  0.10201734214E+01 0.  0.
     999903    2    3    3    0    0  0.51094710371E-01 -0.45006302442E-01  0.11034476667E+00  0.13110616697E+00  0.19406771991E-01 0.  0.
         14    1    1    2    0    0 -0.50539188738E-02 -0.20683029132E-01 -0.99133695766E-02  0.23486265910E-01  0.00000000000E+00 0. -1.
     999901    1    3    3    0    0 -0.46040791497E-01  0.65689331574E-01 -0.10043139709E+00  0.88933756712E+00  0.88000000000E+00 0.  1.
        -11    1    4    4    0    0  0.34671883985E-01 -0.28597030727E-01  0.88330256615E-01  0.99108148304E-01  0.51100000000E-03 0.  1.
         11    1    4    4    0    0  0.16422826386E-01 -0.16409271715E-01  0.22014510056E-01  0.31998018669E-01  0.51100000000E-03 0. -1.
</event>
<event>
 8    1  0.9956970E+004  0.1043930E+01  0.7957747E-01            NaN
         13   -1    0    0    0    0  0.00000000000E+00  0.00000000000E+00  0.74505805969E-08  0.10566000000E+00  0.10566000000E+00 0. -1.
     999900   -1    0    0    0    0 -0.00000000000E+00 -0.00000000000E+00 -0.74505805969E-08  0.93827000000E+00  0.93827000000E+00 0.  1.
     999902    2    1    2    0    0 -0.78446492520E-02 -0.31313048815E-02 -0.22718024619E-01  0.10196925861E+01  0.10194044918E+01 0.  0.
     999903    2    3    3    0    0  0.99795502705E-01  0.18124106943E-03 -0.82626802511E-01  0.13110582218E+00  0.20059234949E-01 0.  0.
         14    1    1    2    0    0  0.78446492520E-02  0.31313048815E-02  0.22718024619E-01  0.24237413944E-01  0.00000000000E+00 0. -1.
     999901    1    3    3    0    0 -0.10764015196E+00 -0.33125459509E-02  0.59908777892E-01  0.88858676388E+00  0.88000000000E+00 0.  1.
        -11    1    4    4    0    0  0.85067057832E-01  0.73184776106E-02 -0.68061874081E-01  0.10919086165E+00  0.51100000000E-03 0.  1.
         11    1    4    4    0    0  0.14728444873E-01 -0.71372365412E-02 -0.14564928430E-01  0.21914960529E-01  0.51100000000E-03 0. -1.
</event>
<event>
 8    1  0.9956970E+004  0.1043930E+01  0.7957747E-01            NaN
         13   -1    0    0    0    0  0.00000000000E+00  0.00000000000E+00  0.74505805969E-08  0.10566000000E+00  0.10566000000E+00 0.  1.
     999900   -1    0    0    0    0 -0.00000000000E+00 -0.00000000000E+00 -0.74505805969E-08  0.93827000000E+00  0.93827000000E+00 0.  1.
     999902    2    1    2    0    0 -0.42133399961E-02  0.16790903200E-02  0.23554080832E-01  0.10199432057E+01  0.10196611087E+01 0.  0.
     999903    2    3    3    0    0  0.12369892578E+00  0.33814562850E-01  0.83946734251E-02  0.12998587863E+00  0.19519456986E-01 0.  0.
         14    1    1    2    0    0  0.42133399961E-02 -0.16790903200E-02 -0.23554080832E-01  0.23986794327E-01  0.00000000000E+00 0. -1.
     999901    1    3    3    0    0 -0.12791226577E+00 -0.32135472530E-01  0.15159407407E-01  0.88995732705E+00  0.88000000000E+00 0.  1.
        -11    1    4    4    0    0  0.54942743412E-01  0.50725748003E-02  0.26939201478E-02  0.55244496518E-01  0.51100000000E-03 0. -1.
         11    1    4    4    0    0  0.68756182367E-01  0.28741988050E-01  0.57007532772E-02  0.74741382109E-01  0.51100000000E-03 0.  1.
</event>
<event>
 8    1  0.9956970E+004  0.1043930E+01  0.7957747E-01            NaN
         13   -1    0    0    0    0  0.00000000000E+00  0.00000000000E+00  0.74505805969E-08  0.10566000000E+00  0.10566000000E+00 0.  1.
     999900   -1    0    0    0    0 -0.00000000000E+00 -0.00000000000E+00 -0.74505805969E-08  0.93827000000E+00  0.93827000000E+00 0.  1.
     999902    2    1    2    0    0  0.20666491036E-01  0.30501885457E-02  0.94485592476E-02  0.10210022270E+01  0.10207447599E+01 0.  0.
     999903    2    3    3    0    0  0.90701323576E-01 -0.75067693240E-01  0.59478246440E-01  0.13335913950E+00  0.19624210092E-01 0.  0.
         14    1    1    2    0    0 -0.20666491036E-01 -0.30501885457E-02 -0.94485592476E-02  0.22927772979E-01  0.00000000000E+00 0.  1.
     999901    1    3    3    0    0 -0.70034832539E-01  0.78117881786E-01 -0.50029687193E-01  0.88764308752E+00  0.88000000000E+00 0.  1.
        -11    1    4    4    0    0  0.46506308878E-01 -0.26567714457E-01  0.30385861783E-01  0.61581181656E-01  0.51100000000E-03 0.  1.
         11    1    4    4    0    0  0.44195014698E-01 -0.48499978783E-01  0.29092384657E-01  0.71777957843E-01  0.51100000000E-03 0. -1.
</event>
<event>
 8    1  0.9956970E+004  0.1043930E+01  0.7957747E-01            NaN
         13   -1    0    0    0    0  0.00000000000E+00  0.00000000000E+00  0.74505805969E-08  0.10566000000E+00  0.10566000000E+00 0. -1.
     999900   -1    0    0    0    0 -0.00000000000E+00 -0.00000000000E+00 -0.74505805969E-08  0.93827000000E+00  0.93827000000E+00 0.  1.
     999902    2    1    2    0    0 -0.13708886594E-01  0.14196647339E-01 -0.95039904836E-02  0.10220255666E+01  0.10217908076E+01 0.  0.
     999903    2    3    3    0    0 -0.13775613776E-01 -0.53672199153E-01  0.11643181186E+00  0.13047298201E+00  0.19908785175E-01 0.  0.
         14    1    1    2    0    0  0.13708886594E-01 -0.14196647339E-01  0.95039904836E-02  0.21904433396E-01  0.00000000000E+00 0. -1.
     999901    1    3    3    0    0  0.66727182022E-04  0.67868846492E-01 -0.12593580234E+00  0.89155258459E+00  0.88000000000E+00 0. -1.
        -11    1    4    4    0    0  0.32519015792E-02 -0.26002229803E-01  0.57041555931E-01  0.62774923677E-01  0.51100000000E-03 0.  1.
         11    1    4    4    0    0 -0.17027515355E-01 -0.27669969350E-01  0.59390255924E-01  0.67698058338E-01  0.51100000000E-03 0. -1.
</event>
<event>
 8    1  0.9956970E+004  0.1043930E+01  0.7957747E-01            NaN
         13   -1    0    0    0    0  0.00000000000E+00  0.00000000000E+00  0.74505805969E-08  0.10566000000E+00  0.10566000000E+00 0.  1.
     999900   -1    0    0    0    0 -0.00000000000E+00 -0.00000000000E+00 -0.74505805969E-08  0.93827000000E+00  0.93827000000E+00 0.  1.
     999902    2    1    2    0    0 -0.51399752156E-02 -0.45646909947E-02 -0.21900783979E-01  0.10209756957E+01  0.10207176255E+01 0.  0.
     999903    2    3    3    0    0 -0.95688709553E-01 -0.88885905305E-01  0.27839654092E-02  0.13197711448E+00  0.18792950430E-01 0.  0.
         14    1    1    2    0    0  0.51399752156E-02  0.45646909947E-02  0.21900783979E-01  0.22954304345E-01  0.00000000000E+00 0.  1.
     999901    1    3    3    0    0  0.90548734338E-01  0.84321214311E-01 -0.24684749388E-01  0.88899858117E+00  0.88000000000E+00 0.  1.
        -11    1    4    4    0    0 -0.82833351374E-02 -0.16454781399E-01  0.57104966706E-03  0.18438022958E-01  0.51100000000E-03 0.  1.
         11    1    4    4    0    0 -0.87405374416E-01 -0.72431123906E-01  0.22129157422E-02  0.11353909152E+00  0.51100000000E-03 0. -1.
</event>
<event>
 8    1  0.9956970E+004  0.1043930E+01  0.7957747E-01            NaN
         13   -1    0    0    0    0  0.00000000000E+00  0.00000000000E+00  0.74505805969E-08  0.10566000000E+00  0.10566000000E+00 0. -1.
     999900   -1    0    0    0    0 -0.00000000000E+00 -0.00000000000E+00 -0.74505805969E-08  0.93827000000E+00  0.93827000000E+00 0.  1.
     999902    2    1    2    0    0 -0.11519047689E-01  0.10050957124E-01  0.18825386715E-01  0.10196791158E+01  0.10193906974E+01 0.  0.
     999903    2    3    3    0    0  0.87200037419E-02  0.12111492150E+00 -0.42682635729E-01  0.13033775266E+00  0.20524612107E-01 0.  0.
         14    1    1    2    0    0  0.11519047689E-01 -0.10050957124E-01 -0.18825386715E-01  0.24250884185E-01  0.00000000000E+00 0.  1.
     999901    1    3    3    0    0 -0.20239051431E-01 -0.11106396437E+00  0.61508022444E-01  0.88934136315E+00  0.88000000000E+00 0. -1.
        -11    1    4    4    0    0  0.78552754865E-02  0.58880436519E-01 -0.10704623781E-01  0.60361090521E-01  0.51100000000E-03 0. -1.
         11    1    4    4    0    0  0.86472825539E-03  0.62234484980E-01 -0.31978011948E-01  0.69976662144E-01  0.51100000000E-03 0.  1.
</event>
<event>
 8    1  0.9956970E+004  0.1043930E+01  0.7957747E-01            NaN
         13   -1    0    0    0    0  0.00000000000E+00  0.00000000000E+00  0.74505805969E-08  0.10566000000E+00  0.10566000000E+00 0. -1.
     999900   -1    0    0    0    0 -0.00000000000E+00 -0.00000000000E+00 -0.74505805969E-08  0.93827000000E+00  0.93827000000E+00 0. -1.
     999902    2    1    2    0    0 -0.31692067435E-02  0.21165773515E-01 -0.86499046250E-02  0.10208463545E+01  0.10205853344E+01 0.  0.
     999903    2    3    3    0    0 -0.94204327239E-03  0.56997204116E-01 -0.11891458393E+00  0.13323881105E+00  0.19035066985E-01 0.  0.
         14    1    1    2    0    0  0.31692067435E-02 -0.21165773515E-01  0.86499046250E-02  0.23083645507E-01  0.00000000000E+00 0.  1.
     999901    1    3    3    0    0 -0.22271634711E-02 -0.35831430601E-01  0.11026467931E+00  0.88760754344E+00  0.88000000000E+00 0.  1.
        -11    1    4    4    0    0  0.13593036307E-02  0.83876555619E-02 -0.36924599244E-01  0.37893107850E-01  0.51100000000E-03 0. -1.
         11    1    4    4    0    0 -0.23013469031E-02  0.48609548554E-01 -0.81989984690E-01  0.95345703199E-01  0.51100000000E-03 0.  1.
</event>
<event>
 8    1  0.9956970E+004  0.1043930E+01  0.7957747E-01            NaN
         13   -1    0    0    0    0  0.00000000000E+00  0.00000000000E+00  0.74505805969E-08  0.10566000000E+00  0.10566000000E+00 0.  1.
     999900   -1    0    0    0    0 -0.00000000000E+00 -0.00000000000E+00 -0.74505805969E-08  0.93827000000E+00  0.93827000000E+00 0.  1.
     999902    2    1    2    0    0 -0.64032339227E-02 -0.22241172817E-01  0.41049177468E-02  0.10204242236E+01  0.10201534564E+01 0.  0.
     999903    2    3    3    0    0 -0.16185665015E-01 -0.98927627024E-01 -0.84831096303E-01  0.13256943662E+00  0.18157353509E-01 0.  0.
         14    1    1    2    0    0  0.64032339227E-02  0.22241172817E-01 -0.41049177468E-02  0.23505776368E-01  0.00000000000E+00 0. -1.
     999901    1    3    3    0    0  0.97824310927E-02  0.76686454206E-01  0.88936014049E-01  0.88785478701E+00  0.88000000000E+00 0. -1.
        -11    1    4    4    0    0 -0.15135768163E-01 -0.63162606713E-01 -0.63887608084E-01  0.91107046667E-01  0.51100000000E-03 0. -1.
         11    1    4    4    0    0 -0.10498968520E-02 -0.35765020310E-01 -0.20943488219E-01  0.41462389957E-01  0.51100000000E-03 0.  1.
</event>
<event>
 8    1  0.9956970E+004  0.1043930E+01  0.7957747E-01            NaN
         13   -1    0    0    0    0  0.00000000000E+00  0.00000000000E+00  0.74505805969E-08  0.10566000000E+00  0.10566000000E+00 0. -1.
     999900   -1    0    0    0    0 -0.00000000000E+00 -0.00000000000E+00 -0.74505805969E-08  0.93827000000E+00  0.93827000000E+00 0. -1.
     999902    2    1    2    0    0  0.19163004891E-01 -0.98145456207E-02  0.11784530282E-01  0.10193857295E+01  0.10190902042E+01 0.  0.
     999903    2    3    3    0    0  0.10670391507E+00  0.69349946757E-01  0.25918992381E-01  0.13139349367E+00  0.19932772186E-01 0.  0.
         14    1    1    2    0    0 -0.19163004891E-01  0.98145456207E-02 -0.11784530282E-01  0.24544270536E-01  0.00000000000E+00 0.  1.
     999901    1    3    3    0    0 -0.87540910178E-01 -0.79164492378E-01 -0.14134462099E-01  0.88799223579E+00  0.88000000000E+00 0.  1.
        -11    1    4    4    0    0  0.81629910686E-01  0.59510015860E-01  0.14196777128E-01  0.10201320458E+00  0.51100000000E-03 0. -1.
         11    1    4    4    0    0  0.25074004383E-01  0.98399308969E-02  0.11722215253E-01  0.29380289095E-01  0.51100000000E-03 0.  1.
</event>
<event>
 8    1  0.9956970E+004  0.1043930E+01  0.7957747E-01            NaN
         13   -1    0    0    0    0  0.00000000000E+00  0.00000000000E+00  0.74505805969E-08  0.10566000000E+00  0.10566000000E+00 0. -1.
     999900   -1    0    0    0    0 -0.00000000000E+00 -0.00000000000E+00 -0.74505805969E-08  0.93827000000E+00  0.93827000000E+00 0.  1.
     999902    2    1    2    0    0 -0.11238230236E-01 -0.12725851456E-02 -0.20550742138E-01  0.10204725855E+01  0.10202029443E+01 0.  0.
     999903    2    3    3    0    0 -0.12741657361E+00  0.20245798534E-01  0.17098507570E-01  0.13177808553E+00  0.20693701328E-01 0.  0.
         14    1    1    2    0    0  0.11238230236E-01  0.12725851456E-02  0.20550742138E-01  0.23457414482E-01  0.00000000000E+00 0. -1.
     999901    1    3    3    0    0  0.11617834338E+00 -0.21518383680E-01 -0.37649249708E-01  0.88869449999E+00  0.88000000000E+00 0.  1.
        -11    1    4    4    0    0 -0.91144766655E-01  0.19453383608E-01  0.42833769421E-02  0.93297433306E-01  0.51100000000E-03 0. -1.
         11    1    4    4    0    0 -0.36271806959E-01  0.79241492619E-03  0.12815130628E-01  0.38480652223E-01  0.51100000000E-03 0.  1.
</event>
<event>
 8    1  0.9956970E+004  0.1043930E+01  0.7957747E-01            NaN
         13   -1    0    0    0    0  0.00000000000E+00  0.00000000000E+00  0.74505805969E-08  0.10566000000E+00  0.10566000000E+00 0. -1.
     999900   -1    0    0    0    0 -0.00000000000E+00 -0.00000000000E+00 -0.74505805969E-08  0.93827000000E+00  0.93827000000E+00 0. -1.
     999902    2    1    2    0    0  0.19858316343E-01 -0.36448257352E-02  0.12998015340E-01  0.10199177972E+01  0.10196350951E+01 0.  0.
     999903    2    3    3    0    0  0.16709321279E-01 -0.81456686722E-01  0.10078273376E+00  0.13212798044E+00  0.19653258314E-01 0.  0.
         14    1    1    2    0    0 -0.19858316343E-01  0.36448257352E-02 -0.12998015340E-01  0.24012202843E-01  0.00000000000E+00 0.  1.
     999901    1    3    3    0    0  0.31489950639E-02  0.77811860987E-01 -0.87784718416E-01  0.88778981672E+00  0.88000000000E+00 0. -1.
        -11    1    4    4    0    0  0.20147663919E-01 -0.76170641417E-01  0.89913992496E-01  0.11955200602E+00  0.51100000000E-03 0. -1.
         11    1    4    4    0    0 -0.34383426404E-02 -0.52860453045E-02  0.10868741259E-01  0.12575974421E-01  0.51100000000E-03 0.  1.
</event>
<event>
 8    1  0.9956970E+004  0.1043930E+01  0.7957747E-01            NaN
         13   -1    0    0    0    0  0.00000000000E+00  0.00000000000E+00  0.74505805969E-08  0.10566000000E+00  0.10566000000E+00 0.  1.
     999900   -1    0    0    0    0 -0.00000000000E+00 -0.00000000000E+00 -0.74505805969E-08  0.93827000000E+00  0.93827000000E+00 0. -1.
     999902    2    1    2    0    0  0.59895809072E-02  0.17493095473E-01  0.15560027131E-01  0.10197639512E+01  0.10194775713E+01 0.  0.
     999903    2    3    3    0    0  0.45786672177E-01 -0.96797344589E-01 -0.66047287630E-01  0.12774048350E+00  0.22118807681E-01 0.  0.
         14    1    1    2    0    0 -0.59895809072E-02 -0.17493095473E-01 -0.15560027131E-01  0.24166048767E-01  0.00000000000E+00 0. -1.
     999901    1    3    3    0    0 -0.39797091269E-01  0.11429044006E+00  0.81607314761E-01  0.89202346773E+00  0.88000000000E+00 0. -1.
        -11    1    4    4    0    0  0.43775561504E-01 -0.73432464655E-01 -0.56141312519E-01  0.10227773337E+00  0.51100000000E-03 0.  1.
         11    1    4    4    0    0  0.20111106722E-02 -0.23364879934E-01 -0.99059751108E-02  0.25462750134E-01  0.51100000000E-03 0. -1.
</event>
<event>
 8    1  0.9956970E+004  0.1043930E+01  0.7957747E-01            NaN
         13   -1    0    0    0    0  0.00000000000E+00  0.00000000000E+00  0.74505805969E-08  0.10566000000E+00  0.10566000000E+00 0. -1.
     999900   -1    0    0    0    0 -0.00000000000E+00 -0.00000000000E+00 -0.74505805969E-08  0.93827000000E+00  0.93827000000E+00 0.  1.
     999902    2    1    2    0    0  0.15620607595E-01  0.30783897965E-02  0.17730221534E-01  0.10201005934E+01  0.10198222296E+01 0.  0.
     999903    2    3    3    0    0  0.57015956830E-01 -0.62112380271E-01 -0.96040770814E-01  0.12942262117E+00  0.20435706385E-01 0.  0.
         14    1    1    2    0    0 -0.15620607595E-01 -0.30783897965E-02 -0.17730221534E-01  0.23829406644E-01  0.00000000000E+00 0.  1.
     999901    1    3    3    0    0 -0.41395349235E-01  0.65190770068E-01  0.11377099235E+00  0.89067797219E+00  0.88000000000E+00 0. -1.
        -11    1    4    4    0    0  0.53469886210E-01 -0.50059843884E-01 -0.88008442433E-01  0.11450224348E+00  0.51100000000E-03 0.  1.
         11    1    4    4    0    0  0.35460706193E-02 -0.12052536387E-01 -0.80323283805E-02  0.14920377690E-01  0.51100000000E-03 0. -1.
</event>
<event>
 8    1  0.9956970E+004  0.1043930E+01  0.7957747E-01            NaN
         13   -1    0    0    0    0  0.00000000000E+00  0.00000000000E+00  0.74505805969E-08  0.10566000000E+00  0.10566000000E+00 0. -1.
     999900   -1    0    0    0    0 -0.00000000000E+00 -0.00000000000E+00 -0.74505805969E-08  0.93827000000E+00  0.93827000000E+00 0. -1.
     999902    2    1    2    0    0 -0.17917755728E-01  0.73818694514E-02 -0.13140867880E-01  0.10205158937E+01  0.10202472587E+01 0.  0.
     999903    2    3    3    0    0  0.21814399238E-01 -0.10879129305E+00 -0.65960490593E-01  0.13042333647E+00  0.18656015621E-01 0.  0.
         14    1    1    2    0    0  0.17917755728E-01 -0.73818694514E-02  0.13140867880E-01  0.23414106337E-01  0.00000000000E+00 0. -1.
     999901    1    3    3    0    0 -0.39732154966E-01  0.11617316250E+00  0.52819622713E-01  0.89009255719E+00  0.88000000000E+00 0. -1.
        -11    1    4    4    0    0  0.15888281089E-01 -0.50581333747E-01 -0.39965420029E-01  0.66395818533E-01  0.51100000000E-03 0. -1.
         11    1    4    4    0    0  0.59261181487E-02 -0.58209959306E-01 -0.25995070564E-01  0.64027517938E-01  0.51100000000E-03 0.  1.
</event>
<event>
 8    1  0.9956970E+004  0.1043930E+01  0.7957747E-01            NaN
         13   -1    0    0    0    0  0.00000000000E+00  0.00000000000E+00  0.74505805969E-08  0.10566000000E+00  0.10566000000E+00 0. -1.
     999900   -1    0    0    0    0 -0.00000000000E+00 -0.00000000000E+00 -0.74505805969E-08  0.93827000000E+00  0.93827000000E+00 0.  1.
     999902    2    1    2    0    0  0.21187226551E-01  0.17947025957E-01 -0.13086315379E-01  0.10132339749E+01  0.10127688985E+01 0.  0.
     999903    2    3    3    0    0  0.80945346159E-01  0.95258565289E-01  0.15265510115E-01  0.12737172090E+00  0.19083400109E-01 0.  0.
         14    1    1    2    0    0 -0.21187226551E-01 -0.17947025957E-01  0.13086315379E-01  0.30696025147E-01  0.00000000000E+00 0.  1.
     999901    1    3    3    0    0 -0.59758119608E-01 -0.77311539332E-01 -0.28351825494E-01  0.88586225395E+00  0.88000000000E+00 0.  1.
        -11    1    4    4    0    0  0.40460180773E-01  0.61523522181E-01  0.62083339642E-02  0.73898406893E-01  0.51100000000E-03 0.  1.
         11    1    4    4    0    0  0.40485165386E-01  0.33735043109E-01  0.90571761512E-02  0.53473314005E-01  0.51100000000E-03 0. -1.
</event>
<event>
 8    1  0.9956970E+004  0.1043930E+01  0.7957747E-01            NaN
         13   -1    0    0    0    0  0.00000000000E+00  0.00000000000E+00  0.74505805969E-08  0.10566000000E+00  0.10566000000E+00 0. -1.
     999900   -1    0    0    0    0 -0.00000000000E+00 -0.00000000000E+00 -0.74505805969E-08  0.93827000000E+00  0.93827000000E+00 0.  1.
     999902    2    1    2    0    0  0.98335799290E-03 -0.23455281176E-01  0.10694179201E-02  0.10204297689E+01  0.10201591309E+01 0.  0.
     999903    2    3    3    0    0  0.65891717019E-01 -0.10922580171E-01 -0.11133286084E+00  0.13082062103E+00  0.16062622898E-01 0.  0.
         14    1    1    2    0    0 -0.98335799290E-03  0.23455281176E-01 -0.10694179201E-02  0.23500231119E-01  0.00000000000E+00 0.  1.
     999901    1    3    3    0    0 -0.64908359026E-01 -0.12532701005E-01  0.11240227876E+00  0.88960914785E+00  0.88000000000E+00 0. -1.
        -11    1    4    4    0    0  0.39630128771E-01 -0.54018340993E-02 -0.51224229811E-01  0.64991612988E-01  0.51100000000E-03 0. -1.
         11    1    4    4    0    0  0.26261588247E-01 -0.55207460717E-02 -0.60108631032E-01  0.65829008044E-01  0.51100000000E-03 0.  1.
</event>
<event>
 8    1  0.9956970E+004  0.1043930E+01  0.7957747E-01            NaN
         13   -1    0    0    0    0  0.00000000000E+00  0.00000000000E+00  0.74505805969E-08  0.10566000000E+00  0.10566000000E+00 0. -1.
     999900   -1    0    0    0    0 -0.00000000000E+00 -0.00000000000E+00 -0.74505805969E-08  0.93827000000E+00  0.93827000000E+00 0. -1.
     999902    2    1    2    0    0  0.22371161977E-01  0.48933150066E-02 -0.66711150203E-02  0.10200780149E+01  0.10197991171E+01 0.  0.
     999903    2    3    3    0    0 -0.58291676344E-01  0.10395090768E+00 -0.46356216697E-01  0.12996914092E+00  0.23224298185E-01 0.  0.
         14    1    1    2    0    0 -0.22371161977E-01 -0.48933150066E-02  0.66711150203E-02  0.23851985150E-01  0.00000000000E+00 0. -1.
     999901    1    3    3    0    0  0.80662838322E-01 -0.99057592676E-01  0.39685101677E-01  0.89010887393E+00  0.88000000000E+00 0.  1.
        -11    1    4    4    0    0 -0.31077157146E-01  0.48608813770E-01 -0.10544050118E-01  0.58651893288E-01  0.51100000000E-03 0. -1.
         11    1    4    4    0    0 -0.27214519199E-01  0.55342093913E-01 -0.35812166579E-01  0.71317247633E-01  0.51100000000E-03 0.  1.
</event>
<event>
 8    1  0.9956970E+004  0.1043930E+01  0.7957747E-01            NaN
         13   -1    0    0    0    0  0.00000000000E+00  0.00000000000E+00  0.74505805969E-08  0.10566000000E+00  0.10566000000E+00 0. -1.
     999900   -1    0    0    0    0 -0.00000000000E+00 -0.00000000000E+00 -0.74505805969E-08  0.93827000000E+00  0.93827000000E+00 0. -1.
     999902    2    1    2    0    0  0.14346720244E-01 -0.18534433534E-01 -0.25856154521E-02  0.10203495205E+01  0.10200770093E+01 0.  0.
     999903    2    3    3    0    0  0.61013147323E-01 -0.11694121632E+00  0.85803000105E-02  0.13356525809E+00  0.19188652918E-01 0.  0.
         14    1    1    2    0    0 -0.14346720244E-01  0.18534433534E-01  0.25856154521E-02  0.23580479542E-01  0.00000000000E+00 0.  1.
     999901    1    3    3    0    0 -0.46666427079E-01  0.98406782782E-01 -0.11165915463E-01  0.88678426237E+00  0.88000000000E+00 0. -1.
        -11    1    4    4    0    0  0.14985318970E-01 -0.41514714024E-01 -0.39614235198E-02  0.44316873338E-01  0.51100000000E-03 0.  1.
         11    1    4    4    0    0  0.46027828353E-01 -0.75426502292E-01  0.12541723530E-01  0.89248384753E-01  0.51100000000E-03 0. -1.
</event>
<event>
 8    1  0.9956970E+004  0.1043930E+01  0.7957747E-01            NaN
         13   -1    0    0    0    0  0.00000000000E+00  0.00000000000E+00  0.74505805969E-08  0.10566000000E+00  0.10566000000E+00 0.  1.
     999900   -1    0    0    0    0 -0.00000000000E+00 -0.00000000000E+00 -0.74505805969E-08  0.93827000000E+00  0.93827000000E+00 0.  1.
     999902    2    1    2    0    0 -0.41588497509E-02  0.21220254667E-01  0.79144778069E-02  0.10209031852E+01  0.10206434634E+01 0.  0.
     999903    2    3    3    0    0  0.32248599073E-01 -0.11884568758E+00  0.32100331553E-01  0.12875469645E+00  0.19572199027E-01 0.  0.
         14    1    1    2    0    0  0.41588497509E-02 -0.21220254667E-01 -0.79144778069E-02  0.23026814768E-01  0.00000000000E+00 0. -1.
     999901    1    3    3    0    0 -0.36407448824E-01  0.14006594225E+00 -0.24185853746E-01  0.89214848878E+00  0.88000000000E+00 0.  1.
        -11    1    4    4    0    0  0.27950205414E-01 -0.88896811416E-01  0.16250430825E-01  0.94594897778E-01  0.51100000000E-03 0.  1.
         11    1    4    4    0    0  0.42983936597E-02 -0.29948876163E-01  0.15849900729E-01  0.34159798676E-01  0.51100000000E-03 0. -1.
</event>
<event>
 8    1  0.9956970E+004  0.1043930E+01  0.7957747E-01            NaN
         13   -1    0    0    0    0  0.00000000000E+00  0.00000000000E+00  0.74505805969E-08  0.10566000000E+00  0.10566000000E+00 0. -1.
     999900   -1    0    0    0    0 -0.00000000000E+00 -0.00000000000E+00 -0.74505805969E-08  0.93827000000E+00  0.93827000000E+00 0. -1.
     999902    2    1    2    0    0  0.49575395278E-02  0.23875317507E-01  0.33783824924E-02  0.10193124970E+01  0.10190151840E+01 0.  0.
     999903    2    3    3    0    0 -0.12060149457E+00 -0.26066477315E-01 -0.28808167555E-01  0.12841675233E+00  0.20899043750E-01 0.  0.
         14    1    1    2    0    0 -0.49575395278E-02 -0.23875317507E-01 -0.33783824924E-02  0.24617502971E-01  0.00000000000E+00 0. -1.
     999901    1    3    3    0    0  0.12555903410E+00  0.49941794822E-01  0.32186550047E-01  0.89089574470E+00  0.88000000000E+00 0. -1.
        -11    1    4    4    0    0 -0.56607559160E-01 -0.31368308904E-02 -0.75896952764E-02  0.57202448002E-01  0.51100000000E-03 0. -1.
         11    1    4    4    0    0 -0.63993935411E-01 -0.22929646424E-01 -0.21218472278E-01  0.71214304331E-01  0.51100000000E-03 0.  1.
</event>
<event>
 8    1  0.9956970E+004  0.1043930E+01  0.7957747E-01            NaN
         13   -1    0    0    0    0  0.00000000000E+00  0.00000000000E+00  0.74505805969E-08  0.10566000000E+00  0.10566000000E+00 0. -1.
     999900   -1    0    0    0    0 -0.00000000000E+00 -0.00000000000E+00 -0.74505805969E-08  0.93827000000E+00  0.93827000000E+00 0. -1.
     999902    2    1    2    0    0  0.39983933681E-02  0.16593189528E-01 -0.15486426411E-01  0.10208832976E+01  0.10206231218E+01 0.  0.
     999903    2    3    3    0    0 -0.38561662841E-01 -0.10290533574E+00  0.63131230947E-01  0.12831845852E+00  0.20088915133E-01 0.  0.
         14    1    1    2    0    0 -0.39983933681E-02 -0.16593189528E-01  0.15486426411E-01  0.23046702393E-01  0.00000000000E+00 0.  1.
     999901    1    3    3    0    0  0.42560056209E-01  0.11949852527E+00 -0.78617657358E-01  0.89256483909E+00  0.88000000000E+00 0. -1.
        -11    1    4    4    0    0 -0.20538554802E-01 -0.73555523492E-01  0.50840689219E-01  0.91745757781E-01  0.51100000000E-03 0.  1.
         11    1    4    4    0    0 -0.18023108039E-01 -0.29349812248E-01  0.12290541728E-01  0.36572700739E-01  0.51100000000E-03 0. -1.
</event>
<event>
 8    1  0.9956970E+004  0.1043930E+01  0.7957747E-01            NaN
         13   -1    0    0    0    0  0.00000000000E+00  0.00000000000E+00  0.74505805969E-08  0.10566000000E+00  0.10566000000E+00 0. -1.
     999900   -1    0    0    0    0 -0.00000000000E+00 -0.00000000000E+00 -0.74505805969E-08  0.93827000000E+00  0.93827000000E+00 0.  1.
     999902    2    1    2    0    0 -0.50239277972E-02 -0.22660758421E-01  0.32681449711E-02  0.10204900641E+01  0.10202208292E+01 0.  0.
     999903    2    3    3    0    0  0.46128047825E-01  0.37639268745E-01  0.11386662755E+00  0.13004936298E+00  0.20067799961E-01 0.  0.
         14    1    1    2    0    0  0.50239277972E-02  0.22660758421E-01 -0.32681449711E-02  0.23439935885E-01  0.00000000000E+00 0. -1.
     999901    1    3    3    0    0 -0.51151975623E-01 -0.60300027166E-01 -0.11059848258E+00  0.89044070113E+00  0.88000000000E+00 0.  1.
        -11    1    4    4    0    0  0.29070507689E-01  0.25614886484E-01  0.52656730405E-01  0.65377436512E-01  0.51100000000E-03 0. -1.
         11    1    4    4    0    0  0.17057540136E-01  0.12024382260E-01  0.61209897142E-01  0.64671926470E-01  0.51100000000E-03 0.  1.
</event>
<event>
 8    1  0.9956970E+004  0.1043930E+01  0.7957747E-01            NaN
         13   -1    0    0    0    0  0.00000000000E+00  0.00000000000E+00  0.74505805969E-08  0.10566000000E+00  0.10566000000E+00 0. -1.
     999900   -1    0    0    0    0 -0.00000000000E+00 -0.00000000000E+00 -0.74505805969E-08  0.93827000000E+00  0.93827000000E+00 0.  1.
     999902    2    1    2    0    0 -0.22602702118E-01 -0.59384680619E-02 -0.49824631105E-02  0.10200349695E+01  0.10197550522E+01 0.  0.
     999903    2    3    3    0    0 -0.27131883525E-01  0.10519528676E+00  0.67980189060E-01  0.13003790567E+00  0.22053646976E-01 0.  0.
         14    1    1    2    0    0  0.22602702118E-01  0.59384680619E-02  0.49824631105E-02  0.23895030542E-01  0.00000000000E+00 0. -1.
     999901    1    3    3    0    0  0.45291814071E-02 -0.11113375482E+00 -0.72962652170E-01  0.88999706379E+00  0.88000000000E+00 0. -1.
        -11    1    4    4    0    0 -0.85130315215E-02  0.80701766785E-02  0.98344626703E-02  0.15315914414E-01  0.51100000000E-03 0. -1.
         11    1    4    4    0    0 -0.18618852004E-01  0.97125110084E-01  0.58145726389E-01  0.11472199125E+00  0.51100000000E-03 0.  1.
</event>
<event>
 8    1  0.9956970E+004  0.1043930E+01  0.7957747E-01            NaN
         13   -1    0    0    0    0  0.00000000000E+00  0.00000000000E+00  0.74505805969E-08  0.10566000000E+00  0.10566000000E+00 0.  1.
     999900   -1    0    0    0    0 -0.00000000000E+00 -0.00000000000E+00 -0.74505805969E-08  0.93827000000E+00  0.93827000000E+00 0. -1.
     999902    2    1    2    0    0 -0.10223495341E-01  0.39086343095E-02  0.21053069043E-01  0.10202017680E+01  0.10199257906E+01 0.  0.
     999903    2    3    3    0    0  0.98154317389E-01  0.73453166731E-01 -0.37788815885E-01  0.12888557284E+00  0.12403973350E-01 0.  0.
         14    1    1    2    0    0  0.10223495341E-01 -0.39086343095E-02 -0.21053069043E-01  0.23728232030E-01  0.00000000000E+00 0. -1.
     999901    1    3    3    0    0 -0.10837781273E+00 -0.69544532422E-01  0.58841884929E-01  0.89131619513E+00  0.88000000000E+00 0.  1.
        -11    1    4    4    0    0  0.17384659326E-01  0.11644054006E-01 -0.18349710315E-02  0.21010440577E-01  0.51100000000E-03 0. -1.
         11    1    4    4    0    0  0.80769658063E-01  0.61809112725E-01 -0.35953844854E-01  0.10787513226E+00  0.51100000000E-03 0.  1.
</event>
<event>
 8    1  0.9956970E+004  0.1043930E+01  0.7957747E-01            NaN
         13   -1    0    0    0    0  0.00000000000E+00  0.00000000000E+00  0.74505805969E-08  0.10566000000E+00  0.10566000000E+00 0. -1.
     999900   -1    0    0    0    0 -0.00000000000E+00 -0.00000000000E+00 -0.74505805969E-08  0.93827000000E+00  0.93827000000E+00 0. -1.
     999902    2    1    2    0    0  0.12866791991E-01  0.13718304750E-01 -0.12220345477E-01  0.10215004867E+01  0.10212542100E+01 0.  0.
     999903    2    3    3    0    0  0.39106584662E-02 -0.12597274096E+00 -0.26242616028E-01  0.13032686469E+00  0.20297587252E-01 0.  0.
         14    1    1    2    0    0 -0.12866791991E-01 -0.13718304750E-01  0.12220345477E-01  0.22429513256E-01  0.00000000000E+00 0. -1.
     999901    1    3    3    0    0  0.89561335250E-02  0.13969104571E+00  0.14022270551E-01  0.89117362206E+00  0.88000000000E+00 0. -1.
        -11    1    4    4    0    0  0.43631339124E-02 -0.62889750395E-01 -0.30656664357E-02  0.63117486277E-01  0.51100000000E-03 0.  1.
         11    1    4    4    0    0 -0.45247544614E-03 -0.63082990566E-01 -0.23176949592E-01  0.67209378409E-01  0.51100000000E-03 0. -1.
</event>
<event>
 8    1  0.9956970E+004  0.1043930E+01  0.7957747E-01            NaN
         13   -1    0    0    0    0  0.00000000000E+00  0.00000000000E+00  0.74505805969E-08  0.10566000000E+00  0.10566000000E+00 0. -1.
     999900   -1    0    0    0    0 -0.00000000000E+00 -0.00000000000E+00 -0.74505805969E-08  0.93827000000E+00  0.93827000000E+00 0. -1.
     999902    2    1    2    0    0  0.53651295485E-02 -0.18254538689E-01  0.16075272974E-01  0.10190216239E+01  0.10187171555E+01 0.  0.
     999903    2    3    3    0    0 -0.80508852024E-02  0.37527077939E-01 -0.11920941041E+00  0.12683693241E+00  0.20090434568E-01 0.  0.
         14    1    1    2    0    0 -0.53651295485E-02  0.18254538689E-01 -0.16075272974E-01  0.24908376081E-01  0.00000000000E+00 0.  1.
     999901    1    3    3    0    0  0.13416014751E-01 -0.55781616627E-01  0.13528468339E+00  0.89218469151E+00  0.88000000000E+00 0.  1.
        -11    1    4    4    0    0 -0.93211625218E-03  0.30117686097E-01 -0.64820145249E-01  0.71483258233E-01  0.51100000000E-03 0. -1.
         11    1    4    4    0    0 -0.71187689502E-02  0.74093918415E-02 -0.54389265163E-01  0.55353674176E-01  0.51100000000E-03 0.  1.
</event>
<event>
 8    1  0.9956970E+004  0.1043930E+01  0.7957747E-01            NaN
         13   -1    0    0    0    0  0.00000000000E+00  0.00000000000E+00  0.74505805969E-08  0.10566000000E+00  0.10566000000E+00 0. -1.
     999900   -1    0    0    0    0 -0.00000000000E+00 -0.00000000000E+00 -0.74505805969E-08  0.93827000000E+00  0.93827000000E+00 0.  1.
     999902    2    1    2    0    0 -0.50675403055E-02 -0.94286889131E-02  0.21804458450E-01  0.10196397849E+01  0.10193504189E+01 0.  0.
     999903    2    3    3    0    0 -0.78679772227E-01  0.21127276746E-01  0.10240968539E+00  0.13236889601E+00  0.19922665206E-01 0.  0.
         14    1    1    2    0    0  0.50675403055E-02  0.94286889131E-02 -0.21804458450E-01  0.24290215060E-01  0.00000000000E+00 0.  1.
     999901    1    3    3    0    0  0.73612231922E-01 -0.30555965659E-01 -0.80605226944E-01  0.88727088893E+00  0.88000000000E+00 0.  1.
        -11    1    4    4    0    0 -0.18191681733E-01  0.13854544131E-01  0.30388890578E-01  0.38034608831E-01  0.51100000000E-03 0.  1.
         11    1    4    4    0    0 -0.60488090494E-01  0.72727326149E-02  0.72020794815E-01  0.94334287182E-01  0.51100000000E-03 0. -1.
</event>
<event>
 8    1  0.9956970E+004  0.1043930E+01  0.7957747E-01            NaN
         13   -1    0    0    0    0  0.00000000000E+00  0.00000000000E+00  0.74505805969E-08  0.10566000000E+00  0.10566000000E+00 0.  1.
     999900   -1    0    0    0    0 -0.00000000000E+00 -0.00000000000E+00 -0.74505805969E-08  0.93827000000E+00  0.93827000000E+00 0.  1.
     999902    2    1    2    0    0 -0.22677557330E-01  0.67796148997E-02  0.22651820770E-02  0.10201525772E+01  0.10198754409E+01 0.  0.
     999903    2    3    3    0    0  0.24070354413E-01 -0.44675214758E-01 -0.11721863746E+00  0.12936115949E+00  0.20465674730E-01 0.  0.
         14    1    1    2    0    0  0.22677557330E-01 -0.67796148997E-02 -0.22651820770E-02  0.23777422789E-01  0.00000000000E+00 0. -1.
     999901    1    3    3    0    0 -0.46747911743E-01  0.51454829658E-01  0.11948381954E+00  0.89079141772E+00  0.88000000000E+00 0. -1.
        -11    1    4    4    0    0  0.62666277575E-02 -0.12439133674E-01 -0.57779782894E-01  0.59437085244E-01  0.51100000000E-03 0. -1.
         11    1    4    4    0    0  0.17803726655E-01 -0.32236081084E-01 -0.59438854566E-01  0.69924074249E-01  0.51100000000E-03 0.  1.
</event>
<event>
 8    1  0.9956970E+004  0.1043930E+01  0.7957747E-01            NaN
         13   -1    0    0    0    0  0.00000000000E+00  0.00000000000E+00  0.74505805969E-08  0.10566000000E+00  0.10566000000E+00 0. -1.
     999900   -1    0    0    0    0 -0.00000000000E+00 -0.00000000000E+00 -0.74505805969E-08  0.93827000000E+00  0.93827000000E+00 0.  1.
     999902    2    1    2    0    0 -0.12304908364E-02  0.14701190247E-01 -0.18277930532E-01  0.10204412400E+01  0.10201708692E+01 0.  0.
     999903    2    3    3    0    0  0.49422448863E-01  0.65625945931E-02 -0.12155210908E+00  0.13291799353E+00  0.20165110558E-01 0.  0.
         14    1    1    2    0    0  0.12304908364E-02 -0.14701190247E-01  0.18277930532E-01  0.23488760012E-01  0.00000000000E+00 0. -1.
     999901    1    3    3    0    0 -0.50652939700E-01  0.81385956539E-02  0.10327417855E+00  0.88752324645E+00  0.88000000000E+00 0.  1.
        -11    1    4    4    0    0  0.29958829026E-01 -0.55210352523E-02 -0.61266693483E-01  0.68424280180E-01  0.51100000000E-03 0.  1.
         11    1    4    4    0    0  0.19463619838E-01  0.12083629845E-01 -0.60285415598E-01  0.64493713355E-01  0.51100000000E-03 0. -1.
</event>
<event>
 8    1  0.9956970E+004  0.1043930E+01  0.7957747E-01            NaN
         13   -1    0    0    0    0  0.00000000000E+00  0.00000000000E+00  0.74505805969E-08  0.10566000000E+00  0.10566000000E+00 0.  1.
     999900   -1    0    0    0    0 -0.00000000000E+00 -0.00000000000E+00 -0.74505805969E-08  0.93827000000E+00  0.93827000000E+00 0.  1.
     999902    2    1    2    0    0 -0.23997638649E-02  0.13116768830E-02 -0.23192804958E-01  0.10205765085E+01  0.10203092787E+01 0.  0.
     999903    2    3    3    0    0 -0.17576738231E-01 -0.83246922707E-01  0.94409559136E-01  0.12860632215E+00  0.19683225708E-01 0.  0.
         14    1    1    2    0    0  0.23997638649E-02 -0.13116768830E-02  0.23192804958E-01  0.23353491488E-01  0.00000000000E+00 0.  1.
     999901    1    3    3    0    0  0.15176974366E-01  0.84558599590E-01 -0.11760236409E+00  0.89197018636E+00  0.88000000000E+00 0.  1.
        -11    1    4    4    0    0 -0.11107431696E-01 -0.25504254289E-01  0.20339787035E-01  0.34464620749E-01  0.51100000000E-03 0.  1.
         11    1    4    4    0    0 -0.64693065345E-02 -0.57742668418E-01  0.74069772101E-01  0.94141701403E-01  0.51100000000E-03 0. -1.
</event>
<event>
 8    1  0.9956970E+004  0.1043930E+01  0.7957747E-01            NaN
         13   -1    0    0    0    0  0.00000000000E+00  0.00000000000E+00  0.74505805969E-08  0.10566000000E+00  0.10566000000E+00 0.  1.
     999900   -1    0    0    0    0 -0.00000000000E+00 -0.00000000000E+00 -0.74505805969E-08  0.93827000000E+00  0.93827000000E+00 0.  1.
     999902    2    1    2    0    0 -0.73079937321E-02 -0.22393787205E-01 -0.52139757182E-02  0.10198037898E+01  0.10195183645E+01 0.  0.
     999903    2    3    3    0    0  0.56622246409E-01 -0.11380482512E+00 -0.31033074941E-01  0.13238636862E+00  0.20136579801E-01 0.  0.
         14    1    1    2    0    0  0.73079937321E-02  0.22393787205E-01  0.52139757182E-02  0.24126210240E-01  0.00000000000E+00 0.  1.
     999901    1    3    3    0    0 -0.63930240141E-01  0.91411037920E-01  0.25819099223E-01  0.88741742114E+00  0.88000000000E+00 0.  1.
        -11    1    4    4    0    0  0.30565170917E-01 -0.56268602142E-01 -0.55515669540E-02  0.64276483078E-01  0.51100000000E-03 0.  1.
         11    1    4    4    0    0  0.26057075492E-01 -0.57536222982E-01 -0.25481507987E-01  0.68109885542E-01  0.51100000000E-03 0. -1.
</event>
<event>
 8    1  0.9956970E+004  0.1043930E+01  0.7957747E-01            NaN
         13   -1    0    0    0    0  0.00000000000E+00  0.00000000000E+00  0.74505805969E-08  0.10566000000E+00  0.10566000000E+00 0. -1.
     999900   -1    0    0    0    0 -0.00000000000E+00 -0.00000000000E+00 -0.74505805969E-08  0.93827000000E+00  0.93827000000E+00 0. -1.
     999902    2    1    2    0    0 -0.13075571962E-01  0.73172086716E-02  0.18491868720E-01  0.10201295518E+01  0.10198518722E+01 0.  0.
     999903    2    3    3    0    0 -0.75778247805E-01  0.76045387165E-01 -0.71869409963E-01  0.13062387519E+00  0.19290954637E-01 0.  0.
         14    1    1    2    0    0  0.13075571962E-01 -0.73172086716E-02 -0.18491868720E-01  0.23800448181E-01  0.00000000000E+00 0.  1.
     999901    1    3    3    0    0  0.62702675843E-01 -0.68728178493E-01  0.90361278682E-01  0.88950567663E+00  0.88000000000E+00 0.  1.
        -11    1    4    4    0    0 -0.10438110727E-01  0.12859250662E-01 -0.19989072141E-01  0.25964179347E-01  0.51100000000E-03 0. -1.
         11    1    4    4    0    0 -0.65340137078E-01  0.63186136503E-01 -0.51880337822E-01  0.10465969584E+00  0.51100000000E-03 0.  1.
</event>
<event>
 8    1  0.9956970E+004  0.1043930E+01  0.7957747E-01            NaN
         13   -1    0    0    0    0  0.00000000000E+00  0.00000000000E+00  0.74505805969E-08  0.10566000000E+00  0.10566000000E+00 0.  1.
     999900   -1    0    0    0    0 -0.00000000000E+00 -0.00000000000E+00 -0.74505805969E-08  0.93827000000E+00  0.93827000000E+00 0.  1.
     999902    2    1    2    0    0 -0.56605435641E-02  0.22675057573E-01 -0.10552557778E-02  0.10205352665E+01  0.10202670811E+01 0.  0.
     999903    2    3    3    0    0 -0.49707720076E-01  0.12226537876E+00  0.86289266889E-02  0.13377026428E+00  0.20008621879E-01 0.  0.
         14    1    1    2    0    0  0.56605435641E-02 -0.22675057573E-01  0.10552557778E-02  0.23394733470E-01  0.00000000000E+00 0. -1.
     999901    1    3    3    0    0  0.44047176511E-01 -0.99590321189E-01 -0.96841824668E-02  0.88676500225E+00  0.88000000000E+00 0.  1.
        -11    1    4    4    0    0 -0.39822895450E-01  0.80502987206E-01 -0.83655919458E-03  0.89819568600E-01  0.51100000000E-03 0.  1.
         11    1    4    4    0    0 -0.98848246253E-02  0.41762391556E-01  0.94654858835E-02  0.43950695675E-01  0.51100000000E-03 0. -1.
</event>
<event>
 8    1  0.9956970E+004  0.1043930E+01  0.7957747E-01            NaN
         13   -1    0    0    0    0  0.00000000000E+00  0.00000000000E+00  0.74505805969E-08  0.10566000000E+00  0.10566000000E+00 0.  1.
     999900   -1    0    0    0    0 -0.00000000000E+00 -0.00000000000E+00 -0.74505805969E-08  0.93827000000E+00  0.93827000000E+00 0. -1.
     999902    2    1    2    0    0 -0.19658022191E-01  0.12941106914E-01 -0.50154520527E-02  0.10198662338E+01  0.10195823017E+01 0.  0.
     999903    2    3    3    0    0  0.13478515324E-01 -0.89269300971E-01 -0.90370669395E-01  0.12923134186E+00  0.19575580759E-01 0.  0.
         14    1    1    2    0    0  0.19658022191E-01 -0.12941106914E-01  0.50154520527E-02  0.24063766204E-01  0.00000000000E+00 0.  1.
     999901    1    3    3    0    0 -0.33136537515E-01  0.10221040788E+00  0.85355217342E-01  0.89063489193E+00  0.88000000000E+00 0.  1.
        -11    1    4    4    0    0 -0.38353027325E-02 -0.39059198061E-01 -0.37263238264E-01  0.54121534967E-01  0.51100000000E-03 0. -1.
         11    1    4    4    0    0  0.17313818057E-01 -0.50210102910E-01 -0.53107431131E-01  0.75109806898E-01  0.51100000000E-03 0.  1.
</event>
<event>
 8    1  0.1036106E+005  0.1043930E+01  0.7957747E-01            NaN
         13   -1    0    0    0    0  0.00000000000E+00  0.00000000000E+00  0.74505805969E-08  0.10566000000E+00  0.10566000000E+00 0. -1.
     999900   -1    0    0    0    0 -0.00000000000E+00 -0.00000000000E+00 -0.74505805969E-08  0.93827000000E+00  0.93827000000E+00 0.  1.
     999902    2    1    2    0    0 -0.21078378381E-01 -0.91865442723E-02  0.14098496895E-02  0.10208935440E+01  0.10206336021E+01 0.  0.
     999903    2    3    3    0    0 -0.26127487652E-01  0.16209611120E-02 -0.12725562071E+00  0.13145714997E+00  0.20042857837E-01 0.  0.
         14    1    1    2    0    0  0.21078378381E-01  0.91865442723E-02 -0.14098496895E-02  0.23036456043E-01  0.00000000000E+00 0. -1.
     999901    1    3    3    0    0  0.50491092701E-02 -0.10807505384E-01  0.12866547040E+00  0.88943639399E+00  0.88000000000E+00 0. -1.
        -11    1    4    4    0    0 -0.13609789928E-01  0.10332222620E-01 -0.54485060230E-01  0.57103976354E-01  0.51100000000E-03 0. -1.
         11    1    4    4    0    0 -0.12517697724E-01 -0.87112615081E-02 -0.72770560479E-01  0.74353173616E-01  0.51100000000E-03 0.  1.
</event>
<event>
 8    1  0.9956970E+004  0.1043930E+01  0.7957747E-01            NaN
         13   -1    0    0    0    0  0.00000000000E+00  0.00000000000E+00  0.74505805969E-08  0.10566000000E+00  0.10566000000E+00 0. -1.
     999900   -1    0    0    0    0 -0.00000000000E+00 -0.00000000000E+00 -0.74505805969E-08  0.93827000000E+00  0.93827000000E+00 0. -1.
     999902    2    1    2    0    0  0.97337900048E-02 -0.11795411680E-01 -0.16646372065E-01  0.10213251309E+01  0.10210749448E+01 0.  0.
     999903    2    3    3    0    0  0.19592690279E-03  0.10798966930E+00 -0.72154420900E-01  0.13142593438E+00  0.20117373353E-01 0.  0.
         14    1    1    2    0    0 -0.97337900048E-02  0.11795411680E-01  0.16646372065E-01  0.22604869110E-01  0.00000000000E+00 0. -1.
     999901    1    3    3    0    0  0.95378631020E-02 -0.11978508098E+00  0.55508048835E-01  0.88989919651E+00  0.88000000000E+00 0.  1.
        -11    1    4    4    0    0 -0.76280658347E-02  0.87703668314E-01 -0.59608964477E-01  0.10631843956E+00  0.51100000000E-03 0.  1.
         11    1    4    4    0    0  0.78239927375E-02  0.20286000984E-01 -0.12545456423E-01  0.25107494820E-01  0.51100000000E-03 0. -1.
</event>
<event>
 8    1  0.9956970E+004  0.1043930E+01  0.7957747E-01            NaN
         13   -1    0    0    0    0  0.00000000000E+00  0.00000000000E+00  0.74505805969E-08  0.10566000000E+00  0.10566000000E+00 0. -1.
     999900   -1    0    0    0    0 -0.00000000000E+00 -0.00000000000E+00 -0.74505805969E-08  0.93827000000E+00  0.93827000000E+00 0. -1.
     999902    2    1    2    0    0  0.32014292406E-02 -0.16110888558E-01 -0.16566186498E-01  0.10206008677E+01  0.10203342015E+01 0.  0.
     999903    2    3    3    0    0 -0.34151105337E-01  0.65795324711E-01 -0.10696768349E+00  0.13140107559E+00  0.18133797319E-01 0.  0.
         14    1    1    2    0    0 -0.32014292406E-02  0.16110888558E-01  0.16566186498E-01  0.23329132312E-01  0.00000000000E+00 0.  1.
     999901    1    3    3    0    0  0.37352534577E-01 -0.81906213269E-01  0.90401496991E-01  0.88919979210E+00  0.88000000000E+00 0.  1.
        -11    1    4    4    0    0 -0.19689076162E-01  0.54479675360E-01 -0.82338895496E-01  0.10067596327E+00  0.51100000000E-03 0.  1.
         11    1    4    4    0    0 -0.14462029175E-01  0.11315649352E-01 -0.24628787993E-01  0.30725112321E-01  0.51100000000E-03 0. -1.
</event>
<event>
 8    1  0.1296455E+005  0.1043930E+01  0.7957747E-01            NaN
         13   -1    0    0    0    0  0.00000000000E+00  0.00000000000E+00  0.74505805969E-08  0.10566000000E+00  0.10566000000E+00 0.  1.
     999900   -1    0    0    0    0 -0.00000000000E+00 -0.00000000000E+00 -0.74505805969E-08  0.93827000000E+00  0.93827000000E+00 0.  1.
     999902    2    1    2    0    0 -0.10247376831E-01 -0.35434873539E-02  0.20768449628E-01  0.10205015230E+01  0.10202325543E+01 0.  0.
     999903    2    3    3    0    0  0.31459660320E-01 -0.87167567519E-01  0.93902546985E-01  0.13253696294E+00  0.12667405410E-01 0.  0.
         14    1    1    2    0    0  0.10247376831E-01  0.35434873539E-02 -0.20768449628E-01  0.23428476999E-01  0.00000000000E+00 0. -1.
     999901    1    3    3    0    0 -0.41707037151E-01  0.83624080165E-01 -0.73134097357E-01  0.88796456006E+00  0.88000000000E+00 0.  1.
        -11    1    4    4    0    0  0.25622828752E-01 -0.63358700362E-01  0.61810308139E-01  0.92150038405E-01  0.51100000000E-03 0. -1.
         11    1    4    4    0    0  0.58368315679E-02 -0.23808867157E-01  0.32092238846E-01  0.40386924532E-01  0.51100000000E-03 0.  1.
</event>
<event>
 8    1  0.9956970E+004  0.1043930E+01  0.7957747E-01            NaN
         13   -1    0    0    0    0  0.00000000000E+00  0.00000000000E+00  0.74505805969E-08  0.10566000000E+00  0.10566000000E+00 0. -1.
     999900   -1    0    0    0    0 -0.00000000000E+00 -0.00000000000E+00 -0.74505805969E-08  0.93827000000E+00  0.93827000000E+00 0. -1.
     999902    2    1    2    0    0  0.10996689485E-01  0.21142527310E-01  0.16649013752E-02  0.10200405559E+01  0.10197607711E+01 0.  0.
     999903    2    3    3    0    0 -0.48826406796E-02 -0.66593288933E-01 -0.10826780852E+00  0.12872976431E+00  0.19771887773E-01 0.  0.
         14    1    1    2    0    0 -0.10996689485E-01 -0.21142527310E-01 -0.16649013752E-02  0.23889444055E-01  0.00000000000E+00 0. -1.
     999901    1    3    3    0    0  0.15879330165E-01  0.87735816243E-01  0.10993270990E+00  0.89131079163E+00  0.88000000000E+00 0.  1.
        -11    1    4    4    0    0  0.12203923556E-02 -0.35020816262E-01 -0.39454175766E-01  0.52771583599E-01  0.51100000000E-03 0. -1.
         11    1    4    4    0    0 -0.61030330351E-02 -0.31572472671E-01 -0.68813632757E-01  0.75958180712E-01  0.51100000000E-03 0.  1.
</event>
<event>
 7    1  0.9956970E+004  0.1043930E+01  0.7957747E-01            NaN
         13   -1    0    0    0    0  0.00000000000E+00  0.00000000000E+00  0.74505805969E-08  0.10566000000E+00  0.10566000000E+00 0.  1.
     999900   -1    0    0    0    0 -0.00000000000E+00 -0.00000000000E+00 -0.74505805969E-08  0.93827000000E+00  0.93827000000E+00 0. -1.
     999902    2    1    2    0    0 -0.94948483977E-02 -0.41073896814E-02 -0.21418345116E-01  0.10201441155E+01  0.10198667795E+01 0.  0.
         14    1    1    2    0    0  0.94948483977E-02  0.41073896814E-02  0.21418345116E-01  0.23785884545E-01  0.00000000000E+00 0.  1.
     999901    1    3    3    0    0 -0.88418216283E-01  0.48718540657E-01  0.48735225705E-01  0.88711126664E+00  0.88000000000E+00 0. -1.
        -11    1    3    3    0    0  0.71194561588E-01 -0.30568445562E-01 -0.23836590787E-01  0.81065033431E-01  0.51100000000E-03 0.  1.
         11    1    3    3    0    0  0.77288062974E-02 -0.22257484776E-01 -0.46316980034E-01  0.51967815384E-01  0.51100000000E-03 0. -1.
</event>
<event>
 8    1  0.9956970E+004  0.1043930E+01  0.7957747E-01            NaN
         13   -1    0    0    0    0  0.00000000000E+00  0.00000000000E+00  0.74505805969E-08  0.10566000000E+00  0.10566000000E+00 0. -1.
     999900   -1    0    0    0    0 -0.00000000000E+00 -0.00000000000E+00 -0.74505805969E-08  0.93827000000E+00  0.93827000000E+00 0. -1.
     999902    2    1    2    0    0  0.27855610188E-02 -0.96523478509E-02  0.20929399008E-01  0.10207143391E+01  0.10204502904E+01 0.  0.
     999903    2    3    3    0    0  0.43695285699E-01 -0.94326287417E-02  0.12437204618E+00  0.13371150081E+00  0.20300421169E-01 0.  0.
         14    1    1    2    0    0 -0.27855610188E-02  0.96523478509E-02 -0.20929399008E-01  0.23215660922E-01  0.00000000000E+00 0.  1.
     999901    1    3    3    0    0 -0.40909724680E-01 -0.21971910928E-03 -0.10344264717E+00  0.88700283827E+00  0.88000000000E+00 0. -1.
        -11    1    4    4    0    0  0.39337697801E-01 -0.74751193007E-02  0.84025860872E-01  0.93080278755E-01  0.51100000000E-03 0. -1.
         11    1    4    4    0    0  0.43575878984E-02 -0.19575094410E-02  0.40346185307E-01  0.40631222051E-01  0.51100000000E-03 0.  1.
</event>
<event>
 8    1  0.9956970E+004  0.1043930E+01  0.7957747E-01            NaN
         13   -1    0    0    0    0  0.00000000000E+00  0.00000000000E+00  0.74505805969E-08  0.10566000000E+00  0.10566000000E+00 0.  1.
     999900   -1    0    0    0    0 -0.00000000000E+00 -0.00000000000E+00 -0.74505805969E-08  0.93827000000E+00  0.93827000000E+00 0. -1.
     999902    2    1    2    0    0 -0.10911033408E-01 -0.32543623926E-03 -0.21201160385E-01  0.10200837055E+01  0.10198049424E+01 0.  0.
     999903    2    3    3    0    0  0.96195125793E-01  0.44792791245E-01 -0.73956944865E-01  0.13087588021E+00  0.19974232250E-01 0.  0.
         14    1    1    2    0    0  0.10911033408E-01  0.32543623926E-03  0.21201160385E-01  0.23846294481E-01  0.00000000000E+00 0.  1.
     999901    1    3    3    0    0 -0.10710615920E+00 -0.45118227484E-01  0.52755784479E-01  0.88920782531E+00  0.88000000000E+00 0.  1.
        -11    1    4    4    0    0  0.48768732100E-01  0.17733979099E-01 -0.25284708607E-01  0.57727470546E-01  0.51100000000E-03 0.  1.
         11    1    4    4    0    0  0.47426393693E-01  0.27058812146E-01 -0.48672236258E-01  0.73148409667E-01  0.51100000000E-03 0. -1.
</event>
<event>
 8    1  0.9956970E+004  0.1043930E+01  0.7957747E-01            NaN
         13   -1    0    0    0    0  0.00000000000E+00  0.00000000000E+00  0.74505805969E-08  0.10566000000E+00  0.10566000000E+00 0. -1.
     999900   -1    0    0    0    0 -0.00000000000E+00 -0.00000000000E+00 -0.74505805969E-08  0.93827000000E+00  0.93827000000E+00 0.  1.
     999902    2    1    2    0    0  0.79948195628E-02 -0.18381301438E-01 -0.12262522909E-01  0.10204319394E+01  0.10201613520E+01 0.  0.
     999903    2    3    3    0    0  0.10396135648E+00 -0.57016111781E-02 -0.79386440179E-01  0.13258286947E+00  0.20869556384E-01 0.  0.
         14    1    1    2    0    0 -0.79948195628E-02  0.18381301438E-01  0.12262522909E-01  0.23498060569E-01  0.00000000000E+00 0. -1.
     999901    1    3    3    0    0 -0.95966536912E-01 -0.12679690260E-01  0.67123917270E-01  0.88784906996E+00  0.88000000000E+00 0. -1.
        -11    1    4    4    0    0  0.87767378764E-01 -0.77363129617E-02 -0.57249534470E-01  0.10507489534E+00  0.51100000000E-03 0. -1.
         11    1    4    4    0    0  0.16193977712E-01  0.20347017836E-02 -0.22136905709E-01  0.27507974132E-01  0.51100000000E-03 0.  1.
</event>
<event>
 8    1  0.9956970E+004  0.1043930E+01  0.7957747E-01            NaN
         13   -1    0    0    0    0  0.00000000000E+00  0.00000000000E+00  0.74505805969E-08  0.10566000000E+00  0.10566000000E+00 0.  1.
     999900   -1    0    0    0    0 -0.00000000000E+00 -0.00000000000E+00 -0.74505805969E-08  0.93827000000E+00  0.93827000000E+00 0. -1.
     999902    2    1    2    0    0 -0.14307441575E-01 -0.16652946018E-01  0.85889404038E-02  0.10203547292E+01  0.10200823398E+01 0.  0.
     999903    2    3    3    0    0 -0.98530371123E-01  0.27518480165E-01  0.81451520833E-01  0.13223673459E+00  0.19664764006E-01 0.  0.
         14    1    1    2    0    0  0.14307441575E-01  0.16652946018E-01 -0.85889404038E-02  0.23575270788E-01  0.00000000000E+00 0.  1.
     999901    1    3    3    0    0  0.84222929548E-01 -0.44171426183E-01 -0.72862580429E-01  0.88811799463E+00  0.88000000000E+00 0. -1.
        -11    1    4    4    0    0 -0.87648042262E-01  0.18980248204E-01  0.65128123907E-01  0.11083484461E+00  0.51100000000E-03 0.  1.
         11    1    4    4    0    0 -0.10882328862E-01  0.85382319610E-02  0.16323396926E-01  0.21401889979E-01  0.51100000000E-03 0. -1.
</event>
<event>
 8    1  0.9956970E+004  0.1043930E+01  0.7957747E-01            NaN
         13   -1    0    0    0    0  0.00000000000E+00  0.00000000000E+00  0.74505805969E-08  0.10566000000E+00  0.10566000000E+00 0.  1.
     999900   -1    0    0    0    0 -0.00000000000E+00 -0.00000000000E+00 -0.74505805969E-08  0.93827000000E+00  0.93827000000E+00 0.  1.
     999902    2    1    2    0    0 -0.18163269328E-01  0.81734854760E-02 -0.74885418923E-02  0.10226511730E+01  0.10224297693E+01 0.  0.
     999903    2    3    3    0    0 -0.61635744135E-01  0.80631201966E-02  0.11564994673E+00  0.13301475537E+00  0.21308123020E-01 0.  0.
         14    1    1    2    0    0  0.18163269328E-01 -0.81734854760E-02  0.74885418923E-02  0.21278826969E-01  0.00000000000E+00 0. -1.
     999901    1    3    3    0    0  0.43472474807E-01  0.11036527944E-03 -0.12313848862E+00  0.88963641766E+00  0.88000000000E+00 0.  1.
        -11    1    4    4    0    0 -0.32409310352E-01 -0.63177821628E-02  0.62087557967E-01  0.70323564644E-01  0.51100000000E-03 0.  1.
         11    1    4    4    0    0 -0.29226433784E-01  0.14380902359E-01  0.53562388758E-01  0.62691190728E-01  0.51100000000E-03 0. -1.
</event>
<event>
 8    1  0.9956970E+004  0.1043930E+01  0.7957747E-01            NaN
         13   -1    0    0    0    0  0.00000000000E+00  0.00000000000E+00  0.74505805969E-08  0.10566000000E+00  0.10566000000E+00 0. -1.
     999900   -1    0    0    0    0 -0.00000000000E+00 -0.00000000000E+00 -0.74505805969E-08  0.93827000000E+00  0.93827000000E+00 0.  1.
     999902    2    1    2    0    0  0.10701671372E-01  0.18847804821E-01  0.10161846127E-01  0.10199919835E+01  0.10197110462E+01 0.  0.
     999903    2    3    3    0    0  0.62730540303E-03  0.50161305424E-01 -0.11834382381E+00  0.13005056107E+00  0.19782257891E-01 0.  0.
         14    1    1    2    0    0 -0.10701671372E-01 -0.18847804821E-01 -0.10161846127E-01  0.23938016489E-01  0.00000000000E+00 0. -1.
     999901    1    3    3    0    0  0.10074365969E-01 -0.31313500603E-01  0.12850566994E+00  0.88994142244E+00  0.88000000000E+00 0. -1.
        -11    1    4    4    0    0  0.22531510569E-02  0.40553202199E-02 -0.30232666458E-01  0.30590808324E-01  0.51100000000E-03 0.  1.
         11    1    4    4    0    0 -0.16258456539E-02  0.46105985204E-01 -0.88111157351E-01  0.99459752746E-01  0.51100000000E-03 0. -1.
</event>
<event>
 8    1  0.9956970E+004  0.1043930E+01  0.7957747E-01            NaN
         13   -1    0    0    0    0  0.00000000000E+00  0.00000000000E+00  0.74505805969E-08  0.10566000000E+00  0.10566000000E+00 0. -1.
     999900   -1    0    0    0    0 -0.00000000000E+00 -0.00000000000E+00 -0.74505805969E-08  0.93827000000E+00  0.93827000000E+00 0. -1.
     999902    2    1    2    0    0 -0.72066596128E-02  0.22500721717E-01 -0.56390116363E-02  0.10196397371E+01  0.10193503699E+01 0.  0.
     999903    2    3    3    0    0  0.13599253118E-01 -0.12295293577E+00 -0.25122782639E-01  0.12724449403E+00  0.16051260170E-01 0.  0.
         14    1    1    2    0    0  0.72066596128E-02 -0.22500721717E-01  0.56390116363E-02  0.24290262921E-01  0.00000000000E+00 0. -1.
     999901    1    3    3    0    0 -0.20805912731E-01  0.14545365749E+00  0.19483771003E-01  0.89239524305E+00  0.88000000000E+00 0.  1.
        -11    1    4    4    0    0  0.34365679762E-02 -0.51271398348E-02  0.57601597087E-03  0.62201670186E-02  0.51100000000E-03 0.  1.
         11    1    4    4    0    0  0.10162685142E-01 -0.11782579594E+00 -0.25698798610E-01  0.12102432701E+00  0.51100000000E-03 0. -1.
</event>
<event>
 8    1  0.9956970E+004  0.1043930E+01  0.7957747E-01            NaN
         13   -1    0    0    0    0  0.00000000000E+00  0.00000000000E+00  0.74505805969E-08  0.10566000000E+00  0.10566000000E+00 0.  1.
     999900   -1    0    0    0    0 -0.00000000000E+00 -0.00000000000E+00 -0.74505805969E-08  0.93827000000E+00  0.93827000000E+00 0. -1.
     999902    2    1    2    0    0 -0.12365838018E-01  0.72889414863E-02  0.21615733086E-01  0.10179823116E+01  0.10176515632E+01 0.  0.
     999903    2    3    3    0    0  0.47010806179E-01  0.11654388443E+00  0.22789743472E-01  0.12923960036E+00  0.19773947426E-01 0.  0.
         14    1    1    2    0    0  0.12365838018E-01 -0.72889414863E-02 -0.21615733086E-01  0.25947688427E-01  0.00000000000E+00 0. -1.
     999901    1    3    3    0    0 -0.59376644197E-01 -0.10925494295E+00 -0.11740103867E-02  0.88874271121E+00  0.88000000000E+00 0.  1.
        -11    1    4    4    0    0  0.24769257849E-01  0.52065605176E-01  0.11151541971E-02  0.57670166175E-01  0.51100000000E-03 0. -1.
         11    1    4    4    0    0  0.22241548330E-01  0.64478279258E-01  0.21674589275E-01  0.71569434184E-01  0.51100000000E-03 0.  1.
</event>
<event>
 8    1  0.9956970E+004  0.1043930E+01  0.7957747E-01            NaN
         13   -1    0    0    0    0  0.00000000000E+00  0.00000000000E+00  0.74505805969E-08  0.10566000000E+00  0.10566000000E+00 0. -1.
     999900   -1    0    0    0    0 -0.00000000000E+00 -0.00000000000E+00 -0.74505805969E-08  0.93827000000E+00  0.93827000000E+00 0. -1.
     999902    2    1    2    0    0 -0.17465551244E-01 -0.11724238065E-01 -0.13195577888E-01  0.10190980344E+01  0.10187954541E+01 0.  0.
     999903    2    3    3    0    0  0.10695561064E+00 -0.30477645646E-01  0.58397837623E-01  0.12726961317E+00  0.20466007534E-01 0.  0.
         14    1    1    2    0    0  0.17465551244E-01  0.11724238065E-01  0.13195577888E-01  0.24831965573E-01  0.00000000000E+00 0. -1.
     999901    1    3    3    0    0 -0.12442116189E+00  0.18753407582E-01 -0.71593415510E-01  0.89182842126E+00  0.88000000000E+00 0. -1.
        -11    1    4    4    0    0  0.13805602490E-01 -0.11270778192E-01  0.69542415083E-02  0.19137599043E-01  0.51100000000E-03 0.  1.
         11    1    4    4    0    0  0.93150008154E-01 -0.19206867455E-01  0.51443596114E-01  0.10813201412E+00  0.51100000000E-03 0. -1.
</event>
<event>
 8    1  0.9956970E+004  0.1043930E+01  0.7957747E-01            NaN
         13   -1    0    0    0    0  0.00000000000E+00  0.00000000000E+00  0.74505805969E-08  0.10566000000E+00  0.10566000000E+00 0.  1.
     999900   -1    0    0    0    0 -0.00000000000E+00 -0.00000000000E+00 -0.74505805969E-08  0.93827000000E+00  0.93827000000E+00 0.  1.
     999902    2    1    2    0    0 -0.47915138506E-02 -0.19334824230E-01  0.12493665580E-01  0.10204164781E+01  0.10201455303E+01 0.  0.
     999903    2    3    3    0    0 -0.62479552400E-01 -0.45735196656E-01  0.10628839633E+00  0.13316096756E+00  0.20957514287E-01 0.  0.
         14    1    1    2    0    0  0.47915138506E-02  0.19334824230E-01 -0.12493665580E-01  0.23513521910E-01  0.00000000000E+00 0. -1.
     999901    1    3    3    0    0  0.57688038550E-01  0.26400372426E-01 -0.93794730748E-01  0.88725551053E+00  0.88000000000E+00 0.  1.
        -11    1    4    4    0    0 -0.99621949555E-02 -0.82544400327E-02  0.33373459102E-01  0.35797066947E-01  0.51100000000E-03 0. -1.
         11    1    4    4    0    0 -0.52517357445E-01 -0.37480756624E-01  0.72914937226E-01  0.97363900609E-01  0.51100000000E-03 0.  1.
</event>
<event>
 8    1  0.9956970E+004  0.1043930E+01  0.7957747E-01            NaN
         13   -1    0    0    0    0  0.00000000000E+00  0.00000000000E+00  0.74505805969E-08  0.10566000000E+00  0.10566000000E+00 0.  1.
     999900   -1    0    0    0    0 -0.00000000000E+00 -0.00000000000E+00 -0.74505805969E-08  0.93827000000E+00  0.93827000000E+00 0. -1.
     999902    2    1    2    0    0 -0.14294060901E-01 -0.15137957624E-01  0.14349507357E-01  0.10186439110E+01  0.10183300207E+01 0.  0.
     999903    2    3    3    0    0 -0.38798738531E-01 -0.10216175489E+00  0.71488507852E-01  0.13216859494E+00  0.20385398202E-01 0.  0.
         14    1    1    2    0    0  0.14294060901E-01  0.15137957624E-01 -0.14349507357E-01  0.25286089050E-01  0.00000000000E+00 0. -1.
     999901    1    3    3    0    0  0.24504677630E-01  0.87023797266E-01 -0.57139000495E-01  0.88647531601E+00  0.88000000000E+00 0.  1.
        -11    1    4    4    0    0 -0.17015378101E-01 -0.71640260197E-01  0.45905849896E-01  0.86772450401E-01  0.51100000000E-03 0.  1.
         11    1    4    4    0    0 -0.21783360430E-01 -0.30521494694E-01  0.25582657956E-01  0.45396144540E-01  0.51100000000E-03 0. -1.
</event>
<event>
 8    1  0.9956970E+004  0.1043930E+01  0.7957747E-01            NaN
         13   -1    0    0    0    0  0.00000000000E+00  0.00000000000E+00  0.74505805969E-08  0.10566000000E+00  0.10566000000E+00 0. -1.
     999900   -1    0    0    0    0 -0.00000000000E+00 -0.00000000000E+00 -0.74505805969E-08  0.93827000000E+00  0.93827000000E+00 0. -1.
     999902    2    1    2    0    0 -0.99853829655E-02 -0.56053895978E-02 -0.20937705841E-01  0.10200654700E+01  0.10197862753E+01 0.  0.
     999903    2    3    3    0    0 -0.20241423089E-01  0.12013827054E+00  0.37108438372E-01  0.12917489914E+00  0.21591644495E-01 0.  0.
         14    1    1    2    0    0  0.99853829655E-02  0.56053895978E-02  0.20937705841E-01  0.23864529985E-01  0.00000000000E+00 0. -1.
     999901    1    3    3    0    0  0.10256040123E-01 -0.12574366014E+00 -0.58046144213E-01  0.89089057088E+00  0.88000000000E+00 0. -1.
        -11    1    4    4    0    0 -0.15575816791E-01  0.38731784489E-01  0.17754642872E-01  0.45367892423E-01  0.51100000000E-03 0. -1.
         11    1    4    4    0    0 -0.46656062972E-02  0.81406486049E-01  0.19353795501E-01  0.83807006713E-01  0.51100000000E-03 0.  1.
</event>
<event>
 8    1  0.9956970E+004  0.1043930E+01  0.7957747E-01            NaN
         13   -1    0    0    0    0  0.00000000000E+00  0.00000000000E+00  0.74505805969E-08  0.10566000000E+00  0.10566000000E+00 0.  1.
     999900   -1    0    0    0    0 -0.00000000000E+00 -0.00000000000E+00 -0.74505805969E-08  0.93827000000E+00  0.93827000000E+00 0.  1.
     999902    2    1    2    0    0 -0.13529223810E-01  0.16411826098E-01  0.66540359127E-03  0.10226501810E+01  0.10224287565E+01 0.  0.
     999903    2    3    3    0    0 -0.15868465001E-01  0.13208801806E+00  0.10889998851E-01  0.13501793975E+00  0.20302691507E-01 0.  0.
         14    1    1    2    0    0  0.13529223810E-01 -0.16411826098E-01 -0.66540359127E-03  0.21279818954E-01  0.00000000000E+00 0.  1.
     999901    1    3    3    0    0  0.23392411913E-02 -0.11567619197E+00 -0.10224595259E-01  0.88763224129E+00  0.88000000000E+00 0. -1.
        -11    1    4    4    0    0 -0.47102905205E-02  0.62481877374E-01 -0.46335423060E-02  0.62832337791E-01  0.51100000000E-03 0.  1.
         11    1    4    4    0    0 -0.11158174481E-01  0.69606140689E-01  0.15523541157E-01  0.72185601961E-01  0.51100000000E-03 0. -1.
</event>
<event>
 8    1  0.9956970E+004  0.1043930E+01  0.7957747E-01            NaN
         13   -1    0    0    0    0  0.00000000000E+00  0.00000000000E+00  0.74505805969E-08  0.10566000000E+00  0.10566000000E+00 0.  1.
     999900   -1    0    0    0    0 -0.00000000000E+00 -0.00000000000E+00 -0.74505805969E-08  0.93827000000E+00  0.93827000000E+00 0.  1.
     999902    2    1    2    0    0  0.15715895751E-01  0.78585965089E-02  0.15355849976E-01  0.10205944253E+01  0.10203276101E+01 0.  0.
     999903    2    3    3    0    0 -0.10030784494E+00 -0.71984743767E-01 -0.28094740464E-01  0.12833637899E+00  0.20915177211E-01 0.  0.
         14    1    1    2    0    0 -0.15715895751E-01 -0.78585965089E-02 -0.15355849976E-01  0.23335574705E-01  0.00000000000E+00 0. -1.
     999901    1    3    3    0    0  0.11602374069E+00  0.79843340276E-01  0.43450590440E-01  0.89225804631E+00  0.88000000000E+00 0.  1.
        -11    1    4    4    0    0 -0.87935990660E-01 -0.60147288490E-01 -0.31007433748E-01  0.11096015877E+00  0.51100000000E-03 0. -1.
         11    1    4    4    0    0 -0.12371854282E-01 -0.11837455277E-01  0.29126932842E-02  0.17376220215E-01  0.51100000000E-03 0.  1.
</event>
<event>
 8    1  0.9956970E+004  0.1043930E+01  0.7957747E-01            NaN
         13   -1    0    0    0    0  0.00000000000E+00  0.00000000000E+00  0.74505805969E-08  0.10566000000E+00  0.10566000000E+00 0. -1.
     999900   -1    0    0    0    0 -0.00000000000E+00 -0.00000000000E+00 -0.74505805969E-08  0.93827000000E+00  0.93827000000E+00 0. -1.
     999902    2    1    2    0    0  0.22909102159E-02  0.22138261586E-01  0.68074324393E-02  0.10206557217E+01  0.10203903224E+01 0.  0.
     999903    2    3    3    0    0  0.80750701990E-01 -0.58341932405E-01  0.81636256019E-01  0.13035669696E+00  0.20098089382E-01 0.  0.
         14    1    1    2    0    0 -0.22909102159E-02 -0.22138261586E-01 -0.68074324393E-02  0.23274278337E-01  0.00000000000E+00 0. -1.
     999901    1    3    3    0    0 -0.78459791774E-01  0.80480193991E-01 -0.74828823580E-01  0.89029902470E+00  0.88000000000E+00 0. -1.
        -11    1    4    4    0    0  0.86668193749E-02 -0.14884269838E-01  0.10726681091E-01  0.20297242545E-01  0.51100000000E-03 0.  1.
         11    1    4    4    0    0  0.72083882615E-01 -0.43457662566E-01  0.70909574928E-01  0.11005945441E+00  0.51100000000E-03 0. -1.
</event>
<event>
 8    1  0.9956970E+004  0.1043930E+01  0.7957747E-01            NaN
         13   -1    0    0    0    0  0.00000000000E+00  0.00000000000E+00  0.74505805969E-08  0.10566000000E+00  0.10566000000E+00 0.  1.
     999900   -1    0    0    0    0 -0.00000000000E+00 -0.00000000000E+00 -0.74505805969E-08  0.93827000000E+00  0.93827000000E+00 0.  1.
     999902    2    1    2    0    0  0.54467799028E-02  0.24160521216E-01 -0.27178943194E-02  0.10190144397E+01  0.10187097934E+01 0.  0.
     999903    2    3    3    0    0  0.36727434404E-01 -0.93949462193E-01  0.74801465043E-01  0.12719736280E+00  0.20211483051E-01 0.  0.
         14    1    1    2    0    0 -0.54467799028E-02 -0.24160521216E-01  0.27178943194E-02  0.24915560325E-01  0.00000000000E+00 0.  1.
     999901    1    3    3    0    0 -0.31280654501E-01  0.11810998341E+00 -0.77519359362E-01  0.89181707687E+00  0.88000000000E+00 0.  1.
        -11    1    4    4    0    0  0.35730444805E-01 -0.68519791044E-01  0.59138200798E-01  0.97309888323E-01  0.51100000000E-03 0.  1.
         11    1    4    4    0    0  0.99698959885E-03 -0.25429671148E-01  0.15663264245E-01  0.29887474480E-01  0.51100000000E-03 0. -1.
</event>
<event>
 8    1  0.9956970E+004  0.1043930E+01  0.7957747E-01            NaN
         13   -1    0    0    0    0  0.00000000000E+00  0.00000000000E+00  0.74505805969E-08  0.10566000000E+00  0.10566000000E+00 0. -1.
     999900   -1    0    0    0    0 -0.00000000000E+00 -0.00000000000E+00 -0.74505805969E-08  0.93827000000E+00  0.93827000000E+00 0.  1.
     999902    2    1    2    0    0  0.23388369034E-01 -0.93029606649E-02 -0.20231151703E-02  0.10186781906E+01  0.10183651615E+01 0.  0.
     999903    2    3    3    0    0 -0.27339143326E-01  0.52942838431E-02 -0.12469688754E+00  0.12860223064E+00  0.14620593828E-01 0.  0.
         14    1    1    2    0    0 -0.23388369034E-01  0.93029606649E-02  0.20231151703E-02  0.25251809404E-01  0.00000000000E+00 0.  1.
     999901    1    3    3    0    0  0.50727512360E-01 -0.14597244508E-01  0.12267377237E+00  0.89007595995E+00  0.88000000000E+00 0. -1.
        -11    1    4    4    0    0 -0.21617276332E-01  0.96514073693E-02 -0.84100445005E-01  0.87370488560E-01  0.51100000000E-03 0.  1.
         11    1    4    4    0    0 -0.57218669939E-02 -0.43571235263E-02 -0.40596442540E-01  0.41231742083E-01  0.51100000000E-03 0. -1.
</event>
<event>
 8    1  0.9956970E+004  0.1043930E+01  0.7957747E-01            NaN
         13   -1    0    0    0    0  0.00000000000E+00  0.00000000000E+00  0.74505805969E-08  0.10566000000E+00  0.10566000000E+00 0.  1.
     999900   -1    0    0    0    0 -0.00000000000E+00 -0.00000000000E+00 -0.74505805969E-08  0.93827000000E+00  0.93827000000E+00 0. -1.
     999902    2    1    2    0    0  0.50281637749E-02  0.36556696336E-02 -0.22737061628E-01  0.10203584001E+01  0.10200860965E+01 0.  0.
     999903    2    3    3    0    0  0.55376517770E-01 -0.55700474556E-01  0.99837877673E-01  0.12846001778E+00  0.19112110380E-01 0.  0.
         14    1    1    2    0    0 -0.50281637749E-02 -0.36556696336E-02  0.22737061628E-01  0.23571599923E-01  0.00000000000E+00 0.  1.
     999901    1    3    3    0    0 -0.50348353995E-01  0.59356144190E-01 -0.12257493930E+00  0.89189838230E+00  0.88000000000E+00 0. -1.
        -11    1    4    4    0    0  0.42961532734E-01 -0.51661374336E-01  0.88797097559E-01  0.11135428393E+00  0.51100000000E-03 0. -1.
         11    1    4    4    0    0  0.12414985036E-01 -0.40391002205E-02  0.11040780114E-01  0.17105733851E-01  0.51100000000E-03 0.  1.
</event>
<event>
 8    1  0.9956970E+004  0.1043930E+01  0.7957747E-01            NaN
         13   -1    0    0    0    0  0.00000000000E+00  0.00000000000E+00  0.74505805969E-08  0.10566000000E+00  0.10566000000E+00 0.  1.
     999900   -1    0    0    0    0 -0.00000000000E+00 -0.00000000000E+00 -0.74505805969E-08  0.93827000000E+00  0.93827000000E+00 0.  1.
     999902    2    1    2    0    0 -0.15569294451E-01 -0.12204067406E-01 -0.13693134211E-01  0.10198708206E+01  0.10195869980E+01 0.  0.
     999903    2    3    3    0    0 -0.11986259851E-01 -0.12547618929E+00 -0.34340067043E-01  0.13236323886E+00  0.21280091491E-01 0.  0.
         14    1    1    2    0    0  0.15569294451E-01  0.12204067406E-01  0.13693134211E-01  0.24059179443E-01  0.00000000000E+00 0.  1.
     999901    1    3    3    0    0 -0.35830345992E-02  0.11327212188E+00  0.20646932832E-01  0.88750758170E+00  0.88000000000E+00 0.  1.
        -11    1    4    4    0    0 -0.11494504411E-01 -0.27259721703E-01 -0.68806690810E-02  0.30377965485E-01  0.51100000000E-03 0. -1.
         11    1    4    4    0    0 -0.49175544031E-03 -0.98216467584E-01 -0.27459397962E-01  0.10198527338E+00  0.51100000000E-03 0.  1.
</event>
<event>
 8    1  0.9956970E+004  0.1043930E+01  0.7957747E-01            NaN
         13   -1    0    0    0    0  0.00000000000E+00  0.00000000000E+00  0.74505805969E-08  0.10566000000E+00  0.10566000000E+00 0.  1.
     999900   -1    0    0    0    0 -0.00000000000E+00 -0.00000000000E+00 -0.74505805969E-08  0.93827000000E+00  0.93827000000E+00 0.  1.
     999902    2    1    2    0    0 -0.14241573002E-01  0.95194318785E-02  0.16234096046E-01  0.10203294098E+01  0.10200564281E+01 0.  0.
     999903    2    3    3    0    0  0.20162225928E-01 -0.90529074266E-01 -0.86326640160E-01  0.12807830746E+00  0.18701213820E-01 0.  0.
         14    1    1    2    0    0  0.14241573002E-01 -0.95194318785E-02 -0.16234096046E-01  0.23600590232E-01  0.00000000000E+00 0. -1.
     999901    1    3    3    0    0 -0.34403798930E-01  0.10004850614E+00  0.10256073621E+00  0.89225110231E+00  0.88000000000E+00 0. -1.
        -11    1    4    4    0    0  0.12403309493E-01 -0.30992728101E-01 -0.21459323143E-01  0.39688221833E-01  0.51100000000E-03 0.  1.
         11    1    4    4    0    0  0.77589164349E-02 -0.59536346165E-01 -0.64867317017E-01  0.88390085625E-01  0.51100000000E-03 0. -1.
</event>
<event>
 8    1  0.9956970E+004  0.1043930E+01  0.7957747E-01            NaN
         13   -1    0    0    0    0  0.00000000000E+00  0.00000000000E+00  0.74505805969E-08  0.10566000000E+00  0.10566000000E+00 0.  1.
     999900   -1    0    0    0    0 -0.00000000000E+00 -0.00000000000E+00 -0.74505805969E-08  0.93827000000E+00  0.93827000000E+00 0.  1.
     999902    2    1    2    0    0 -0.10747914740E-01  0.20161202671E-01 -0.81728177162E-02  0.10196650724E+01  0.10193763157E+01 0.  0.
     999903    2    3    3    0    0 -0.11236793232E+00 -0.56775643452E-01  0.24784092908E-01  0.12987180185E+00  0.20060103461E-01 0.  0.
         14    1    1    2    0    0  0.10747914740E-01 -0.20161202671E-01  0.81728177162E-02  0.24264927650E-01  0.00000000000E+00 0. -1.
     999901    1    3    3    0    0  0.10162001758E+00  0.76936846123E-01 -0.32956910624E-01  0.88979327050E+00  0.88000000000E+00 0. -1.
        -11    1    4    4    0    0 -0.64567661717E-01 -0.26194072152E-01  0.21937566108E-01  0.73052243519E-01  0.51100000000E-03 0.  1.
         11    1    4    4    0    0 -0.47800270608E-01 -0.30581571300E-01  0.28465267997E-02  0.56819558333E-01  0.51100000000E-03 0. -1.
</event>
<event>
 8    1  0.9956970E+004  0.1043930E+01  0.7957747E-01            NaN
         13   -1    0    0    0    0  0.00000000000E+00  0.00000000000E+00  0.74505805969E-08  0.10566000000E+00  0.10566000000E+00 0. -1.
     999900   -1    0    0    0    0 -0.00000000000E+00 -0.00000000000E+00 -0.74505805969E-08  0.93827000000E+00  0.93827000000E+00 0. -1.
     999902    2    1    2    0    0 -0.16411997798E-01  0.15861768125E-01  0.68038012224E-02  0.10201131767E+01  0.10198351103E+01 0.  0.
     999903    2    3    3    0    0  0.11593552038E+00 -0.38261867679E-01 -0.32047439334E-01  0.12772612370E+00  0.19542489691E-01 0.  0.
         14    1    1    2    0    0  0.16411997798E-01 -0.15861768125E-01 -0.68038012224E-02  0.23816823274E-01  0.00000000000E+00 0.  1.
     999901    1    3    3    0    0 -0.13234751818E+00  0.54123635804E-01  0.38851240556E-01  0.89238705303E+00  0.88000000000E+00 0. -1.
        -11    1    4    4    0    0  0.92612479049E-01 -0.22927346780E-01 -0.20940894972E-01  0.97680687493E-01  0.51100000000E-03 0.  1.
         11    1    4    4    0    0  0.23323041330E-01 -0.15334520899E-01 -0.11106544362E-01  0.30045436205E-01  0.51100000000E-03 0. -1.
</event>
<event>
 8    1  0.9956970E+004  0.1043930E+01  0.7957747E-01            NaN
         13   -1    0    0    0    0  0.00000000000E+00  0.00000000000E+00  0.74505805969E-08  0.10566000000E+00  0.10566000000E+00 0. -1.
     999900   -1    0    0    0    0 -0.00000000000E+00 -0.00000000000E+00 -0.74505805969E-08  0.93827000000E+00  0.93827000000E+00 0.  1.
     999902    2    1    2    0    0 -0.60165311695E-02  0.75219481250E-02 -0.19601981591E-01  0.10220893033E+01  0.10218559232E+01 0.  0.
     999903    2    3    3    0    0  0.60893359441E-01 -0.17318226040E-01  0.11163242343E+00  0.12949956730E+00  0.17332564500E-01 0.  0.
         14    1    1    2    0    0  0.60165311695E-02 -0.75219481250E-02  0.19601981591E-01  0.21840696720E-01  0.00000000000E+00 0. -1.
     999901    1    3    3    0    0 -0.66909890610E-01  0.24840174165E-01 -0.13123440502E+00  0.89258973598E+00  0.88000000000E+00 0.  1.
        -11    1    4    4    0    0  0.13360503248E-01 -0.10672481971E-01  0.22498336913E-01  0.28263778999E-01  0.51100000000E-03 0.  1.
         11    1    4    4    0    0  0.47532856193E-01 -0.66457440690E-02  0.89134086521E-01  0.10123578830E+00  0.51100000000E-03 0. -1.
</event>
<event>
 8    1  0.9956970E+004  0.1043930E+01  0.7957747E-01            NaN
         13   -1    0    0    0    0  0.00000000000E+00  0.00000000000E+00  0.74505805969E-08  0.10566000000E+00  0.10566000000E+00 0. -1.
     999900   -1    0    0    0    0 -0.00000000000E+00 -0.00000000000E+00 -0.74505805969E-08  0.93827000000E+00  0.93827000000E+00 0. -1.
     999902    2    1    2    0    0 -0.23646201522E-01  0.15758701749E-02  0.93552025566E-03  0.10202128878E+01  0.10199371721E+01 0.  0.
     999903    2    3    3    0    0  0.39861670111E-01 -0.20053813680E-01  0.12008063917E+00  0.12965314676E+00  0.19986754976E-01 0.  0.
         14    1    1    2    0    0  0.23646201522E-01 -0.15758701749E-02 -0.93552025566E-03  0.23717112206E-01  0.00000000000E+00 0.  1.
     999901    1    3    3    0    0 -0.63507871634E-01  0.21629683855E-01 -0.11914511892E+00  0.89055974103E+00  0.88000000000E+00 0. -1.
        -11    1    4    4    0    0  0.20049960972E-01 -0.17114693005E-01  0.87679761153E-01  0.91558261716E-01  0.51100000000E-03 0. -1.
         11    1    4    4    0    0  0.19811709139E-01 -0.29391206754E-02  0.32400878019E-01  0.38094885047E-01  0.51100000000E-03 0.  1.
</event>
<event>
 8    1  0.9956970E+004  0.1043930E+01  0.7957747E-01            NaN
         13   -1    0    0    0    0  0.00000000000E+00  0.00000000000E+00  0.74505805969E-08  0.10566000000E+00  0.10566000000E+00 0.  1.
     999900   -1    0    0    0    0 -0.00000000000E+00 -0.00000000000E+00 -0.74505805969E-08  0.93827000000E+00  0.93827000000E+00 0.  1.
     999902    2    1    2    0    0 -0.10423184163E-01  0.14553712139E-02 -0.20502365276E-01  0.10208842226E+01  0.10206240680E+01 0.  0.
     999903    2    3    3    0    0 -0.82001216488E-03 -0.11923588304E+00 -0.53125505319E-01  0.13199566434E+00  0.19561898296E-01 0.  0.
         14    1    1    2    0    0  0.10423184163E-01 -0.14553712139E-02  0.20502365276E-01  0.23045777387E-01  0.00000000000E+00 0.  1.
     999901    1    3    3    0    0 -0.96031719978E-02  0.12069125425E+00  0.32623140043E-01  0.88888855827E+00  0.88000000000E+00 0.  1.
        -11    1    4    4    0    0  0.57622819422E-02 -0.91882232708E-01 -0.46251144136E-01  0.10302901550E+00  0.51100000000E-03 0. -1.
         11    1    4    4    0    0 -0.65822941071E-02 -0.27353650331E-01 -0.68743611830E-02  0.28966648836E-01  0.51100000000E-03 0.  1.
</event>
<event>
 8    1  0.9956970E+004  0.1043930E+01  0.7957747E-01            NaN
         13   -1    0    0    0    0  0.00000000000E+00  0.00000000000E+00  0.74505805969E-08  0.10566000000E+00  0.10566000000E+00 0. -1.
     999900   -1    0    0    0    0 -0.00000000000E+00 -0.00000000000E+00 -0.74505805969E-08  0.93827000000E+00  0.93827000000E+00 0.  1.
     999902    2    1    2    0    0  0.21969555413E-01 -0.63129690470E-02  0.70288462206E-02  0.10200151590E+01  0.10197347718E+01 0.  0.
     999903    2    3    3    0    0 -0.25120276098E-01  0.80484935712E-01 -0.94865355722E-01  0.12864892844E+00  0.21029929264E-01 0.  0.
         14    1    1    2    0    0 -0.21969555413E-01  0.63129690470E-02 -0.70288462206E-02  0.23914841050E-01  0.00000000000E+00 0.  1.
     999901    1    3    3    0    0  0.47089831512E-01 -0.86797904759E-01  0.10189420194E+00  0.89136623051E+00  0.88000000000E+00 0. -1.
        -11    1    4    4    0    0 -0.22648488587E-01  0.78832535118E-01 -0.95144152707E-01  0.12561924034E+00  0.51100000000E-03 0.  1.
         11    1    4    4    0    0 -0.24717875115E-02  0.16524005943E-02  0.27879698513E-03  0.30296881003E-02  0.51100000000E-03 0. -1.
</event>
<event>
 8    1  0.9956970E+004  0.1043930E+01  0.7957747E-01            NaN
         13   -1    0    0    0    0  0.00000000000E+00  0.00000000000E+00  0.74505805969E-08  0.10566000000E+00  0.10566000000E+00 0.  1.
     999900   -1    0    0    0    0 -0.00000000000E+00 -0.00000000000E+00 -0.74505805969E-08  0.93827000000E+00  0.93827000000E+00 0.  1.
     999902    2    1    2    0    0 -0.18162565487E-01 -0.39718455558E-02  0.17126629608E-01  0.10186520297E+01  0.10183383435E+01 0.  0.
     999903    2    3    3    0    0  0.22650547919E-01  0.18725191073E-01  0.12587845619E+00  0.13072870782E+00  0.19517407985E-01 0.  0.
         14    1    1    2    0    0  0.18162565487E-01  0.39718455558E-02 -0.17126629608E-01  0.25277970328E-01  0.00000000000E+00 0. -1.
     999901    1    3    3    0    0 -0.40813113406E-01 -0.22697036629E-01 -0.10875182658E+00  0.88792332185E+00  0.88000000000E+00 0.  1.
        -11    1    4    4    0    0  0.14348869628E-01 -0.46245989400E-03  0.51695493565E-01  0.53654348423E-01  0.51100000000E-03 0. -1.
         11    1    4    4    0    0  0.83016782909E-02  0.19187650967E-01  0.74182962625E-01  0.77074359400E-01  0.51100000000E-03 0.  1.
</event>
<event>
 8    1  0.9956970E+004  0.1043930E+01  0.7957747E-01            NaN
         13   -1    0    0    0    0  0.00000000000E+00  0.00000000000E+00  0.74505805969E-08  0.10566000000E+00  0.10566000000E+00 0. -1.
     999900   -1    0    0    0    0 -0.00000000000E+00 -0.00000000000E+00 -0.74505805969E-08  0.93827000000E+00  0.93827000000E+00 0.  1.
     999902    2    1    2    0    0  0.66050981250E-03  0.72100370451E-02  0.22742232393E-01  0.10200630764E+01  0.10197838250E+01 0.  0.
     999903    2    3    3    0    0 -0.51856352941E-01  0.37918748679E-01  0.11498064639E+00  0.13315328908E+00  0.19553426975E-01 0.  0.
         14    1    1    2    0    0 -0.66050981250E-03 -0.72100370451E-02 -0.22742232393E-01  0.23866923589E-01  0.00000000000E+00 0.  1.
     999901    1    3    3    0    0  0.52516862753E-01 -0.30708711634E-01 -0.92238414001E-01  0.88690978733E+00  0.88000000000E+00 0.  1.
        -11    1    4    4    0    0 -0.25447652946E-01  0.20745674598E-01  0.77633133971E-01  0.84291937136E-01  0.51100000000E-03 0. -1.
         11    1    4    4    0    0 -0.26408699995E-01  0.17173074081E-01  0.37347512422E-01  0.48861351945E-01  0.51100000000E-03 0.  1.
</event>
<event>
 8    1  0.9956970E+004  0.1043930E+01  0.7957747E-01            NaN
         13   -1    0    0    0    0  0.00000000000E+00  0.00000000000E+00  0.74505805969E-08  0.10566000000E+00  0.10566000000E+00 0. -1.
     999900   -1    0    0    0    0 -0.00000000000E+00 -0.00000000000E+00 -0.74505805969E-08  0.93827000000E+00  0.93827000000E+00 0. -1.
     999902    2    1    2    0    0 -0.51982358067E-02  0.22377743161E-01 -0.60142015556E-02  0.10201822493E+01  0.10199058123E+01 0.  0.
     999903    2    3    3    0    0 -0.71041305721E-02  0.76671363018E-02 -0.12950186300E+00  0.13143637056E+00  0.19888019907E-01 0.  0.
         14    1    1    2    0    0  0.51982358067E-02 -0.22377743161E-01  0.60142015556E-02  0.23747750732E-01  0.00000000000E+00 0. -1.
     999901    1    3    3    0    0  0.19058947654E-02  0.14710606859E-01  0.12348766144E+00  0.88874587871E+00  0.88000000000E+00 0.  1.
        -11    1    4    4    0    0  0.66451609140E-02  0.40137531767E-03 -0.30777483814E-01  0.31493394493E-01  0.51100000000E-03 0.  1.
         11    1    4    4    0    0 -0.13749291486E-01  0.72657609842E-02 -0.98724379185E-01  0.99942976069E-01  0.51100000000E-03 0. -1.
</event>
<event>
 7    1  0.9956970E+004  0.1043930E+01  0.7957747E-01            NaN
         13   -1    0    0    0    0  0.00000000000E+00  0.00000000000E+00  0.74505805969E-08  0.10566000000E+00  0.10566000000E+00 0.  1.
     999900   -1    0    0    0    0 -0.00000000000E+00 -0.00000000000E+00 -0.74505805969E-08  0.93827000000E+00  0.93827000000E+00 0. -1.
     999903    2    1    2    0    0  0.25527251429E-01 -0.59450287808E-01  0.37958543332E-01  0.77433441984E-01  0.19212226307E-01 0.  0.
         14    1    1    2    0    0 -0.74709431608E-01 -0.26346060374E-01 -0.15206116342E-01  0.80664986473E-01  0.00000000000E+00 0. -1.
     999901    1    1    2    0    0  0.49182180180E-01  0.85796348182E-01 -0.22752426990E-01  0.88583157154E+00  0.88000000000E+00 0.  1.
        -11    1    3    3    0    0  0.19263460151E-01 -0.21136440858E-01  0.17763251953E-01  0.33669337239E-01  0.51100000000E-03 0.  1.
         11    1    3    3    0    0  0.62637912772E-02 -0.38313846951E-01  0.20195291379E-01  0.43764104746E-01  0.51100000000E-03 0. -1.
</event>
<event>
 8    1  0.1030518E+005  0.1043930E+01  0.7957747E-01            NaN
         13   -1    0    0    0    0  0.00000000000E+00  0.00000000000E+00  0.74505805969E-08  0.10566000000E+00  0.10566000000E+00 0. -1.
     999900   -1    0    0    0    0 -0.00000000000E+00 -0.00000000000E+00 -0.74505805969E-08  0.93827000000E+00  0.93827000000E+00 0.  1.
     999902    2    1    2    0    0 -0.35765024513E-02 -0.30643186488E-01 -0.87238453878E-02  0.10118690935E+01  0.10113610437E+01 0.  0.
     999903    2    3    3    0    0  0.41593593327E-01 -0.14411872339E-02 -0.11497249803E+00  0.12384777026E+00  0.19684787759E-01 0.  0.
         14    1    1    2    0    0  0.35765024513E-02  0.30643186488E-01  0.87238453878E-02  0.32060906511E-01  0.00000000000E+00 0. -1.
     999901    1    3    3    0    0 -0.45170095778E-01 -0.29201999254E-01  0.10624865264E+00  0.88802132322E+00  0.88000000000E+00 0. -1.
        -11    1    4    4    0    0  0.15054253456E-01  0.53694678665E-02 -0.64090341528E-01  0.66055239992E-01  0.51100000000E-03 0. -1.
         11    1    4    4    0    0  0.26539339871E-01 -0.68106551005E-02 -0.50882156505E-01  0.57792530272E-01  0.51100000000E-03 0.  1.
</event>
<event>
 8    1  0.9956970E+004  0.1043930E+01  0.7957747E-01            NaN
         13   -1    0    0    0    0  0.00000000000E+00  0.00000000000E+00  0.74505805969E-08  0.10566000000E+00  0.10566000000E+00 0.  1.
     999900   -1    0    0    0    0 -0.00000000000E+00 -0.00000000000E+00 -0.74505805969E-08  0.93827000000E+00  0.93827000000E+00 0.  1.
     999902    2    1    2    0    0 -0.58740212002E-04 -0.11057977535E-01  0.20791794589E-01  0.10203804556E+01  0.10201086673E+01 0.  0.
     999903    2    3    3    0    0 -0.90493511927E-01  0.59731758299E-01 -0.66403772954E-01  0.12864467547E+00  0.19571224101E-01 0.  0.
         14    1    1    2    0    0  0.58740212002E-04  0.11057977535E-01 -0.20791794589E-01  0.23549544365E-01  0.00000000000E+00 0. -1.
     999901    1    3    3    0    0  0.90434771715E-01 -0.70789735833E-01  0.87195567544E-01  0.89173578017E+00  0.88000000000E+00 0. -1.
        -11    1    4    4    0    0 -0.42356649753E-01  0.16567532126E-01 -0.29131280297E-01  0.54013530821E-01  0.51100000000E-03 0.  1.
         11    1    4    4    0    0 -0.48136862174E-01  0.43164226173E-01 -0.37272492657E-01  0.74631144644E-01  0.51100000000E-03 0. -1.
</event>
<event>
 8    1  0.9956970E+004  0.1043930E+01  0.7957747E-01            NaN
         13   -1    0    0    0    0  0.00000000000E+00  0.00000000000E+00  0.74505805969E-08  0.10566000000E+00  0.10566000000E+00 0. -1.
     999900   -1    0    0    0    0 -0.00000000000E+00 -0.00000000000E+00 -0.74505805969E-08  0.93827000000E+00  0.93827000000E+00 0.  1.
     999902    2    1    2    0    0 -0.11442630033E-01 -0.17491621486E-01 -0.11812687243E-01  0.10199210395E+01  0.10196384147E+01 0.  0.
     999903    2    3    3    0    0  0.11485742177E+00 -0.13456685269E-01  0.52553993329E-01  0.12856754432E+00  0.19859041363E-01 0.  0.
         14    1    1    2    0    0  0.11442630033E-01  0.17491621486E-01  0.11812687243E-01  0.24008960498E-01  0.00000000000E+00 0. -1.
     999901    1    3    3    0    0 -0.12630005181E+00 -0.40349362173E-02 -0.64366680572E-01  0.89135349518E+00  0.88000000000E+00 0.  1.
        -11    1    4    4    0    0  0.43313845494E-01 -0.14621359833E-01  0.22547537854E-01  0.50975738927E-01  0.51100000000E-03 0.  1.
         11    1    4    4    0    0  0.71543576280E-01  0.11646745637E-02  0.30006455475E-01  0.77591805398E-01  0.51100000000E-03 0. -1.
</event>
<event>
 8    1  0.9956970E+004  0.1043930E+01  0.7957747E-01            NaN
         13   -1    0    0    0    0  0.00000000000E+00  0.00000000000E+00  0.74505805969E-08  0.10566000000E+00  0.10566000000E+00 0.  1.
     999900   -1    0    0    0    0 -0.00000000000E+00 -0.00000000000E+00 -0.74505805969E-08  0.93827000000E+00  0.93827000000E+00 0.  1.
     999902    2    1    2    0    0  0.42058634800E-02  0.42764538196E-02  0.23544769666E-01  0.10196332199E+01  0.10193436955E+01 0.  0.
     999903    2    3    3    0    0  0.23856343911E-01  0.45492343209E-01 -0.11509870507E+00  0.12760917089E+00  0.19942671576E-01 0.  0.
         14    1    1    2    0    0 -0.42058634800E-02 -0.42764538196E-02 -0.23544769666E-01  0.24296780106E-01  0.00000000000E+00 0. -1.
     999901    1    3    3    0    0 -0.19650480431E-01 -0.41215889389E-01  0.13864347474E+00  0.89202404901E+00  0.88000000000E+00 0. -1.
        -11    1    4    4    0    0  0.13433613325E-01  0.34866658972E-01 -0.98279174719E-01  0.10514372630E+00  0.51100000000E-03 0. -1.
         11    1    4    4    0    0  0.10422730586E-01  0.10625684237E-01 -0.16819530354E-01  0.22465444592E-01  0.51100000000E-03 0.  1.
</event>
<event>
 8    1  0.9956970E+004  0.1043930E+01  0.7957747E-01            NaN
         13   -1    0    0    0    0  0.00000000000E+00  0.00000000000E+00  0.74505805969E-08  0.10566000000E+00  0.10566000000E+00 0. -1.
     999900   -1    0    0    0    0 -0.00000000000E+00 -0.00000000000E+00 -0.74505805969E-08  0.93827000000E+00  0.93827000000E+00 0. -1.
     999902    2    1    2    0    0  0.58391906080E-02 -0.13544183221E-01  0.18740553354E-01  0.10200815328E+01  0.10198027183E+01 0.  0.
     999903    2    3    3    0    0 -0.10356404486E+00 -0.30832184515E-01 -0.67338129686E-01  0.12897128006E+00  0.20567750997E-01 0.  0.
         14    1    1    2    0    0 -0.58391906080E-02  0.13544183221E-01 -0.18740553354E-01  0.23848467164E-01  0.00000000000E+00 0.  1.
     999901    1    3    3    0    0  0.10940323547E+00  0.17288001294E-01  0.86078683040E-01  0.89111025277E+00  0.88000000000E+00 0.  1.
        -11    1    4    4    0    0 -0.69040522327E-01 -0.10356373566E-01 -0.44406608944E-01  0.82740898204E-01  0.51100000000E-03 0.  1.
         11    1    4    4    0    0 -0.34523522537E-01 -0.20475810949E-01 -0.22931520742E-01  0.46230381860E-01  0.51100000000E-03 0. -1.
</event>
<event>
 8    1  0.9956970E+004  0.1043930E+01  0.7957747E-01            NaN
         13   -1    0    0    0    0  0.00000000000E+00  0.00000000000E+00  0.74505805969E-08  0.10566000000E+00  0.10566000000E+00 0. -1.
     999900   -1    0    0    0    0 -0.00000000000E+00 -0.00000000000E+00 -0.74505805969E-08  0.93827000000E+00  0.93827000000E+00 0. -1.
     999902    2    1    2    0    0  0.24449404793E-01 -0.84093619512E-02  0.10318124644E-01  0.10160919961E+01  0.10157105838E+01 0.  0.
     999903    2    3    3    0    0 -0.50597798289E-01  0.73581917530E-01 -0.83888855897E-01  0.12411127449E+00  0.19794760226E-01 0.  0.
         14    1    1    2    0    0 -0.24449404793E-01  0.84093619512E-02 -0.10318124644E-01  0.27838003868E-01  0.00000000000E+00 0.  1.
     999901    1    3    3    0    0  0.75047203082E-01 -0.81991279481E-01  0.94206980541E-01  0.89198072164E+00  0.88000000000E+00 0.  1.
        -11    1    4    4    0    0 -0.11782875377E-01  0.17972896075E-01 -0.32743871713E-01  0.39169929810E-01  0.51100000000E-03 0.  1.
         11    1    4    4    0    0 -0.38814922911E-01  0.55609021454E-01 -0.51144984184E-01  0.84941344679E-01  0.51100000000E-03 0. -1.
</event>
<event>
 8    1  0.9956970E+004  0.1043930E+01  0.7957747E-01            NaN
         13   -1    0    0    0    0  0.00000000000E+00  0.00000000000E+00  0.74505805969E-08  0.10566000000E+00  0.10566000000E+00 0. -1.
     999900   -1    0    0    0    0 -0.00000000000E+00 -0.00000000000E+00 -0.74505805969E-08  0.93827000000E+00  0.93827000000E+00 0.  1.
     999902    2    1    2    0    0  0.22242700441E-01 -0.45895320750E-02 -0.71879525428E-02  0.10201084092E+01  0.10198302301E+01 0.  0.
     999903    2    3    3    0    0  0.80623026141E-01  0.57487377130E-01  0.84296139635E-01  0.13127144763E+00  0.17929945145E-01 0.  0.
         14    1    1    2    0    0 -0.22242700441E-01  0.45895320750E-02  0.71879525428E-02  0.23821590822E-01  0.00000000000E+00 0.  1.
     999901    1    3    3    0    0 -0.58380325701E-01 -0.62076909205E-01 -0.91484092178E-01  0.88883696154E+00  0.88000000000E+00 0.  1.
        -11    1    4    4    0    0  0.51360857747E-01  0.25754939330E-01  0.48625616292E-01  0.75272613142E-01  0.51100000000E-03 0. -1.
         11    1    4    4    0    0  0.29262168395E-01  0.31732437800E-01  0.35670523343E-01  0.55998834492E-01  0.51100000000E-03 0.  1.
</event>
<event>
 8    1  0.9956970E+004  0.1043930E+01  0.7957747E-01            NaN
         13   -1    0    0    0    0  0.00000000000E+00  0.00000000000E+00  0.74505805969E-08  0.10566000000E+00  0.10566000000E+00 0. -1.
     999900   -1    0    0    0    0 -0.00000000000E+00 -0.00000000000E+00 -0.74505805969E-08  0.93827000000E+00  0.93827000000E+00 0.  1.
     999902    2    1    2    0    0 -0.99927245937E-02  0.23394258429E-01 -0.23612171008E-02  0.10183815907E+01  0.10180610704E+01 0.  0.
     999903    2    3    3    0    0  0.52180286361E-01  0.48880466970E-01  0.10588662325E+00  0.12920634077E+00  0.19241080472E-01 0.  0.
         14    1    1    2    0    0  0.99927245937E-02 -0.23394258429E-01  0.23612171008E-02  0.25548409313E-01  0.00000000000E+00 0. -1.
     999901    1    3    3    0    0 -0.62173010954E-01 -0.25486208541E-01 -0.10824784035E+00  0.88917524991E+00  0.88000000000E+00 0.  1.
        -11    1    4    4    0    0  0.71118748710E-02  0.15618507713E-01  0.33834351911E-01  0.37941284079E-01  0.51100000000E-03 0. -1.
         11    1    4    4    0    0  0.45068411490E-01  0.33261959257E-01  0.72052271336E-01  0.91265056695E-01  0.51100000000E-03 0.  1.
</event>
<event>
 8    1  0.9956970E+004  0.1043930E+01  0.7957747E-01            NaN
         13   -1    0    0    0    0  0.00000000000E+00  0.00000000000E+00  0.74505805969E-08  0.10566000000E+00  0.10566000000E+00 0.  1.
     999900   -1    0    0    0    0 -0.00000000000E+00 -0.00000000000E+00 -0.74505805969E-08  0.93827000000E+00  0.93827000000E+00 0. -1.
     999902    2    1    2    0    0  0.94280626341E-02 -0.13396374808E-01 -0.16987596444E-01  0.10203306429E+01  0.10200576901E+01 0.  0.
     999903    2    3    3    0    0  0.58073576701E-01  0.47966452430E-01 -0.10709389391E+00  0.13227043804E+00  0.18789512927E-01 0.  0.
         14    1    1    2    0    0 -0.94280626341E-02  0.13396374808E-01  0.16987596444E-01  0.23599357109E-01  0.00000000000E+00 0.  1.
     999901    1    3    3    0    0 -0.48645514066E-01 -0.61362827238E-01  0.90106297464E-01  0.88806020486E+00  0.88000000000E+00 0.  1.
        -11    1    4    4    0    0  0.22563030859E-01  0.12924029389E-01 -0.50650256175E-01  0.56937074642E-01  0.51100000000E-03 0.  1.
         11    1    4    4    0    0  0.35510545842E-01  0.35042423041E-01 -0.56443637733E-01  0.75333363393E-01  0.51100000000E-03 0. -1.
</event>
<event>
 8    1  0.9956970E+004  0.1043930E+01  0.7957747E-01            NaN
         13   -1    0    0    0    0  0.00000000000E+00  0.00000000000E+00  0.74505805969E-08  0.10566000000E+00  0.10566000000E+00 0.  1.
     999900   -1    0    0    0    0 -0.00000000000E+00 -0.00000000000E+00 -0.74505805969E-08  0.93827000000E+00  0.93827000000E+00 0.  1.
     999902    2    1    2    0    0  0.10440241257E-01  0.19609876527E-01 -0.67789709492E-02  0.10207028533E+01  0.10204385403E+01 0.  0.
     999903    2    3    3    0    0  0.46586252267E-01  0.11331665732E+00 -0.50078618557E-01  0.13393210824E+00  0.20469437103E-01 0.  0.
         14    1    1    2    0    0 -0.10440241257E-01 -0.19609876527E-01  0.67789709492E-02  0.23227146662E-01  0.00000000000E+00 0.  1.
     999901    1    3    3    0    0 -0.36146011010E-01 -0.93706780790E-01  0.43299647607E-01  0.88677074510E+00  0.88000000000E+00 0.  1.
        -11    1    4    4    0    0  0.73433982315E-02  0.26752800061E-01 -0.31273350129E-02  0.27922735431E-01  0.51100000000E-03 0.  1.
         11    1    4    4    0    0  0.39242854036E-01  0.86563857257E-01 -0.46951283544E-01  0.10600937281E+00  0.51100000000E-03 0. -1.
</event>
<event>
 8    1  0.9956970E+004  0.1043930E+01  0.7957747E-01            NaN
         13   -1    0    0    0    0  0.00000000000E+00  0.00000000000E+00  0.74505805969E-08  0.10566000000E+00  0.10566000000E+00 0.  1.
     999900   -1    0    0    0    0 -0.00000000000E+00 -0.00000000000E+00 -0.74505805969E-08  0.93827000000E+00  0.93827000000E+00 0. -1.
     999902    2    1    2    0    0  0.13158083305E-01  0.23531036726E-01 -0.95898278369E-03  0.10169528894E+01  0.10165950103E+01 0.  0.
     999903    2    3    3    0    0  0.16434449563E-01 -0.94640707897E-01  0.77692825955E-01  0.12557115146E+00  0.22471852404E-01 0.  0.
         14    1    1    2    0    0 -0.13158083305E-01 -0.23531036726E-01  0.95898278369E-03  0.26977110550E-01  0.00000000000E+00 0.  1.
     999901    1    3    3    0    0 -0.32763662580E-02  0.11817174462E+00 -0.78651808739E-01  0.89138173799E+00  0.88000000000E+00 0. -1.
        -11    1    4    4    0    0  0.19529401330E-01 -0.53691399504E-01  0.51029142896E-01  0.76605472668E-01  0.51100000000E-03 0. -1.
         11    1    4    4    0    0 -0.30949517672E-02 -0.40949308392E-01  0.26663683059E-01  0.48965678792E-01  0.51100000000E-03 0.  1.
</event>
<event>
 8    1  0.9956970E+004  0.1043930E+01  0.7957747E-01            NaN
         13   -1    0    0    0    0  0.00000000000E+00  0.00000000000E+00  0.74505805969E-08  0.10566000000E+00  0.10566000000E+00 0. -1.
     999900   -1    0    0    0    0 -0.00000000000E+00 -0.00000000000E+00 -0.74505805969E-08  0.93827000000E+00  0.93827000000E+00 0. -1.
     999902    2    1    2    0    0  0.64374821817E-02 -0.14185130980E-01  0.18433556898E-01  0.10197958926E+01  0.10195102783E+01 0.  0.
     999903    2    3    3    0    0 -0.85886231802E-01 -0.96777046625E-01  0.53811578558E-02  0.13102401088E+00  0.19902085363E-01 0.  0.
         14    1    1    2    0    0 -0.64374821817E-02  0.14185130980E-01 -0.18433556898E-01  0.24134107351E-01  0.00000000000E+00 0.  1.
     999901    1    3    3    0    0  0.92323713984E-01  0.82591915645E-01  0.13052399042E-01  0.88877188176E+00  0.88000000000E+00 0. -1.
        -11    1    4    4    0    0 -0.66080424922E-01 -0.85682044163E-01  0.46500755131E-02  0.10830475323E+00  0.51100000000E-03 0.  1.
         11    1    4    4    0    0 -0.19805806880E-01 -0.11095002462E-01  0.73108234268E-03  0.22719257650E-01  0.51100000000E-03 0. -1.
</event>
<event>
 8    1  0.9956970E+004  0.1043930E+01  0.7957747E-01            NaN
         13   -1    0    0    0    0  0.00000000000E+00  0.00000000000E+00  0.74505805969E-08  0.10566000000E+00  0.10566000000E+00 0. -1.
     999900   -1    0    0    0    0 -0.00000000000E+00 -0.00000000000E+00 -0.74505805969E-08  0.93827000000E+00  0.93827000000E+00 0.  1.
     999902    2    1    2    0    0 -0.23062886432E-01  0.28010868356E-02 -0.72564148803E-02  0.10195907647E+01  0.10193002154E+01 0.  0.
     999903    2    3    3    0    0  0.83649769007E-01  0.92080027943E-01  0.22280689943E-01  0.12817012285E+00  0.21333913054E-01 0.  0.
         14    1    1    2    0    0  0.23062886432E-01 -0.28010868356E-02  0.72564148803E-02  0.24339235299E-01  0.00000000000E+00 0. -1.
     999901    1    3    3    0    0 -0.10671265544E+00 -0.89278941107E-01 -0.29537104823E-01  0.89142064185E+00  0.88000000000E+00 0. -1.
        -11    1    4    4    0    0  0.75035811430E-02  0.10433095541E-01 -0.40078267213E-02  0.13471340266E-01  0.51100000000E-03 0.  1.
         11    1    4    4    0    0  0.76146187864E-01  0.81646932401E-01  0.26288516664E-01  0.11469878258E+00  0.51100000000E-03 0. -1.
</event>
<event>
 8    1  0.9956970E+004  0.1043930E+01  0.7957747E-01            NaN
         13   -1    0    0    0    0  0.00000000000E+00  0.00000000000E+00  0.74505805969E-08  0.10566000000E+00  0.10566000000E+00 0.  1.
     999900   -1    0    0    0    0 -0.00000000000E+00 -0.00000000000E+00 -0.74505805969E-08  0.93827000000E+00  0.93827000000E+00 0.  1.
     999902    2    1    2    0    0  0.79463990197E-03 -0.22852524497E-01  0.62581792270E-02  0.10202227409E+01  0.10199472569E+01 0.  0.
     999903    2    3    3    0    0 -0.40170580024E-01 -0.40892277674E-01 -0.11564617036E+00  0.13069238591E+00  0.20508757713E-01 0.  0.
         14    1    1    2    0    0 -0.79463990197E-03  0.22852524497E-01 -0.62581792270E-02  0.23707259135E-01  0.00000000000E+00 0.  1.
     999901    1    3    3    0    0  0.40965219926E-01  0.18039753176E-01  0.12190434959E+00  0.88953035496E+00  0.88000000000E+00 0. -1.
        -11    1    4    4    0    0 -0.28922403935E-01 -0.20691562254E-01 -0.52216073716E-01  0.63177730833E-01  0.51100000000E-03 0. -1.
         11    1    4    4    0    0 -0.11248176089E-01 -0.20200715420E-01 -0.63430096644E-01  0.67514655077E-01  0.51100000000E-03 0.  1.
</event>
<event>
 8    1  0.9956970E+004  0.1043930E+01  0.7957747E-01            NaN
         13   -1    0    0    0    0  0.00000000000E+00  0.00000000000E+00  0.74505805969E-08  0.10566000000E+00  0.10566000000E+00 0.  1.
     999900   -1    0    0    0    0 -0.00000000000E+00 -0.00000000000E+00 -0.74505805969E-08  0.93827000000E+00  0.93827000000E+00 0.  1.
     999902    2    1    2    0    0 -0.86577296913E-03  0.17564390712E-01  0.16599503994E-01  0.10197473426E+01  0.10194605642E+01 0.  0.
     999903    2    3    3    0    0 -0.10583341150E+00 -0.70272952242E-01 -0.67641778120E-02  0.12886044433E+00  0.20500273317E-01 0.  0.
         14    1    1    2    0    0  0.86577296913E-03 -0.17564390712E-01 -0.16599503994E-01  0.24182657355E-01  0.00000000000E+00 0. -1.
     999901    1    3    3    0    0  0.10496763853E+00  0.87837342955E-01  0.23363681806E-01  0.89088689831E+00  0.88000000000E+00 0.  1.
        -11    1    4    4    0    0 -0.84181863162E-01 -0.45242103139E-01 -0.58139685929E-02  0.95747048694E-01  0.51100000000E-03 0.  1.
         11    1    4    4    0    0 -0.21651548337E-01 -0.25030849103E-01 -0.95020921914E-03  0.33113395639E-01  0.51100000000E-03 0. -1.
</event>
<event>
 8    1  0.9956970E+004  0.1043930E+01  0.7957747E-01            NaN
         13   -1    0    0    0    0  0.00000000000E+00  0.00000000000E+00  0.74505805969E-08  0.10566000000E+00  0.10566000000E+00 0.  1.
     999900   -1    0    0    0    0 -0.00000000000E+00 -0.00000000000E+00 -0.74505805969E-08  0.93827000000E+00  0.93827000000E+00 0. -1.
     999902    2    1    2    0    0  0.15297225047E-01  0.18130236645E-01 -0.48843224042E-02  0.10197108510E+01  0.10194231959E+01 0.  0.
     999903    2    3    3    0    0 -0.65504404354E-01 -0.90935906699E-01  0.56986471333E-01  0.12715703070E+00  0.19007536005E-01 0.  0.
         14    1    1    2    0    0 -0.15297225047E-01 -0.18130236645E-01  0.48843224042E-02  0.24219149042E-01  0.00000000000E+00 0. -1.
     999901    1    3    3    0    0  0.80801629401E-01  0.10906614334E+00 -0.61870793737E-01  0.89255382026E+00  0.88000000000E+00 0. -1.
        -11    1    4    4    0    0 -0.33950476761E-01 -0.54949528624E-01  0.23471297736E-01  0.68725894004E-01  0.51100000000E-03 0. -1.
         11    1    4    4    0    0 -0.31553927593E-01 -0.35986378075E-01  0.33515173597E-01  0.58431136697E-01  0.51100000000E-03 0.  1.
</event>
<event>
 8    1  0.9956970E+004  0.1043930E+01  0.7957747E-01            NaN
         13   -1    0    0    0    0  0.00000000000E+00  0.00000000000E+00  0.74505805969E-08  0.10566000000E+00  0.10566000000E+00 0. -1.
     999900   -1    0    0    0    0 -0.00000000000E+00 -0.00000000000E+00 -0.74505805969E-08  0.93827000000E+00  0.93827000000E+00 0. -1.
     999902    2    1    2    0    0 -0.18724844403E-01  0.13586130918E-01  0.13768911143E-01  0.10170081564E+01  0.10166517616E+01 0.  0.
     999903    2    3    3    0    0 -0.11245371160E+00  0.49450488398E-01 -0.37354635178E-01  0.12983006281E+00  0.19216877576E-01 0.  0.
         14    1    1    2    0    0  0.18724844403E-01 -0.13586130918E-01 -0.13768911143E-01  0.26921843646E-01  0.00000000000E+00 0. -1.
     999901    1    3    3    0    0  0.93728867195E-01 -0.35864357480E-01  0.51123546321E-01  0.88717809355E+00  0.88000000000E+00 0.  1.
        -11    1    4    4    0    0 -0.36432167105E-01  0.21022074005E-01 -0.46405928744E-02  0.42320522429E-01  0.51100000000E-03 0. -1.
         11    1    4    4    0    0 -0.76021544494E-01  0.28428414393E-01 -0.32714042304E-01  0.87509540377E-01  0.51100000000E-03 0.  1.
</event>
<event>
 8    1  0.9956970E+004  0.1043930E+01  0.7957747E-01            NaN
         13   -1    0    0    0    0  0.00000000000E+00  0.00000000000E+00  0.74505805969E-08  0.10566000000E+00  0.10566000000E+00 0.  1.
     999900   -1    0    0    0    0 -0.00000000000E+00 -0.00000000000E+00 -0.74505805969E-08  0.93827000000E+00  0.93827000000E+00 0. -1.
     999902    2    1    2    0    0 -0.86996537943E-02  0.18630438172E-01  0.26042256553E-01  0.10107490366E+01  0.10102042560E+01 0.  0.
     999903    2    3    3    0    0  0.83829354500E-01  0.51699300538E-01 -0.66186922682E-01  0.12048986734E+00  0.20902656422E-01 0.  0.
         14    1    1    2    0    0  0.86996537943E-02 -0.18630438172E-01 -0.26042256553E-01  0.33180963352E-01  0.00000000000E+00 0. -1.
     999901    1    3    3    0    0 -0.92529008295E-01 -0.33068862367E-01  0.92229179234E-01  0.89025916931E+00  0.88000000000E+00 0.  1.
        -11    1    4    4    0    0  0.68621231620E-01  0.49165726034E-01 -0.49928855830E-01  0.98077998608E-01  0.51100000000E-03 0. -1.
         11    1    4    4    0    0  0.15208122881E-01  0.25335745047E-02 -0.16258066852E-01  0.22411868732E-01  0.51100000000E-03 0.  1.
</event>
<event>
 8    1  0.9956970E+004  0.1043930E+01  0.7957747E-01            NaN
         13   -1    0    0    0    0  0.00000000000E+00  0.00000000000E+00  0.74505805969E-08  0.10566000000E+00  0.10566000000E+00 0. -1.
     999900   -1    0    0    0    0 -0.00000000000E+00 -0.00000000000E+00 -0.74505805969E-08  0.93827000000E+00  0.93827000000E+00 0. -1.
     999902    2    1    2    0    0  0.66984017172E-02 -0.48371839469E-02  0.22048273327E-01  0.10203844422E+01  0.10201127470E+01 0.  0.
     999903    2    3    3    0    0  0.88380305686E-01 -0.85229408013E-02 -0.91807374446E-01  0.12929038054E+00  0.20092026902E-01 0.  0.
         14    1    1    2    0    0 -0.66984017172E-02  0.48371839469E-02 -0.22048273327E-01  0.23545557773E-01  0.00000000000E+00 0.  1.
     999901    1    3    3    0    0 -0.81681903969E-01  0.36857568544E-02  0.11385564777E+00  0.89109406168E+00  0.88000000000E+00 0.  1.
        -11    1    4    4    0    0  0.39674907097E-01 -0.99358288061E-02 -0.53283839069E-01  0.67173265323E-01  0.51100000000E-03 0. -1.
         11    1    4    4    0    0  0.48705398589E-01  0.14128880048E-02 -0.38523535378E-01  0.62117115220E-01  0.51100000000E-03 0.  1.
</event>
<event>
 8    1  0.9956970E+004  0.1043930E+01  0.7957747E-01            NaN
         13   -1    0    0    0    0  0.00000000000E+00  0.00000000000E+00  0.74505805969E-08  0.10566000000E+00  0.10566000000E+00 0.  1.
     999900   -1    0    0    0    0 -0.00000000000E+00 -0.00000000000E+00 -0.74505805969E-08  0.93827000000E+00  0.93827000000E+00 0.  1.
     999902    2    1    2    0    0  0.86729272671E-02 -0.21465439704E-01  0.39490834967E-02  0.10204442590E+01  0.10201739586E+01 0.  0.
     999903    2    3    3    0    0  0.72333696343E-01 -0.59546665021E-01  0.92866165114E-01  0.13285813889E+00  0.15785800716E-01 0.  0.
         14    1    1    2    0    0 -0.86729272671E-02  0.21465439704E-01 -0.39490834967E-02  0.23485740983E-01  0.00000000000E+00 0.  1.
     999901    1    3    3    0    0 -0.63660769076E-01  0.38081225317E-01 -0.88917081617E-01  0.88758612013E+00  0.88000000000E+00 0.  1.
        -11    1    4    4    0    0  0.85885675893E-02 -0.66759075918E-02  0.46013788813E-02  0.11822226695E-01  0.51100000000E-03 0. -1.
         11    1    4    4    0    0  0.63745128753E-01 -0.52870757429E-01  0.88264786232E-01  0.12103591219E+00  0.51100000000E-03 0.  1.
</event>
<event>
 8    1  0.9956970E+004  0.1043930E+01  0.7957747E-01            NaN
         13   -1    0    0    0    0  0.00000000000E+00  0.00000000000E+00  0.74505805969E-08  0.10566000000E+00  0.10566000000E+00 0. -1.
     999900   -1    0    0    0    0 -0.00000000000E+00 -0.00000000000E+00 -0.74505805969E-08  0.93827000000E+00  0.93827000000E+00 0. -1.
     999902    2    1    2    0    0 -0.11631483209E-01 -0.10438244267E-01  0.17879897154E-01  0.10201825987E+01  0.10199061700E+01 0.  0.
     999903    2    3    3    0    0  0.56180853031E-01 -0.11648145696E+00  0.11636956324E-01  0.13120416805E+00  0.18838707450E-01 0.  0.
         14    1    1    2    0    0  0.11631483209E-01  0.10438244267E-01 -0.17879897154E-01  0.23747401274E-01  0.00000000000E+00 0.  1.
     999901    1    3    3    0    0 -0.67812336240E-01  0.10604321269E+00  0.62429408307E-02  0.88897843068E+00  0.88000000000E+00 0.  1.
        -11    1    4    4    0    0  0.30527741166E-01 -0.64729467233E-01  0.15795561541E-01  0.73291253192E-01  0.51100000000E-03 0.  1.
         11    1    4    4    0    0  0.25653111865E-01 -0.51751989723E-01 -0.41586052177E-02  0.57912914855E-01  0.51100000000E-03 0. -1.
</event>
<event>
 8    1  0.9956970E+004  0.1043930E+01  0.7957747E-01            NaN
         13   -1    0    0    0    0  0.00000000000E+00  0.00000000000E+00  0.74505805969E-08  0.10566000000E+00  0.10566000000E+00 0. -1.
     999900   -1    0    0    0    0 -0.00000000000E+00 -0.00000000000E+00 -0.74505805969E-08  0.93827000000E+00  0.93827000000E+00 0.  1.
     999902    2    1    2    0    0  0.59998044914E-02 -0.14370605697E-01  0.18680083499E-01  0.10196101011E+01  0.10193200188E+01 0.  0.
     999903    2    3    3    0    0  0.39733100555E-01 -0.53474816226E-01  0.11351288654E+00  0.13300966401E+00  0.19186455138E-01 0.  0.
         14    1    1    2    0    0 -0.59998044914E-02  0.14370605697E-01 -0.18680083499E-01  0.24319898880E-01  0.00000000000E+00 0.  1.
     999901    1    3    3    0    0 -0.33733296064E-01  0.39104210529E-01 -0.94832803039E-01  0.88660043711E+00  0.88000000000E+00 0.  1.
        -11    1    4    4    0    0  0.34836669359E-01 -0.33246632208E-01  0.72877990291E-01  0.87352130341E-01  0.51100000000E-03 0.  1.
         11    1    4    4    0    0  0.48964311963E-02 -0.20228184018E-01  0.40634896246E-01  0.45657533673E-01  0.51100000000E-03 0. -1.
</event>
<event>
 8    1  0.9956970E+004  0.1043930E+01  0.7957747E-01            NaN
         13   -1    0    0    0    0  0.00000000000E+00  0.00000000000E+00  0.74505805969E-08  0.10566000000E+00  0.10566000000E+00 0.  1.
     999900   -1    0    0    0    0 -0.00000000000E+00 -0.00000000000E+00 -0.74505805969E-08  0.93827000000E+00  0.93827000000E+00 0. -1.
     999902    2    1    2    0    0 -0.17420714938E-01 -0.12169569487E-01  0.93061352836E-02  0.10207312094E+01  0.10204675487E+01 0.  0.
     999903    2    3    3    0    0  0.11727485950E+00  0.20108227892E-02  0.51063903671E-01  0.12939081848E+00  0.19417146265E-01 0.  0.
         14    1    1    2    0    0  0.17420714938E-01  0.12169569487E-01 -0.93061352836E-02  0.23198790580E-01  0.00000000000E+00 0. -1.
     999901    1    3    3    0    0 -0.13469557444E+00 -0.14180392276E-01 -0.41757768388E-01  0.89134039094E+00  0.88000000000E+00 0. -1.
        -11    1    4    4    0    0  0.92109620112E-01  0.70280723555E-02  0.33387554665E-01  0.98227113597E-01  0.51100000000E-03 0.  1.
         11    1    4    4    0    0  0.25165239392E-01 -0.50172495663E-02  0.17676349007E-01  0.31163704884E-01  0.51100000000E-03 0. -1.
</event>
<event>
 8    1  0.9956970E+004  0.1043930E+01  0.7957747E-01            NaN
         13   -1    0    0    0    0  0.00000000000E+00  0.00000000000E+00  0.74505805969E-08  0.10566000000E+00  0.10566000000E+00 0.  1.
     999900   -1    0    0    0    0 -0.00000000000E+00 -0.00000000000E+00 -0.74505805969E-08  0.93827000000E+00  0.93827000000E+00 0.  1.
     999902    2    1    2    0    0  0.88741440556E-02 -0.11218413310E-01  0.18350155984E-01  0.10206634692E+01  0.10203982487E+01 0.  0.
     999903    2    3    3    0    0  0.69348334157E-01 -0.75679165231E-02 -0.10749829372E+00  0.12964815729E+00  0.19654432700E-01 0.  0.
         14    1    1    2    0    0 -0.88741440556E-02  0.11218413310E-01 -0.18350155984E-01  0.23266530780E-01  0.00000000000E+00 0. -1.
     999901    1    3    3    0    0 -0.60474190101E-01 -0.36504967866E-02  0.12584844971E+00  0.89101531193E+00  0.88000000000E+00 0. -1.
        -11    1    4    4    0    0  0.58162438148E-01  0.46998890092E-03 -0.80264932294E-01  0.99125226749E-01  0.51100000000E-03 0. -1.
         11    1    4    4    0    0  0.11185896008E-01 -0.80379054241E-02 -0.27233361431E-01  0.30522930543E-01  0.51100000000E-03 0.  1.
</event>
<event>
 8    1  0.9956970E+004  0.1043930E+01  0.7957747E-01            NaN
         13   -1    0    0    0    0  0.00000000000E+00  0.00000000000E+00  0.74505805969E-08  0.10566000000E+00  0.10566000000E+00 0. -1.
     999900   -1    0    0    0    0 -0.00000000000E+00 -0.00000000000E+00 -0.74505805969E-08  0.93827000000E+00  0.93827000000E+00 0. -1.
     999902    2    1    2    0    0 -0.22910266534E-01 -0.18329614205E-02  0.51184044513E-02  0.10203834902E+01  0.10201117728E+01 0.  0.
     999903    2    3    3    0    0  0.10446636221E+00  0.69322209375E-01  0.18164301399E-01  0.12827471918E+00  0.20141305561E-01 0.  0.
         14    1    1    2    0    0  0.22910266534E-01  0.18329614205E-02 -0.51184044513E-02  0.23546509813E-01  0.00000000000E+00 0. -1.
     999901    1    3    3    0    0 -0.12737662874E+00 -0.71155170796E-01 -0.13045896948E-01  0.89210877101E+00  0.88000000000E+00 0. -1.
        -11    1    4    4    0    0  0.83525770739E-01  0.45577437344E-01  0.16451291287E-01  0.96564813874E-01  0.51100000000E-03 0.  1.
         11    1    4    4    0    0  0.20940591469E-01  0.23744772031E-01  0.17130101121E-02  0.31709905306E-01  0.51100000000E-03 0. -1.
</event>
<event>
 8    1  0.1519545E+005  0.1043930E+01  0.7957747E-01            NaN
         13   -1    0    0    0    0  0.00000000000E+00  0.00000000000E+00  0.74505805969E-08  0.10566000000E+00  0.10566000000E+00 0.  1.
     999900   -1    0    0    0    0 -0.00000000000E+00 -0.00000000000E+00 -0.74505805969E-08  0.93827000000E+00  0.93827000000E+00 0. -1.
     999902    2    1    2    0    0 -0.11201997530E-01 -0.20094690540E-01 -0.56816454694E-02  0.10202326915E+01  0.10199574414E+01 0.  0.
     999903    2    3    3    0    0  0.10685447206E-01 -0.74667174170E-01 -0.10708390331E+00  0.13246040416E+00  0.19733997138E-01 0.  0.
         14    1    1    2    0    0  0.11201997530E-01  0.20094690540E-01  0.56816454694E-02  0.23697308535E-01  0.00000000000E+00 0. -1.
     999901    1    3    3    0    0 -0.21887444736E-01  0.54572483630E-01  0.10140225784E+00  0.88777228730E+00  0.88000000000E+00 0. -1.
        -11    1    4    4    0    0  0.16051343694E-01 -0.44566900392E-01 -0.66359655429E-01  0.81533546682E-01  0.51100000000E-03 0. -1.
         11    1    4    4    0    0 -0.53658964882E-02 -0.30100273778E-01 -0.40724247878E-01  0.50926857481E-01  0.51100000000E-03 0.  1.
</event>
<event>
 8    1  0.9956970E+004  0.1043930E+01  0.7957747E-01            NaN
         13   -1    0    0    0    0  0.00000000000E+00  0.00000000000E+00  0.74505805969E-08  0.10566000000E+00  0.10566000000E+00 0. -1.
     999900   -1    0    0    0    0 -0.00000000000E+00 -0.00000000000E+00 -0.74505805969E-08  0.93827000000E+00  0.93827000000E+00 0. -1.
     999902    2    1    2    0    0  0.69778523808E-02  0.28212177799E-01 -0.47963545313E-02  0.10144745690E+01  0.10140468572E+01 0.  0.
     999903    2    3    3    0    0  0.36673610743E-02 -0.33941076300E-02  0.12295591548E+00  0.12468214424E+00  0.20062662740E-01 0.  0.
         14    1    1    2    0    0 -0.69778523808E-02 -0.28212177799E-01  0.47963545313E-02  0.29455431024E-01  0.00000000000E+00 0.  1.
     999901    1    3    3    0    0  0.33104913065E-02  0.31606285429E-01 -0.12775227001E+00  0.88979242474E+00  0.88000000000E+00 0. -1.
        -11    1    4    4    0    0  0.49449320111E-02  0.73668349094E-02  0.37413784595E-01  0.38454843751E-01  0.51100000000E-03 0. -1.
         11    1    4    4    0    0 -0.12775709368E-02 -0.10760942539E-01  0.85542130884E-01  0.86227300486E-01  0.51100000000E-03 0.  1.
</event>
<event>
 8    1  0.9956970E+004  0.1043930E+01  0.7957747E-01            NaN
         13   -1    0    0    0    0  0.00000000000E+00  0.00000000000E+00  0.74505805969E-08  0.10566000000E+00  0.10566000000E+00 0.  1.
     999900   -1    0    0    0    0 -0.00000000000E+00 -0.00000000000E+00 -0.74505805969E-08  0.93827000000E+00  0.93827000000E+00 0. -1.
     999902    2    1    2    0    0  0.43072243384E-02  0.24787952094E-01 -0.20232501283E-02  0.10186893920E+01  0.10183766440E+01 0.  0.
     999903    2    3    3    0    0  0.64833085635E-01  0.25050103012E-01  0.10852019103E+00  0.12971059531E+00  0.14743473760E-01 0.  0.
         14    1    1    2    0    0 -0.43072243384E-02 -0.24787952094E-01  0.20232501283E-02  0.25240607988E-01  0.00000000000E+00 0.  1.
     999901    1    3    3    0    0 -0.60525861296E-01 -0.26215091779E-03 -0.11054344116E+00  0.88897879671E+00  0.88000000000E+00 0. -1.
        -11    1    4    4    0    0  0.34197586925E-01  0.60248782732E-02  0.47734464521E-01  0.59030622001E-01  0.51100000000E-03 0.  1.
         11    1    4    4    0    0  0.30635498709E-01  0.19025224739E-01  0.60785726514E-01  0.70679973305E-01  0.51100000000E-03 0. -1.
</event>
<event>
 8    1  0.9956970E+004  0.1043930E+01  0.7957747E-01            NaN
         13   -1    0    0    0    0  0.00000000000E+00  0.00000000000E+00  0.74505805969E-08  0.10566000000E+00  0.10566000000E+00 0. -1.
     999900   -1    0    0    0    0 -0.00000000000E+00 -0.00000000000E+00 -0.74505805969E-08  0.93827000000E+00  0.93827000000E+00 0.  1.
     999902    2    1    2    0    0  0.19748806659E-01  0.89568728758E-03 -0.14228055618E-01  0.10195731696E+01  0.10192821950E+01 0.  0.
     999903    2    3    3    0    0 -0.49935246791E-01 -0.11696686040E+00 -0.23077419190E-02  0.12890513867E+00  0.20890998025E-01 0.  0.
         14    1    1    2    0    0 -0.19748806659E-01 -0.89568728758E-03  0.14228055618E-01  0.24356830394E-01  0.00000000000E+00 0. -1.
     999901    1    3    3    0    0  0.69684053450E-01  0.11786254769E+00 -0.11920313699E-01  0.89066803094E+00  0.88000000000E+00 0. -1.
        -11    1    4    4    0    0 -0.33759811989E-01 -0.81980422252E-01 -0.11140018404E-01  0.89358131523E-01  0.51100000000E-03 0. -1.
         11    1    4    4    0    0 -0.16175434802E-01 -0.34986438149E-01  0.88322764848E-02  0.39547007147E-01  0.51100000000E-03 0.  1.
</event>
<event>
 8    1  0.9956970E+004  0.1043930E+01  0.7957747E-01            NaN
         13   -1    0    0    0    0  0.00000000000E+00  0.00000000000E+00  0.74505805969E-08  0.10566000000E+00  0.10566000000E+00 0. -1.
     999900   -1    0    0    0    0 -0.00000000000E+00 -0.00000000000E+00 -0.74505805969E-08  0.93827000000E+00  0.93827000000E+00 0. -1.
     999902    2    1    2    0    0  0.92845581184E-03  0.18860705434E-01 -0.14518783792E-01  0.10201101905E+01  0.10198320536E+01 0.  0.
     999903    2    3    3    0    0 -0.43216202687E-01 -0.88678471959E-01 -0.82213817769E-01  0.12988772219E+00  0.19498640430E-01 0.  0.
         14    1    1    2    0    0 -0.92845581184E-03 -0.18860705434E-01  0.14518783792E-01  0.23819809454E-01  0.00000000000E+00 0. -1.
     999901    1    3    3    0    0  0.44144658499E-01  0.10753917739E+00  0.67695033977E-01  0.89022246836E+00  0.88000000000E+00 0.  1.
        -11    1    4    4    0    0 -0.19917534434E-01 -0.31536128658E-01 -0.20289178216E-01  0.42463483870E-01  0.51100000000E-03 0. -1.
         11    1    4    4    0    0 -0.23298668253E-01 -0.57142343301E-01 -0.61924639553E-01  0.87424238315E-01  0.51100000000E-03 0.  1.
</event>
<event>
 8    1  0.9956970E+004  0.1043930E+01  0.7957747E-01            NaN
         13   -1    0    0    0    0  0.00000000000E+00  0.00000000000E+00  0.74505805969E-08  0.10566000000E+00  0.10566000000E+00 0.  1.
     999900   -1    0    0    0    0 -0.00000000000E+00 -0.00000000000E+00 -0.74505805969E-08  0.93827000000E+00  0.93827000000E+00 0. -1.
     999902    2    1    2    0    0 -0.12602041918E-01  0.73934672374E-02 -0.18137593652E-01  0.10206395058E+01  0.10203737323E+01 0.  0.
     999903    2    3    3    0    0 -0.12273974996E+00  0.45580953243E-01 -0.43639383135E-02  0.13284543482E+00  0.22049854355E-01 0.  0.
         14    1    1    2    0    0  0.12602041918E-01 -0.73934672374E-02  0.18137593652E-01  0.23290494236E-01  0.00000000000E+00 0.  1.
     999901    1    3    3    0    0  0.11013770804E+00 -0.38187486006E-01 -0.13773655338E-01  0.88779407094E+00  0.88000000000E+00 0. -1.
        -11    1    4    4    0    0 -0.95848286317E-01  0.38429980442E-01  0.52523171747E-02  0.10340021926E+00  0.51100000000E-03 0.  1.
         11    1    4    4    0    0 -0.26891463640E-01  0.71509728012E-02 -0.96162554882E-02  0.29445215559E-01  0.51100000000E-03 0. -1.
</event>
<event>
 8    1  0.9956970E+004  0.1043930E+01  0.7957747E-01            NaN
         13   -1    0    0    0    0  0.00000000000E+00  0.00000000000E+00  0.74505805969E-08  0.10566000000E+00  0.10566000000E+00 0.  1.
     999900   -1    0    0    0    0 -0.00000000000E+00 -0.00000000000E+00 -0.74505805969E-08  0.93827000000E+00  0.93827000000E+00 0. -1.
     999902    2    1    2    0    0  0.15265005559E-01  0.14565097908E-01  0.40228205300E-02  0.10224510439E+01  0.10222254113E+01 0.  0.
     999903    2    3    3    0    0  0.96836838667E-01  0.14029600908E-01 -0.89119665607E-01  0.13378362945E+00  0.19533092081E-01 0.  0.
         14    1    1    2    0    0 -0.15265005559E-01 -0.14565097908E-01 -0.40228205300E-02  0.21478956138E-01  0.00000000000E+00 0. -1.
     999901    1    3    3    0    0 -0.81571833109E-01  0.53549700025E-03  0.93142486136E-01  0.88866741441E+00  0.88000000000E+00 0.  1.
        -11    1    4    4    0    0  0.81179582649E-01  0.18867630383E-01 -0.75814529950E-01  0.11266861226E+00  0.51100000000E-03 0. -1.
         11    1    4    4    0    0  0.15657256019E-01 -0.48380294752E-02 -0.13305135656E-01  0.21115017193E-01  0.51100000000E-03 0.  1.
</event>
<event>
 8    1  0.9956970E+004  0.1043930E+01  0.7957747E-01            NaN
         13   -1    0    0    0    0  0.00000000000E+00  0.00000000000E+00  0.74505805969E-08  0.10566000000E+00  0.10566000000E+00 0.  1.
     999900   -1    0    0    0    0 -0.00000000000E+00 -0.00000000000E+00 -0.74505805969E-08  0.93827000000E+00  0.93827000000E+00 0.  1.
     999902    2    1    2    0    0 -0.22786575467E-01 -0.12382847823E-02  0.41491287527E-02  0.10207356766E+01  0.10204721186E+01 0.  0.
     999903    2    3    3    0    0 -0.82450480844E-01 -0.86836664377E-01  0.54471775227E-01  0.13314385993E+00  0.20528640197E-01 0.  0.
         14    1    1    2    0    0  0.22786575467E-01  0.12382847823E-02 -0.41491287527E-02  0.23194323446E-01  0.00000000000E+00 0. -1.
     999901    1    3    3    0    0  0.59663905377E-01  0.85598379595E-01 -0.50322646474E-01  0.88759181663E+00  0.88000000000E+00 0.  1.
        -11    1    4    4    0    0 -0.35699583968E-01 -0.47183737119E-01  0.18166528864E-01  0.61895470238E-01  0.51100000000E-03 0.  1.
         11    1    4    4    0    0 -0.46750896876E-01 -0.39652927259E-01  0.36305246363E-01  0.71248389690E-01  0.51100000000E-03 0. -1.
</event>
<event>
 8    1  0.9956970E+004  0.1043930E+01  0.7957747E-01            NaN
         13   -1    0    0    0    0  0.00000000000E+00  0.00000000000E+00  0.74505805969E-08  0.10566000000E+00  0.10566000000E+00 0. -1.
     999900   -1    0    0    0    0 -0.00000000000E+00 -0.00000000000E+00 -0.74505805969E-08  0.93827000000E+00  0.93827000000E+00 0. -1.
     999902    2    1    2    0    0 -0.10712875797E-01  0.19837501879E-01 -0.61130080552E-02  0.10205706110E+01  0.10203032446E+01 0.  0.
     999903    2    3    3    0    0 -0.11787069049E+00 -0.50114930538E-01  0.18555186368E-01  0.13097257822E+00  0.20112567318E-01 0.  0.
         14    1    1    2    0    0  0.10712875797E-01 -0.19837501879E-01  0.61130080552E-02  0.23359389036E-01  0.00000000000E+00 0.  1.
     999901    1    3    3    0    0  0.10715781469E+00  0.69952432417E-01 -0.24668194423E-01  0.88959803275E+00  0.88000000000E+00 0.  1.
        -11    1    4    4    0    0 -0.18768953502E-01 -0.72132215878E-02  0.10480456582E-01  0.22680504236E-01  0.51100000000E-03 0. -1.
         11    1    4    4    0    0 -0.99101736989E-01 -0.42901708950E-01  0.80747297863E-02  0.10829207398E+00  0.51100000000E-03 0.  1.
</event>
<event>
 8    1  0.9956970E+004  0.1043930E+01  0.7957747E-01            NaN
         13   -1    0    0    0    0  0.00000000000E+00  0.00000000000E+00  0.74505805969E-08  0.10566000000E+00  0.10566000000E+00 0. -1.
     999900   -1    0    0    0    0 -0.00000000000E+00 -0.00000000000E+00 -0.74505805969E-08  0.93827000000E+00  0.93827000000E+00 0.  1.
     999902    2    1    2    0    0  0.51188121135E-03  0.23387225171E-01  0.13687692934E-02  0.10204971629E+01  0.10202280930E+01 0.  0.
     999903    2    3    3    0    0  0.51581875935E-01 -0.46575335503E-01  0.10800416698E+00  0.12983784967E+00  0.19052960965E-01 0.  0.
         14    1    1    2    0    0 -0.51188121135E-03 -0.23387225171E-01 -0.13687692934E-02  0.23432837066E-01  0.00000000000E+00 0.  1.
     999901    1    3    3    0    0 -0.51069994724E-01  0.69962560674E-01 -0.10663539768E+00  0.89065931326E+00  0.88000000000E+00 0.  1.
        -11    1    4    4    0    0  0.45355116153E-01 -0.42877621232E-01  0.10462802701E+00  0.12183128547E+00  0.51100000000E-03 0. -1.
         11    1    4    4    0    0  0.62267597818E-02 -0.36977142709E-02  0.33761399704E-02  0.80065642013E-02  0.51100000000E-03 0.  1.
</event>
<event>
 8    1  0.9956970E+004  0.1043930E+01  0.7957747E-01            NaN
         13   -1    0    0    0    0  0.00000000000E+00  0.00000000000E+00  0.74505805969E-08  0.10566000000E+00  0.10566000000E+00 0.  1.
     999900   -1    0    0    0    0 -0.00000000000E+00 -0.00000000000E+00 -0.74505805969E-08  0.93827000000E+00  0.93827000000E+00 0.  1.
     999902    2    1    2    0    0 -0.61523004024E-02 -0.84664123390E-02 -0.19674778052E-01  0.10216448518E+01  0.10214017698E+01 0.  0.
     999903    2    3    3    0    0 -0.10496375625E+00 -0.34367653183E-01 -0.73415945000E-01  0.13410742100E+00  0.19909135425E-01 0.  0.
         14    1    1    2    0    0  0.61523004024E-02  0.84664123390E-02  0.19674778052E-01  0.22285148183E-01  0.00000000000E+00 0.  1.
     999901    1    3    3    0    0  0.98811455852E-01  0.25901240844E-01  0.53741166948E-01  0.88753743082E+00  0.88000000000E+00 0. -1.
        -11    1    4    4    0    0 -0.75486977976E-01 -0.33843556460E-01 -0.55021867403E-01  0.99354603171E-01  0.51100000000E-03 0. -1.
         11    1    4    4    0    0 -0.29476778279E-01 -0.52409672294E-03 -0.18394077597E-01  0.34752817824E-01  0.51100000000E-03 0.  1.
</event>
<event>
 8    1  0.9956970E+004  0.1043930E+01  0.7957747E-01            NaN
         13   -1    0    0    0    0  0.00000000000E+00  0.00000000000E+00  0.74505805969E-08  0.10566000000E+00  0.10566000000E+00 0. -1.
     999900   -1    0    0    0    0 -0.00000000000E+00 -0.00000000000E+00 -0.74505805969E-08  0.93827000000E+00  0.93827000000E+00 0.  1.
     999902    2    1    2    0    0  0.65324535223E-03  0.22950678025E-01  0.45873802298E-02  0.10205162346E+01  0.10202476076E+01 0.  0.
     999903    2    3    3    0    0  0.12696250394E+00  0.18822685071E-01 -0.18340607042E-01  0.13119246809E+00  0.20032846451E-01 0.  0.
         14    1    1    2    0    0 -0.65324535223E-03 -0.22950678025E-01 -0.45873802298E-02  0.23413765367E-01  0.00000000000E+00 0.  1.
     999901    1    3    3    0    0 -0.12630925859E+00  0.41279929544E-02  0.22927987272E-01  0.88932376654E+00  0.88000000000E+00 0. -1.
        -11    1    4    4    0    0  0.39294347189E-01 -0.34197842352E-02 -0.63468508593E-02  0.39953526529E-01  0.51100000000E-03 0. -1.
         11    1    4    4    0    0  0.87668156754E-01  0.22242469306E-01 -0.11993756183E-01  0.91238941564E-01  0.51100000000E-03 0.  1.
</event>
<event>
 8    1  0.9956970E+004  0.1043930E+01  0.7957747E-01            NaN
         13   -1    0    0    0    0  0.00000000000E+00  0.00000000000E+00  0.74505805969E-08  0.10566000000E+00  0.10566000000E+00 0.  1.
     999900   -1    0    0    0    0 -0.00000000000E+00 -0.00000000000E+00 -0.74505805969E-08  0.93827000000E+00  0.93827000000E+00 0. -1.
     999902    2    1    2    0    0 -0.37106770389E-02 -0.17288763959E-01  0.14748537511E-01  0.10209041484E+01  0.10206444486E+01 0.  0.
     999903    2    3    3    0    0 -0.87497070016E-01  0.60188521770E-01  0.74050445094E-01  0.13155629424E+00  0.23349405157E-01 0.  0.
         14    1    1    2    0    0  0.37106770389E-02  0.17288763959E-01 -0.14748537511E-01  0.23025851603E-01  0.00000000000E+00 0. -1.
     999901    1    3    3    0    0  0.83786392977E-01 -0.77477285729E-01 -0.59301907582E-01  0.88934785416E+00  0.88000000000E+00 0. -1.
        -11    1    4    4    0    0 -0.34409696327E-01  0.19880869592E-01  0.41195056666E-01  0.57241331150E-01  0.51100000000E-03 0. -1.
         11    1    4    4    0    0 -0.53087373689E-01  0.40307652178E-01  0.32855388427E-01  0.74314963090E-01  0.51100000000E-03 0.  1.
</event>
<event>
 8    1  0.9956970E+004  0.1043930E+01  0.7957747E-01            NaN
         13   -1    0    0    0    0  0.00000000000E+00  0.00000000000E+00  0.74505805969E-08  0.10566000000E+00  0.10566000000E+00 0. -1.
     999900   -1    0    0    0    0 -0.00000000000E+00 -0.00000000000E+00 -0.74505805969E-08  0.93827000000E+00  0.93827000000E+00 0.  1.
     999902    2    1    2    0    0 -0.93273541869E-02 -0.85214065084E-02  0.19280785097E-01  0.10208786968E+01  0.10206184160E+01 0.  0.
     999903    2    3    3    0    0  0.84524748865E-01 -0.19545179559E-01  0.98337153553E-01  0.13229575177E+00  0.17479214859E-01 0.  0.
         14    1    1    2    0    0  0.93273541869E-02  0.85214065084E-02 -0.19280785097E-01  0.23051303194E-01  0.00000000000E+00 0.  1.
     999901    1    3    3    0    0 -0.93852103052E-01  0.11023773051E-01 -0.79056368456E-01  0.88858294504E+00  0.88000000000E+00 0.  1.
        -11    1    4    4    0    0  0.26331996359E-01 -0.14008619666E-01  0.28993689191E-01  0.41599406139E-01  0.51100000000E-03 0. -1.
         11    1    4    4    0    0  0.58192752506E-01 -0.55365598937E-02  0.69343464361E-01  0.90696345628E-01  0.51100000000E-03 0.  1.
</event>
<event>
 8    1  0.9956970E+004  0.1043930E+01  0.7957747E-01            NaN
         13   -1    0    0    0    0  0.00000000000E+00  0.00000000000E+00  0.74505805969E-08  0.10566000000E+00  0.10566000000E+00 0. -1.
     999900   -1    0    0    0    0 -0.00000000000E+00 -0.00000000000E+00 -0.74505805969E-08  0.93827000000E+00  0.93827000000E+00 0.  1.
     999902    2    1    2    0    0  0.74584928002E-02 -0.17858446344E-01  0.13308297732E-01  0.10204424712E+01  0.10201721291E+01 0.  0.
     999903    2    3    3    0    0 -0.96406099905E-01 -0.82265952132E-01 -0.25929946750E-01  0.13113047856E+00  0.21471313184E-01 0.  0.
         14    1    1    2    0    0 -0.74584928002E-02  0.17858446344E-01 -0.13308297732E-01  0.23487528802E-01  0.00000000000E+00 0. -1.
     999901    1    3    3    0    0  0.10386459271E+00  0.64407505788E-01  0.39238244482E-01  0.88931199264E+00  0.88000000000E+00 0. -1.
        -11    1    4    4    0    0 -0.83430394008E-01 -0.65847766910E-01 -0.14473023001E-01  0.10726736954E+00  0.51100000000E-03 0.  1.
         11    1    4    4    0    0 -0.12975705897E-01 -0.16418185222E-01 -0.11456923749E-01  0.23863109024E-01  0.51100000000E-03 0. -1.
</event>
<event>
 8    1  0.9956970E+004  0.1043930E+01  0.7957747E-01            NaN
         13   -1    0    0    0    0  0.00000000000E+00  0.00000000000E+00  0.74505805969E-08  0.10566000000E+00  0.10566000000E+00 0.  1.
     999900   -1    0    0    0    0 -0.00000000000E+00 -0.00000000000E+00 -0.74505805969E-08  0.93827000000E+00  0.93827000000E+00 0. -1.
     999902    2    1    2    0    0  0.70981097060E-02 -0.44450316607E-02  0.22308315800E-01  0.10201013949E+01  0.10198230501E+01 0.  0.
     999903    2    3    3    0    0  0.79786077034E-01 -0.94306544200E-01 -0.36998631906E-01  0.13056446700E+00  0.20460667439E-01 0.  0.
         14    1    1    2    0    0 -0.70981097060E-02  0.44450316607E-02 -0.22308315800E-01  0.23828605114E-01  0.00000000000E+00 0. -1.
     999901    1    3    3    0    0 -0.72687967328E-01  0.89861512539E-01  0.59306947706E-01  0.88953692789E+00  0.88000000000E+00 0. -1.
        -11    1    4    4    0    0  0.31843741845E-01 -0.49794475114E-01 -0.24368578259E-01  0.63934359885E-01  0.51100000000E-03 0. -1.
         11    1    4    4    0    0  0.47942335189E-01 -0.44512069086E-01 -0.12630053647E-01  0.66630107112E-01  0.51100000000E-03 0.  1.
</event>
<event>
 8    1  0.9956970E+004  0.1043930E+01  0.7957747E-01            NaN
         13   -1    0    0    0    0  0.00000000000E+00  0.00000000000E+00  0.74505805969E-08  0.10566000000E+00  0.10566000000E+00 0. -1.
     999900   -1    0    0    0    0 -0.00000000000E+00 -0.00000000000E+00 -0.74505805969E-08  0.93827000000E+00  0.93827000000E+00 0. -1.
     999902    2    1    2    0    0 -0.60417449891E-02 -0.16566293010E-01 -0.14097637030E-01  0.10213537267E+01  0.10211041802E+01 0.  0.
     999903    2    3    3    0    0  0.72661606576E-01 -0.27276553739E-01 -0.10616486722E+00  0.13299270655E+00  0.19808117300E-01 0.  0.
         14    1    1    2    0    0  0.60417449891E-02  0.16566293010E-01  0.14097637030E-01  0.22576273307E-01  0.00000000000E+00 0.  1.
     999901    1    3    3    0    0 -0.78703351565E-01  0.10710260729E-01  0.92067230185E-01  0.88836102014E+00  0.88000000000E+00 0.  1.
        -11    1    4    4    0    0  0.51954847004E-01 -0.13714378292E-01 -0.84251159010E-01  0.99929521237E-01  0.51100000000E-03 0.  1.
         11    1    4    4    0    0  0.20706759572E-01 -0.13562175447E-01 -0.21913708205E-01  0.33063185315E-01  0.51100000000E-03 0. -1.
</event>
<event>
 8    1  0.9956970E+004  0.1043930E+01  0.7957747E-01            NaN
         13   -1    0    0    0    0  0.00000000000E+00  0.00000000000E+00  0.74505805969E-08  0.10566000000E+00  0.10566000000E+00 0.  1.
     999900   -1    0    0    0    0 -0.00000000000E+00 -0.00000000000E+00 -0.74505805969E-08  0.93827000000E+00  0.93827000000E+00 0.  1.
     999902    2    1    2    0    0  0.18454469088E-01 -0.90519850160E-02  0.14949261018E-03  0.10233745090E+01  0.10231680495E+01 0.  0.
     999903    2    3    3    0    0 -0.10350754719E+00  0.77260085433E-01 -0.42248335149E-02  0.13076953386E+00  0.19997215822E-01 0.  0.
         14    1    1    2    0    0 -0.18454469088E-01  0.90519850160E-02 -0.14949261018E-03  0.20555490996E-01  0.00000000000E+00 0.  1.
     999901    1    3    3    0    0  0.12196201628E+00 -0.86312070449E-01  0.43743261251E-02  0.89260497514E+00  0.88000000000E+00 0. -1.
        -11    1    4    4    0    0 -0.50720140747E-01  0.49764026266E-01 -0.51088220473E-02  0.71241505959E-01  0.51100000000E-03 0.  1.
         11    1    4    4    0    0 -0.52787406447E-01  0.27496059167E-01  0.88398853242E-03  0.59528027901E-01  0.51100000000E-03 0. -1.
</event>
<event>
 8    1  0.9956970E+004  0.1043930E+01  0.7957747E-01            NaN
         13   -1    0    0    0    0  0.00000000000E+00  0.00000000000E+00  0.74505805969E-08  0.10566000000E+00  0.10566000000E+00 0. -1.
     999900   -1    0    0    0    0 -0.00000000000E+00 -0.00000000000E+00 -0.74505805969E-08  0.93827000000E+00  0.93827000000E+00 0. -1.
     999902    2    1    2    0    0  0.21877642114E-03  0.16210115828E-01  0.16800911702E-01  0.10205829156E+01  0.10203158340E+01 0.  0.
     999903    2    3    3    0    0 -0.17209538487E-02 -0.11263488972E+00 -0.57844287260E-01  0.12807145695E+00  0.19150886471E-01 0.  0.
         14    1    1    2    0    0 -0.21877642114E-03 -0.16210115828E-01 -0.16800911702E-01  0.23347084449E-01  0.00000000000E+00 0.  1.
     999901    1    3    3    0    0  0.19397302699E-02  0.12884500555E+00  0.74645198962E-01  0.89251145860E+00  0.88000000000E+00 0.  1.
        -11    1    4    4    0    0  0.86703844208E-02 -0.44516888378E-01 -0.23058294868E-01  0.50880988592E-01  0.51100000000E-03 0. -1.
         11    1    4    4    0    0 -0.10391338270E-01 -0.68118001339E-01 -0.34785992392E-01  0.77190468357E-01  0.51100000000E-03 0.  1.
</event>
<event>
 8    1  0.9956970E+004  0.1043930E+01  0.7957747E-01            NaN
         13   -1    0    0    0    0  0.00000000000E+00  0.00000000000E+00  0.74505805969E-08  0.10566000000E+00  0.10566000000E+00 0.  1.
     999900   -1    0    0    0    0 -0.00000000000E+00 -0.00000000000E+00 -0.74505805969E-08  0.93827000000E+00  0.93827000000E+00 0. -1.
     999902    2    1    2    0    0 -0.84440082693E-02 -0.67702978032E-02 -0.20557800439E-01  0.10206972351E+01  0.10204327926E+01 0.  0.
     999903    2    3    3    0    0  0.52804365676E-01 -0.80172476107E-01 -0.86789156579E-01  0.13304536882E+00  0.30867223820E-01 0.  0.
         14    1    1    2    0    0  0.84440082693E-02  0.67702978032E-02  0.20557800439E-01  0.23232764943E-01  0.00000000000E+00 0.  1.
     999901    1    3    3    0    0 -0.61248373945E-01  0.73402178304E-01  0.66231356140E-01  0.88765186623E+00  0.88000000000E+00 0.  1.
        -11    1    4    4    0    0  0.11858008540E-01 -0.35301257389E-01 -0.18296847038E-01  0.41494901762E-01  0.51100000000E-03 0.  1.
         11    1    4    4    0    0  0.40946357136E-01 -0.44871218718E-01 -0.68492309541E-01  0.91550467062E-01  0.51100000000E-03 0. -1.
</event>
<event>
 8    1  0.9956970E+004  0.1043930E+01  0.7957747E-01            NaN
         13   -1    0    0    0    0  0.00000000000E+00  0.00000000000E+00  0.74505805969E-08  0.10566000000E+00  0.10566000000E+00 0.  1.
     999900   -1    0    0    0    0 -0.00000000000E+00 -0.00000000000E+00 -0.74505805969E-08  0.93827000000E+00  0.93827000000E+00 0. -1.
     999902    2    1    2    0    0 -0.76500923576E-02 -0.26349438143E-02 -0.22077192009E-01  0.10204168282E+01  0.10201458886E+01 0.  0.
     999903    2    3    3    0    0  0.84264741243E-01  0.12177032475E-01  0.93869474749E-01  0.12794197654E+00  0.17573967538E-01 0.  0.
         14    1    1    2    0    0  0.76500923576E-02  0.26349438143E-02  0.22077192009E-01  0.23513171819E-01  0.00000000000E+00 0.  1.
     999901    1    3    3    0    0 -0.91914833600E-01 -0.14811976289E-01 -0.11594666676E+00  0.89247485164E+00  0.88000000000E+00 0.  1.
        -11    1    4    4    0    0  0.16925266674E-01  0.90807116240E-02  0.25483823100E-01  0.31915675402E-01  0.51100000000E-03 0.  1.
         11    1    4    4    0    0  0.67339474568E-01  0.30963208511E-02  0.68385651650E-01  0.96026301139E-01  0.51100000000E-03 0. -1.
</event>
<event>
 8    1  0.9956970E+004  0.1043930E+01  0.7957747E-01            NaN
         13   -1    0    0    0    0  0.00000000000E+00  0.00000000000E+00  0.74505805969E-08  0.10566000000E+00  0.10566000000E+00 0.  1.
     999900   -1    0    0    0    0 -0.00000000000E+00 -0.00000000000E+00 -0.74505805969E-08  0.93827000000E+00  0.93827000000E+00 0.  1.
     999902    2    1    2    0    0  0.16133994580E-01 -0.11976044810E-02  0.17656019198E-01  0.10199826609E+01  0.10197015021E+01 0.  0.
     999903    2    3    3    0    0  0.27112045317E-01  0.15139487661E-02 -0.12414557576E+00  0.12855932572E+00  0.19442767451E-01 0.  0.
         14    1    1    2    0    0 -0.16133994580E-01  0.11976044810E-02 -0.17656019198E-01  0.23947339132E-01  0.00000000000E+00 0. -1.
     999901    1    3    3    0    0 -0.10978050737E-01 -0.27115532472E-02  0.14180159496E+00  0.89142333515E+00  0.88000000000E+00 0. -1.
        -11    1    4    4    0    0  0.13238052038E-02 -0.47393818205E-02 -0.78904288432E-02  0.93131191654E-02  0.51100000000E-03 0. -1.
         11    1    4    4    0    0  0.25788240113E-01  0.62533305867E-02 -0.11625514692E+00  0.11924620655E+00  0.51100000000E-03 0.  1.
</event>
<event>
 8    1  0.9956970E+004  0.1043930E+01  0.7957747E-01            NaN
         13   -1    0    0    0    0  0.00000000000E+00  0.00000000000E+00  0.74505805969E-08  0.10566000000E+00  0.10566000000E+00 0. -1.
     999900   -1    0    0    0    0 -0.00000000000E+00 -0.00000000000E+00 -0.74505805969E-08  0.93827000000E+00  0.93827000000E+00 0.  1.
     999902    2    1    2    0    0  0.11484241438E-01 -0.22805740639E-02 -0.19439979706E-01  0.10212363526E+01  0.10209841754E+01 0.  0.
     999903    2    3    3    0    0  0.96474715723E-01  0.31048362767E-01  0.80158815569E-01  0.13092510439E+00  0.21084962430E-01 0.  0.
         14    1    1    2    0    0 -0.11484241438E-01  0.22805740639E-02  0.19439979706E-01  0.22693647359E-01  0.00000000000E+00 0. -1.
     999901    1    3    3    0    0 -0.84990474286E-01 -0.33328936831E-01 -0.99598795275E-01  0.89031124826E+00  0.88000000000E+00 0.  1.
        -11    1    4    4    0    0  0.76388998990E-01  0.15909132511E-01  0.55989502733E-01  0.96038873385E-01  0.51100000000E-03 0. -1.
         11    1    4    4    0    0  0.20085716734E-01  0.15139230256E-01  0.24169312836E-01  0.34886231001E-01  0.51100000000E-03 0.  1.
</event>
<event>
 8    1  0.9956970E+004  0.1043930E+01  0.7957747E-01            NaN
         13   -1    0    0    0    0  0.00000000000E+00  0.00000000000E+00  0.74505805969E-08  0.10566000000E+00  0.10566000000E+00 0. -1.
     999900   -1    0    0    0    0 -0.00000000000E+00 -0.00000000000E+00 -0.74505805969E-08  0.93827000000E+00  0.93827000000E+00 0.  1.
     999902    2    1    2    0    0  0.21630041930E-01  0.86556645602E-02  0.49289239654E-04  0.10206323247E+01  0.10203663855E+01 0.  0.
     999903    2    3    3    0    0 -0.10334051344E+00  0.33567134185E-01  0.66437313197E-01  0.12897903408E+00  0.20387751985E-01 0.  0.
         14    1    1    2    0    0 -0.21630041930E-01 -0.86556645602E-02 -0.49289239654E-04  0.23297675255E-01  0.00000000000E+00 0.  1.
     999901    1    3    3    0    0  0.12497055537E+00 -0.24911469624E-01 -0.66388023957E-01  0.89165329067E+00  0.88000000000E+00 0.  1.
        -11    1    4    4    0    0 -0.10390013145E-01  0.32535760772E-02  0.23137379212E-03  0.10901962451E-01  0.51100000000E-03 0. -1.
         11    1    4    4    0    0 -0.92950500299E-01  0.30313558107E-01  0.66205939405E-01  0.11807707163E+00  0.51100000000E-03 0.  1.
</event>
<event>
 8    1  0.9962098E+004  0.1043930E+01  0.7957747E-01            NaN
         13   -1    0    0    0    0  0.00000000000E+00  0.00000000000E+00  0.74505805969E-08  0.10566000000E+00  0.10566000000E+00 0. -1.
     999900   -1    0    0    0    0 -0.00000000000E+00 -0.00000000000E+00 -0.74505805969E-08  0.93827000000E+00  0.93827000000E+00 0.  1.
     999902    2    1    2    0    0  0.74669777460E-03  0.15470960531E-01  0.17104608822E-01  0.10208545624E+01  0.10205937300E+01 0.  0.
     999903    2    3    3    0    0 -0.94773798545E-02  0.12553062877E+00  0.40255449092E-01  0.13363777732E+00  0.19768531932E-01 0.  0.
         14    1    1    2    0    0 -0.74669777460E-03 -0.15470960531E-01 -0.17104608822E-01  0.23075437597E-01  0.00000000000E+00 0.  1.
     999901    1    3    3    0    0  0.10224077629E-01 -0.11005966824E+00 -0.23150840269E-01  0.88721678509E+00  0.88000000000E+00 0. -1.
        -11    1    4    4    0    0  0.38036185562E-03  0.87573496511E-01  0.33892148651E-01  0.93905275824E-01  0.51100000000E-03 0. -1.
         11    1    4    4    0    0 -0.98577417101E-02  0.37957132263E-01  0.63633004405E-02  0.39732501491E-01  0.51100000000E-03 0.  1.
</event>
<event>
 8    1  0.9956970E+004  0.1043930E+01  0.7957747E-01            NaN
         13   -1    0    0    0    0  0.00000000000E+00  0.00000000000E+00  0.74505805969E-08  0.10566000000E+00  0.10566000000E+00 0. -1.
     999900   -1    0    0    0    0 -0.00000000000E+00 -0.00000000000E+00 -0.74505805969E-08  0.93827000000E+00  0.93827000000E+00 0.  1.
     999902    2    1    2    0    0 -0.65516185377E-02 -0.14728996724E-01 -0.17333264942E-01  0.10202591503E+01  0.10199845218E+01 0.  0.
     999903    2    3    3    0    0 -0.71320072779E-01 -0.21242724117E-01  0.10412301111E+00  0.12953528275E+00  0.19999548145E-01 0.  0.
         14    1    1    2    0    0  0.65516185377E-02  0.14728996724E-01  0.17333264942E-01  0.23670849658E-01  0.00000000000E+00 0. -1.
     999901    1    3    3    0    0  0.64768454241E-01  0.65137273923E-02 -0.12145627605E+00  0.89072386759E+00  0.88000000000E+00 0.  1.
        -11    1    4    4    0    0 -0.49589782511E-01 -0.98623929259E-02  0.55544217280E-01  0.75112146274E-01  0.51100000000E-03 0.  1.
         11    1    4    4    0    0 -0.21730290268E-01 -0.11380331191E-01  0.48578793826E-01  0.54423136474E-01  0.51100000000E-03 0. -1.
</event>
<event>
 8    1  0.9956970E+004  0.1043930E+01  0.7957747E-01            NaN
         13   -1    0    0    0    0  0.00000000000E+00  0.00000000000E+00  0.74505805969E-08  0.10566000000E+00  0.10566000000E+00 0.  1.
     999900   -1    0    0    0    0 -0.00000000000E+00 -0.00000000000E+00 -0.74505805969E-08  0.93827000000E+00  0.93827000000E+00 0.  1.
     999902    2    1    2    0    0 -0.22506641535E-01 -0.31278914278E-02  0.50231422827E-02  0.10206584599E+01  0.10203931239E+01 0.  0.
     999903    2    3    3    0    0 -0.36437192473E-01  0.11436729947E+00 -0.48851638325E-01  0.13110707182E+00  0.19875450442E-01 0.  0.
         14    1    1    2    0    0  0.22506641535E-01  0.31278914278E-02 -0.50231422827E-02  0.23271540052E-01  0.00000000000E+00 0. -1.
     999901    1    3    3    0    0  0.13930550937E-01 -0.11749519090E+00  0.53874780608E-01  0.88955138813E+00  0.88000000000E+00 0. -1.
        -11    1    4    4    0    0 -0.33211214781E-01  0.11329011082E+00 -0.48559397685E-01  0.12765543553E+00  0.51100000000E-03 0. -1.
         11    1    4    4    0    0 -0.32259776916E-02  0.10771886524E-02 -0.29224064026E-03  0.34516362861E-02  0.51100000000E-03 0.  1.
</event>
<event>
 8    1  0.9956970E+004  0.1043930E+01  0.7957747E-01            NaN
         13   -1    0    0    0    0  0.00000000000E+00  0.00000000000E+00  0.74505805969E-08  0.10566000000E+00  0.10566000000E+00 0.  1.
     999900   -1    0    0    0    0 -0.00000000000E+00 -0.00000000000E+00 -0.74505805969E-08  0.93827000000E+00  0.93827000000E+00 0.  1.
     999902    2    1    2    0    0  0.17044682637E-01 -0.10113441311E-01  0.12161036625E-01  0.10206771784E+01  0.10204122739E+01 0.  0.
     999903    2    3    3    0    0 -0.97750081900E-01 -0.45848815123E-04 -0.80363543426E-01  0.12835437116E+00  0.21481733391E-01 0.  0.
         14    1    1    2    0    0 -0.17044682637E-01  0.10113441311E-01 -0.12161036625E-01  0.23252821617E-01  0.00000000000E+00 0. -1.
     999901    1    3    3    0    0  0.11479476454E+00 -0.10067592496E-01  0.92524580051E-01  0.89232280723E+00  0.88000000000E+00 0. -1.
        -11    1    4    4    0    0 -0.74099372175E-01 -0.84512946829E-02 -0.64925114300E-01  0.98882116312E-01  0.51100000000E-03 0.  1.
         11    1    4    4    0    0 -0.23650709725E-01  0.84054458678E-02 -0.15438429126E-01  0.29472254844E-01  0.51100000000E-03 0. -1.
</event>
<event>
 8    1  0.9956970E+004  0.1043930E+01  0.7957747E-01            NaN
         13   -1    0    0    0    0  0.00000000000E+00  0.00000000000E+00  0.74505805969E-08  0.10566000000E+00  0.10566000000E+00 0.  1.
     999900   -1    0    0    0    0 -0.00000000000E+00 -0.00000000000E+00 -0.74505805969E-08  0.93827000000E+00  0.93827000000E+00 0.  1.
     999902    2    1    2    0    0  0.18131823822E-01 -0.39385031235E-02  0.14023393032E-01  0.10206720896E+01  0.10204070679E+01 0.  0.
     999903    2    3    3    0    0 -0.11188882322E+00  0.47905558614E-01 -0.35097478683E-01  0.12825624743E+00  0.20094294888E-01 0.  0.
         14    1    1    2    0    0 -0.18131823822E-01  0.39385031235E-02 -0.14023393032E-01  0.23257910355E-01  0.00000000000E+00 0. -1.
     999901    1    3    3    0    0  0.13002064704E+00 -0.51844061738E-01  0.49120871715E-01  0.89241584221E+00  0.88000000000E+00 0. -1.
        -11    1    4    4    0    0 -0.31023232022E-01  0.23051719963E-01 -0.85416571187E-02  0.39585903371E-01  0.51100000000E-03 0.  1.
         11    1    4    4    0    0 -0.80865591200E-01  0.24853838651E-01 -0.26555821564E-01  0.88670344061E-01  0.51100000000E-03 0. -1.
</event>
<event>
 8    1  0.9956970E+004  0.1043930E+01  0.7957747E-01            NaN
         13   -1    0    0    0    0  0.00000000000E+00  0.00000000000E+00  0.74505805969E-08  0.10566000000E+00  0.10566000000E+00 0. -1.
     999900   -1    0    0    0    0 -0.00000000000E+00 -0.00000000000E+00 -0.74505805969E-08  0.93827000000E+00  0.93827000000E+00 0.  1.
     999902    2    1    2    0    0 -0.22590849754E-01  0.50259254253E-02  0.25959451042E-02  0.10206416907E+01  0.10203759677E+01 0.  0.
     999903    2    3    3    0    0  0.29533799617E-01  0.80628991689E-01 -0.92290139684E-01  0.13078992114E+00  0.34860492955E-01 0.  0.
         14    1    1    2    0    0  0.22590849754E-01 -0.50259254253E-02 -0.25959451042E-02  0.23288309298E-01  0.00000000000E+00 0. -1.
     999901    1    3    3    0    0 -0.52124649371E-01 -0.75603066264E-01  0.94886084788E-01  0.88985176956E+00  0.88000000000E+00 0. -1.
        -11    1    4    4    0    0 -0.28527739092E-02  0.19066801014E-01 -0.65238405996E-02  0.20359342746E-01  0.51100000000E-03 0.  1.
         11    1    4    4    0    0  0.32386573526E-01  0.61562190675E-01 -0.85766299084E-01  0.11043057840E+00  0.51100000000E-03 0. -1.
</event>
<event>
 8    1  0.9956970E+004  0.1043930E+01  0.7957747E-01            NaN
         13   -1    0    0    0    0  0.00000000000E+00  0.00000000000E+00  0.74505805969E-08  0.10566000000E+00  0.10566000000E+00 0.  1.
     999900   -1    0    0    0    0 -0.00000000000E+00 -0.00000000000E+00 -0.74505805969E-08  0.93827000000E+00  0.93827000000E+00 0.  1.
     999902    2    1    2    0    0  0.31212532245E-01 -0.12201920527E-02 -0.15952339141E-01  0.10088559617E+01  0.10082460827E+01 0.  0.
     999903    2    3    3    0    0 -0.23886267855E-01 -0.95467282581E-01 -0.66616915388E-01  0.12066381407E+00  0.20913793889E-01 0.  0.
         14    1    1    2    0    0 -0.31212532245E-01  0.12201920527E-02  0.15952339141E-01  0.35074038288E-01  0.00000000000E+00 0. -1.
     999901    1    3    3    0    0  0.55098800100E-01  0.94247090528E-01  0.50664576247E-01  0.88819214764E+00  0.88000000000E+00 0. -1.
        -11    1    4    4    0    0 -0.51611796176E-02 -0.53298552639E-01 -0.43837214162E-01  0.69205028393E-01  0.51100000000E-03 0. -1.
         11    1    4    4    0    0 -0.18725088238E-01 -0.42168729942E-01 -0.22779701226E-01  0.51458785677E-01  0.51100000000E-03 0.  1.
</event>
<event>
 8    1  0.9956970E+004  0.1043930E+01  0.7957747E-01            NaN
         13   -1    0    0    0    0  0.00000000000E+00  0.00000000000E+00  0.74505805969E-08  0.10566000000E+00  0.10566000000E+00 0.  1.
     999900   -1    0    0    0    0 -0.00000000000E+00 -0.00000000000E+00 -0.74505805969E-08  0.93827000000E+00  0.93827000000E+00 0. -1.
     999902    2    1    2    0    0 -0.11624312861E-01 -0.15685117055E-01 -0.12860266059E-01  0.10205519336E+01  0.10202841345E+01 0.  0.
     999903    2    3    3    0    0 -0.63235472615E-01 -0.40340623846E-01  0.10514484881E+00  0.13083466783E+00  0.20884926298E-01 0.  0.
         14    1    1    2    0    0  0.11624312861E-01  0.15685117055E-01  0.12860266059E-01  0.23378066422E-01  0.00000000000E+00 0. -1.
     999901    1    3    3    0    0  0.51611159754E-01  0.24655506791E-01 -0.11800511487E+00  0.88971726574E+00  0.88000000000E+00 0. -1.
        -11    1    4    4    0    0 -0.39479897210E-01 -0.20553805535E-01  0.77420393183E-01  0.89304532961E-01  0.51100000000E-03 0.  1.
         11    1    4    4    0    0 -0.23755575405E-01 -0.19786818311E-01  0.27724455629E-01  0.41530134874E-01  0.51100000000E-03 0. -1.
</event>
<event>
 8    1  0.9956970E+004  0.1043930E+01  0.7957747E-01            NaN
         13   -1    0    0    0    0  0.00000000000E+00  0.00000000000E+00  0.74505805969E-08  0.10566000000E+00  0.10566000000E+00 0. -1.
     999900   -1    0    0    0    0 -0.00000000000E+00 -0.00000000000E+00 -0.74505805969E-08  0.93827000000E+00  0.93827000000E+00 0. -1.
     999902    2    1    2    0    0  0.18670918350E-01 -0.11482669660E-01 -0.91652437498E-02  0.10201717049E+01  0.10198950195E+01 0.  0.
     999903    2    3    3    0    0 -0.33133652785E-01 -0.12026620113E+00 -0.36404170639E-01  0.13154381343E+00  0.20413552595E-01 0.  0.
         14    1    1    2    0    0 -0.18670918350E-01  0.11482669660E-01  0.91652437498E-02  0.23758295132E-01  0.00000000000E+00 0. -1.
     999901    1    3    3    0    0  0.51804571136E-01  0.10878353147E+00  0.27238926889E-01  0.88862789144E+00  0.88000000000E+00 0. -1.
        -11    1    4    4    0    0 -0.97759600480E-02 -0.24093643555E-01 -0.15870346538E-01  0.30466408959E-01  0.51100000000E-03 0. -1.
         11    1    4    4    0    0 -0.23357692737E-01 -0.96172557576E-01 -0.20533824101E-01  0.10107740447E+00  0.51100000000E-03 0.  1.
</event>
<event>
 8    1  0.9956970E+004  0.1043930E+01  0.7957747E-01            NaN
         13   -1    0    0    0    0  0.00000000000E+00  0.00000000000E+00  0.74505805969E-08  0.10566000000E+00  0.10566000000E+00 0.  1.
     999900   -1    0    0    0    0 -0.00000000000E+00 -0.00000000000E+00 -0.74505805969E-08  0.93827000000E+00  0.93827000000E+00 0. -1.
     999902    2    1    2    0    0 -0.18351346831E-01 -0.12029557261E-01  0.77192668410E-02  0.10206691045E+01  0.10204040139E+01 0.  0.
     999903    2    3    3    0    0  0.68875798386E-01 -0.10925424986E+00 -0.74770301850E-02  0.13089826707E+00  0.19952033143E-01 0.  0.
         14    1    1    2    0    0  0.18351346831E-01  0.12029557261E-01 -0.77192668410E-02  0.23260895489E-01  0.00000000000E+00 0. -1.
     999901    1    3    3    0    0 -0.87227145217E-01  0.97224692597E-01  0.15196297026E-01  0.88977083744E+00  0.88000000000E+00 0. -1.
        -11    1    4    4    0    0  0.20030443768E-01 -0.18397884332E-01 -0.53367391499E-02  0.27720799613E-01  0.51100000000E-03 0.  1.
         11    1    4    4    0    0  0.48845354618E-01 -0.90856365527E-01 -0.21402910351E-02  0.10317746746E+00  0.51100000000E-03 0. -1.
</event>
<event>
 8    1  0.9956970E+004  0.1043930E+01  0.7957747E-01            NaN
         13   -1    0    0    0    0  0.00000000000E+00  0.00000000000E+00  0.74505805969E-08  0.10566000000E+00  0.10566000000E+00 0.  1.
     999900   -1    0    0    0    0 -0.00000000000E+00 -0.00000000000E+00 -0.74505805969E-08  0.93827000000E+00  0.93827000000E+00 0.  1.
     999902    2    1    2    0    0  0.13047925348E-01  0.15494222258E-01 -0.13650005462E-01  0.10195037451E+01  0.10192110892E+01 0.  0.
     999903    2    3    3    0    0 -0.15669681205E-01 -0.43644307662E-01 -0.12011644652E+00  0.13065214347E+00  0.22173348153E-01 0.  0.
         14    1    1    2    0    0 -0.13047925348E-01 -0.15494222258E-01  0.13650005462E-01  0.24426254899E-01  0.00000000000E+00 0.  1.
     999901    1    3    3    0    0  0.28717606554E-01  0.59138529921E-01  0.10646644106E+00  0.88885160163E+00  0.88000000000E+00 0.  1.
        -11    1    4    4    0    0 -0.13085798595E-01 -0.30367563274E-01 -0.55273573807E-01  0.64411614686E-01  0.51100000000E-03 0.  1.
         11    1    4    4    0    0 -0.25838826106E-02 -0.13276744389E-01 -0.64842872715E-01  0.66240528786E-01  0.51100000000E-03 0. -1.
</event>
<event>
 8    1  0.9956970E+004  0.1043930E+01  0.7957747E-01            NaN
         13   -1    0    0    0    0  0.00000000000E+00  0.00000000000E+00  0.74505805969E-08  0.10566000000E+00  0.10566000000E+00 0.  1.
     999900   -1    0    0    0    0 -0.00000000000E+00 -0.00000000000E+00 -0.74505805969E-08  0.93827000000E+00  0.93827000000E+00 0. -1.
     999902    2    1    2    0    0 -0.21123761609E-01  0.79731978708E-02  0.88345037707E-02  0.10196847191E+01  0.10193964355E+01 0.  0.
     999903    2    3    3    0    0 -0.10674805043E+00 -0.64787937336E-01 -0.35854576697E-01  0.13141515667E+00  0.19793171507E-01 0.  0.
         14    1    1    2    0    0  0.21123761609E-01 -0.79731978708E-02 -0.88345037707E-02  0.24245280895E-01  0.00000000000E+00 0.  1.
     999901    1    3    3    0    0  0.85624288820E-01  0.72761135207E-01  0.44689080468E-01  0.88826956243E+00  0.88000000000E+00 0.  1.
        -11    1    4    4    0    0 -0.60084496866E-01 -0.38870099861E-01 -0.10536158026E-01  0.72334660943E-01  0.51100000000E-03 0.  1.
         11    1    4    4    0    0 -0.46663553563E-01 -0.25917837475E-01 -0.25318418671E-01  0.59080495729E-01  0.51100000000E-03 0. -1.
</event>
<event>
 8    1  0.9956970E+004  0.1043930E+01  0.7957747E-01            NaN
         13   -1    0    0    0    0  0.00000000000E+00  0.00000000000E+00  0.74505805969E-08  0.10566000000E+00  0.10566000000E+00 0. -1.
     999900   -1    0    0    0    0 -0.00000000000E+00 -0.00000000000E+00 -0.74505805969E-08  0.93827000000E+00  0.93827000000E+00 0.  1.
     999902    2    1    2    0    0  0.22672650296E-01 -0.29288695533E-02 -0.20534513526E-02  0.10209769172E+01  0.10207188748E+01 0.  0.
     999903    2    3    3    0    0  0.20651450321E-01 -0.12082305363E+00 -0.43270642222E-01  0.13215636122E+00  0.23838260087E-01 0.  0.
         14    1    1    2    0    0 -0.22672650296E-01  0.29288695533E-02  0.20534513526E-02  0.22953082816E-01  0.00000000000E+00 0. -1.
     999901    1    3    3    0    0  0.20211999754E-02  0.11789418407E+00  0.41217190870E-01  0.88882055597E+00  0.88000000000E+00 0. -1.
        -11    1    4    4    0    0  0.11936512747E-01 -0.76589239162E-01 -0.15042057629E-01  0.78961487516E-01  0.51100000000E-03 0. -1.
         11    1    4    4    0    0  0.87149375734E-02 -0.44233814463E-01 -0.28228584594E-01  0.53194873701E-01  0.51100000000E-03 0.  1.
</event>
<event>
 8    1  0.9956970E+004  0.1043930E+01  0.7957747E-01            NaN
         13   -1    0    0    0    0  0.00000000000E+00  0.00000000000E+00  0.74505805969E-08  0.10566000000E+00  0.10566000000E+00 0.  1.
     999900   -1    0    0    0    0 -0.00000000000E+00 -0.00000000000E+00 -0.74505805969E-08  0.93827000000E+00  0.93827000000E+00 0.  1.
     999902    2    1    2    0    0  0.59775120889E-03 -0.18667854336E-01 -0.17938111883E-02  0.10251666354E+01  0.10249949105E+01 0.  0.
     999903    2    3    3    0    0 -0.10504540225E+00  0.70286343729E-01 -0.38423972327E-01  0.13364260661E+00  0.20229631825E-01 0.  0.
         14    1    1    2    0    0 -0.59775120889E-03  0.18667854336E-01  0.17938111883E-02  0.18763364586E-01  0.00000000000E+00 0. -1.
     999901    1    3    3    0    0  0.10564315346E+00 -0.88954198065E-01  0.36630161138E-01  0.89152402880E+00  0.88000000000E+00 0. -1.
        -11    1    4    4    0    0 -0.34844261590E-01  0.34349112749E-01 -0.11076291194E-01  0.50169008960E-01  0.51100000000E-03 0.  1.
         11    1    4    4    0    0 -0.70201140661E-01  0.35937230980E-01 -0.27347681133E-01  0.83473597652E-01  0.51100000000E-03 0. -1.
</event>
<event>
 8    1  0.9956970E+004  0.1043930E+01  0.7957747E-01            NaN
         13   -1    0    0    0    0  0.00000000000E+00  0.00000000000E+00  0.74505805969E-08  0.10566000000E+00  0.10566000000E+00 0.  1.
     999900   -1    0    0    0    0 -0.00000000000E+00 -0.00000000000E+00 -0.74505805969E-08  0.93827000000E+00  0.93827000000E+00 0.  1.
     999902    2    1    2    0    0 -0.15730909925E-01  0.13484300620E-01 -0.10022628272E-01  0.10209138976E+01  0.10206544202E+01 0.  0.
     999903    2    3    3    0    0  0.24319222135E-01 -0.39279363396E-01  0.11885604076E+00  0.12906316537E+00  0.19906011057E-01 0.  0.
         14    1    1    2    0    0  0.15730909925E-01 -0.13484300620E-01  0.10022628272E-01  0.23016102358E-01  0.00000000000E+00 0.  1.
     999901    1    3    3    0    0 -0.40050132060E-01  0.52763664017E-01 -0.12887866903E+00  0.89185073227E+00  0.88000000000E+00 0.  1.
        -11    1    4    4    0    0  0.26193956405E-01 -0.27923347079E-01  0.83104676006E-01  0.91501283922E-01  0.51100000000E-03 0. -1.
         11    1    4    4    0    0 -0.18747342702E-02 -0.11356016317E-01  0.35751364756E-01  0.37561881450E-01  0.51100000000E-03 0.  1.
</event>
<event>
 8    1  0.9956970E+004  0.1043930E+01  0.7957747E-01            NaN
         13   -1    0    0    0    0  0.00000000000E+00  0.00000000000E+00  0.74505805969E-08  0.10566000000E+00  0.10566000000E+00 0. -1.
     999900   -1    0    0    0    0 -0.00000000000E+00 -0.00000000000E+00 -0.74505805969E-08  0.93827000000E+00  0.93827000000E+00 0. -1.
     999902    2    1    2    0    0 -0.23967309884E-04  0.15170858401E-01 -0.20251457509E-01  0.10186263036E+01  0.10183119706E+01 0.  0.
     999903    2    3    3    0    0 -0.12157286237E+00 -0.36743020101E-01 -0.39196866302E-02  0.12860612890E+00  0.19853514964E-01 0.  0.
         14    1    1    2    0    0  0.23967309884E-04 -0.15170858401E-01  0.20251457509E-01  0.25303696376E-01  0.00000000000E+00 0. -1.
     999901    1    3    3    0    0  0.12154889506E+00  0.51913878502E-01 -0.16331770879E-01  0.89002017472E+00  0.88000000000E+00 0. -1.
        -11    1    4    4    0    0 -0.55183793554E-01 -0.25945018898E-01  0.25370023992E-02  0.61033536509E-01  0.51100000000E-03 0. -1.
         11    1    4    4    0    0 -0.66389068817E-01 -0.10798001203E-01 -0.64566890294E-02  0.67572592393E-01  0.51100000000E-03 0.  1.
</event>
<event>
 8    1  0.9956970E+004  0.1043930E+01  0.7957747E-01            NaN
         13   -1    0    0    0    0  0.00000000000E+00  0.00000000000E+00  0.74505805969E-08  0.10566000000E+00  0.10566000000E+00 0. -1.
     999900   -1    0    0    0    0 -0.00000000000E+00 -0.00000000000E+00 -0.74505805969E-08  0.93827000000E+00  0.93827000000E+00 0. -1.
     999902    2    1    2    0    0  0.16595556337E-01  0.16491608094E-01 -0.42876405230E-02  0.10201440905E+01  0.10198667540E+01 0.  0.
     999903    2    3    3    0    0 -0.92516099019E-01 -0.33699523054E-01 -0.80746210287E-01  0.12870120629E+00  0.18685919669E-01 0.  0.
         14    1    1    2    0    0 -0.16595556337E-01 -0.16491608094E-01  0.42876405230E-02  0.23785909462E-01  0.00000000000E+00 0.  1.
     999901    1    3    3    0    0  0.10911165536E+00  0.50191131148E-01  0.76458569764E-01  0.89144288424E+00  0.88000000000E+00 0.  1.
        -11    1    4    4    0    0 -0.34793746429E-01 -0.22393071816E-01 -0.32134360533E-01  0.52392105358E-01  0.51100000000E-03 0.  1.
         11    1    4    4    0    0 -0.57722352590E-01 -0.11306451238E-01 -0.48611849754E-01  0.76309100936E-01  0.51100000000E-03 0. -1.
</event>
<event>
 8    1  0.9956970E+004  0.1043930E+01  0.7957747E-01            NaN
         13   -1    0    0    0    0  0.00000000000E+00  0.00000000000E+00  0.74505805969E-08  0.10566000000E+00  0.10566000000E+00 0.  1.
     999900   -1    0    0    0    0 -0.00000000000E+00 -0.00000000000E+00 -0.74505805969E-08  0.93827000000E+00  0.93827000000E+00 0.  1.
     999902    2    1    2    0    0  0.63923342408E-02  0.21513148979E-01  0.79542896684E-02  0.10201193251E+01  0.10198414039E+01 0.  0.
     999903    2    3    3    0    0 -0.93744712974E-02 -0.12082978661E+00  0.36282158231E-01  0.12809209926E+00  0.20086633412E-01 0.  0.
         14    1    1    2    0    0 -0.63923342408E-02 -0.21513148979E-01 -0.79542896684E-02  0.23810674921E-01  0.00000000000E+00 0. -1.
     999901    1    3    3    0    0  0.15766805538E-01  0.14234293559E+00 -0.28327868563E-01  0.89202722582E+00  0.88000000000E+00 0. -1.
        -11    1    4    4    0    0  0.31816779528E-02 -0.79112715228E-01  0.25858084003E-01  0.83293735747E-01  0.51100000000E-03 0.  1.
         11    1    4    4    0    0 -0.12556149250E-01 -0.41717071383E-01  0.10424074228E-01  0.44798363511E-01  0.51100000000E-03 0. -1.
</event>
<event>
 8    1  0.9956970E+004  0.1043930E+01  0.7957747E-01            NaN
         13   -1    0    0    0    0  0.00000000000E+00  0.00000000000E+00  0.74505805969E-08  0.10566000000E+00  0.10566000000E+00 0. -1.
     999900   -1    0    0    0    0 -0.00000000000E+00 -0.00000000000E+00 -0.74505805969E-08  0.93827000000E+00  0.93827000000E+00 0. -1.
     999902    2    1    2    0    0 -0.14233924765E-01 -0.83760181514E-02  0.17901485896E-01  0.10195737792E+01  0.10192828193E+01 0.  0.
     999903    2    3    3    0    0  0.92315434075E-01  0.38397218484E-01 -0.75715180101E-01  0.12699068409E+00  0.19933880481E-01 0.  0.
         14    1    1    2    0    0  0.14233924765E-01  0.83760181514E-02 -0.17901485896E-01  0.24356220798E-01  0.00000000000E+00 0. -1.
     999901    1    3    3    0    0 -0.10654935884E+00 -0.46773236636E-01  0.93616665997E-01  0.89258309512E+00  0.88000000000E+00 0.  1.
        -11    1    4    4    0    0  0.46353729198E-01  0.20842638065E-01 -0.50715379742E-01  0.71801076840E-01  0.51100000000E-03 0. -1.
         11    1    4    4    0    0  0.45961704877E-01  0.17554580420E-01 -0.24999800359E-01  0.55189607246E-01  0.51100000000E-03 0.  1.
</event>
<event>
 8    1  0.9956970E+004  0.1043930E+01  0.7957747E-01            NaN
         13   -1    0    0    0    0  0.00000000000E+00  0.00000000000E+00  0.74505805969E-08  0.10566000000E+00  0.10566000000E+00 0. -1.
     999900   -1    0    0    0    0 -0.00000000000E+00 -0.00000000000E+00 -0.74505805969E-08  0.93827000000E+00  0.93827000000E+00 0.  1.
     999902    2    1    2    0    0 -0.20390231122E-02 -0.26807994194E-03 -0.23458058480E-01  0.10203819642E+01  0.10201102111E+01 0.  0.
     999903    2    3    3    0    0  0.70237442312E-01  0.32839832021E-01  0.10010312400E+00  0.12820071182E+00  0.20075711867E-01 0.  0.
         14    1    1    2    0    0  0.20390231122E-02  0.26807994194E-03  0.23458058480E-01  0.23548035794E-01  0.00000000000E+00 0. -1.
     999901    1    3    3    0    0 -0.72276465424E-01 -0.33107911963E-01 -0.12356118248E+00  0.89218125238E+00  0.88000000000E+00 0.  1.
        -11    1    4    4    0    0  0.62675548684E-01  0.29053750319E-01  0.97190673820E-01  0.11924190962E+00  0.51100000000E-03 0.  1.
         11    1    4    4    0    0  0.75618936278E-02  0.37860817021E-02  0.29124501829E-02  0.89588022057E-02  0.51100000000E-03 0. -1.
</event>
<event>
 8    1  0.9956970E+004  0.1043930E+01  0.7957747E-01            NaN
         13   -1    0    0    0    0  0.00000000000E+00  0.00000000000E+00  0.74505805969E-08  0.10566000000E+00  0.10566000000E+00 0. -1.
     999900   -1    0    0    0    0 -0.00000000000E+00 -0.00000000000E+00 -0.74505805969E-08  0.93827000000E+00  0.93827000000E+00 0. -1.
     999902    2    1    2    0    0  0.13292551309E-01  0.56356355400E-02  0.17912290436E-01  0.10209234258E+01  0.10206641656E+01 0.  0.
     999903    2    3    3    0    0 -0.11359210877E+00 -0.45540523982E-01 -0.34920844547E-01  0.12878551245E+00  0.19726538834E-01 0.  0.
         14    1    1    2    0    0 -0.13292551309E-01 -0.56356355400E-02 -0.17912290436E-01  0.23006574211E-01  0.00000000000E+00 0.  1.
     999901    1    3    3    0    0  0.12688466008E+00  0.51176159522E-01  0.52833134983E-01  0.89213791334E+00  0.88000000000E+00 0.  1.
        -11    1    4    4    0    0 -0.63074006783E-01 -0.33407242853E-01 -0.13795037948E-01  0.72697581801E-01  0.51100000000E-03 0. -1.
         11    1    4    4    0    0 -0.50518101983E-01 -0.12133281130E-01 -0.21125806599E-01  0.56087930648E-01  0.51100000000E-03 0.  1.
</event>
<event>
 8    1  0.9956970E+004  0.1043930E+01  0.7957747E-01            NaN
         13   -1    0    0    0    0  0.00000000000E+00  0.00000000000E+00  0.74505805969E-08  0.10566000000E+00  0.10566000000E+00 0. -1.
     999900   -1    0    0    0    0 -0.00000000000E+00 -0.00000000000E+00 -0.74505805969E-08  0.93827000000E+00  0.93827000000E+00 0. -1.
     999902    2    1    2    0    0 -0.56633577643E-02 -0.13540441729E-01  0.18456622168E-01  0.10203489889E+01  0.10200764653E+01 0.  0.
     999903    2    3    3    0    0 -0.47229519181E-01  0.81414328689E-01  0.89395233860E-01  0.13143029697E+00  0.20578987531E-01 0.  0.
         14    1    1    2    0    0  0.56633577643E-02  0.13540441729E-01 -0.18456622168E-01  0.23581011116E-01  0.00000000000E+00 0.  1.
     999901    1    3    3    0    0  0.41566161416E-01 -0.94954770418E-01 -0.70938611691E-01  0.88891869191E+00  0.88000000000E+00 0.  1.
        -11    1    4    4    0    0 -0.27281375577E-01  0.58347357606E-01  0.49628837679E-01  0.81314022428E-01  0.51100000000E-03 0. -1.
         11    1    4    4    0    0 -0.19948143603E-01  0.23066971083E-01  0.39766396180E-01  0.50116274545E-01  0.51100000000E-03 0.  1.
</event>
<event>
 8    1  0.9956970E+004  0.1043930E+01  0.7957747E-01            NaN
         13   -1    0    0    0    0  0.00000000000E+00  0.00000000000E+00  0.74505805969E-08  0.10566000000E+00  0.10566000000E+00 0.  1.
     999900   -1    0    0    0    0 -0.00000000000E+00 -0.00000000000E+00 -0.74505805969E-08  0.93827000000E+00  0.93827000000E+00 0. -1.
     999902    2    1    2    0    0 -0.49618238817E-02 -0.16139917960E-01  0.15328923152E-01  0.10211244627E+01  0.10208697643E+01 0.  0.
     999903    2    3    3    0    0 -0.87214519429E-01 -0.18752946819E-01 -0.93269470838E-01  0.13063810959E+00  0.20225629103E-01 0.  0.
         14    1    1    2    0    0  0.49618238817E-02  0.16139917960E-01 -0.15328923152E-01  0.22805537332E-01  0.00000000000E+00 0. -1.
     999901    1    3    3    0    0  0.82252695547E-01  0.26130288591E-02  0.10859839399E+00  0.89048635308E+00  0.88000000000E+00 0.  1.
        -11    1    4    4    0    0 -0.47822754298E-01 -0.18529304241E-01 -0.44170259569E-01  0.67687693828E-01  0.51100000000E-03 0.  1.
         11    1    4    4    0    0 -0.39391765131E-01 -0.22364257819E-03 -0.49099211269E-01  0.62950415760E-01  0.51100000000E-03 0. -1.
</event>
<event>
 8    1  0.9956970E+004  0.1043930E+01  0.7957747E-01            NaN
         13   -1    0    0    0    0  0.00000000000E+00  0.00000000000E+00  0.74505805969E-08  0.10566000000E+00  0.10566000000E+00 0. -1.
     999900   -1    0    0    0    0 -0.00000000000E+00 -0.00000000000E+00 -0.74505805969E-08  0.93827000000E+00  0.93827000000E+00 0. -1.
     999902    2    1    2    0    0 -0.33495522247E-02 -0.23280474156E-01  0.73882729156E-02  0.10192766726E+01  0.10189784829E+01 0.  0.
     999903    2    3    3    0    0 -0.12078037615E+00  0.17629481681E-01 -0.38159548698E-01  0.12936756094E+00  0.19522212483E-01 0.  0.
         14    1    1    2    0    0  0.33495522247E-02  0.23280474156E-01 -0.73882729156E-02  0.24653327437E-01  0.00000000000E+00 0.  1.
     999901    1    3    3    0    0  0.11743082392E+00 -0.40909955837E-01  0.45547821614E-01  0.88990911162E+00  0.88000000000E+00 0.  1.
        -11    1    4    4    0    0 -0.64279864646E-01  0.13387309606E-01 -0.29745055725E-01  0.72084329215E-01  0.51100000000E-03 0.  1.
         11    1    4    4    0    0 -0.56500511503E-01  0.42421720750E-02 -0.84144929731E-02  0.57283231726E-01  0.51100000000E-03 0. -1.
</event>
<event>
 8    1  0.9956970E+004  0.1043930E+01  0.7957747E-01            NaN
         13   -1    0    0    0    0  0.00000000000E+00  0.00000000000E+00  0.74505805969E-08  0.10566000000E+00  0.10566000000E+00 0.  1.
     999900   -1    0    0    0    0 -0.00000000000E+00 -0.00000000000E+00 -0.74505805969E-08  0.93827000000E+00  0.93827000000E+00 0. -1.
     999902    2    1    2    0    0 -0.90923624818E-03  0.10234797986E-01  0.23115363802E-01  0.10186337978E+01  0.10183196533E+01 0.  0.
     999903    2    3    3    0    0 -0.10287875993E+00  0.48922899757E-01 -0.55591623580E-01  0.12841509277E+00  0.20555244448E-01 0.  0.
         14    1    1    2    0    0  0.90923624818E-03 -0.10234797986E-01 -0.23115363802E-01  0.25296202167E-01  0.00000000000E+00 0. -1.
     999901    1    3    3    0    0  0.10196952368E+00 -0.38688101771E-01  0.78706987382E-01  0.89021870506E+00  0.88000000000E+00 0.  1.
        -11    1    4    4    0    0 -0.65624187440E-01  0.32579410955E-01 -0.46336132423E-01  0.86690543223E-01  0.51100000000E-03 0.  1.
         11    1    4    4    0    0 -0.37254572488E-01  0.16343488802E-01 -0.92554911565E-02  0.41724549549E-01  0.51100000000E-03 0. -1.
</event>
<event>
 8    1  0.9956970E+004  0.1043930E+01  0.7957747E-01            NaN
         13   -1    0    0    0    0  0.00000000000E+00  0.00000000000E+00  0.74505805969E-08  0.10566000000E+00  0.10566000000E+00 0. -1.
     999900   -1    0    0    0    0 -0.00000000000E+00 -0.00000000000E+00 -0.74505805969E-08  0.93827000000E+00  0.93827000000E+00 0. -1.
     999902    2    1    2    0    0  0.52599279840E-02 -0.22642328701E-01 -0.45498033031E-02  0.10202436621E+01  0.10199686699E+01 0.  0.
     999903    2    3    3    0    0  0.90159651288E-01 -0.81558535097E-01 -0.49977032781E-01  0.13303302448E+00  0.20482295489E-01 0.  0.
         14    1    1    2    0    0 -0.52599279840E-02  0.22642328701E-01  0.45498033031E-02  0.23686337866E-01  0.00000000000E+00 0. -1.
     999901    1    3    3    0    0 -0.84899723304E-01  0.58916206396E-01  0.45427229478E-01  0.88721063766E+00  0.88000000000E+00 0.  1.
        -11    1    4    4    0    0  0.40633578684E-01 -0.36271425884E-01 -0.11490044250E-01  0.55668539501E-01  0.51100000000E-03 0.  1.
         11    1    4    4    0    0  0.49526072604E-01 -0.45287109213E-01 -0.38486988532E-01  0.77364484977E-01  0.51100000000E-03 0. -1.
</event>
<event>
 8    1  0.9956970E+004  0.1043930E+01  0.7957747E-01            NaN
         13   -1    0    0    0    0  0.00000000000E+00  0.00000000000E+00  0.74505805969E-08  0.10566000000E+00  0.10566000000E+00 0.  1.
     999900   -1    0    0    0    0 -0.00000000000E+00 -0.00000000000E+00 -0.74505805969E-08  0.93827000000E+00  0.93827000000E+00 0. -1.
     999902    2    1    2    0    0 -0.20397080755E-01 -0.63232785251E-02  0.93275570609E-02  0.10206270372E+01  0.10203609758E+01 0.  0.
     999903    2    3    3    0    0  0.91106566796E-01 -0.85762464306E-01  0.28601743549E-01  0.12983236842E+00  0.19564696748E-01 0.  0.
         14    1    1    2    0    0  0.20397080755E-01  0.63232785251E-02 -0.93275570609E-02  0.23302962802E-01  0.00000000000E+00 0. -1.
     999901    1    3    3    0    0 -0.11150364755E+00  0.79439185781E-01 -0.19274186488E-01  0.89079466878E+00  0.88000000000E+00 0. -1.
        -11    1    4    4    0    0  0.58631637613E-01 -0.45311962415E-01  0.23336755399E-01  0.77689820058E-01  0.51100000000E-03 0. -1.
         11    1    4    4    0    0  0.32474929183E-01 -0.40450501891E-01  0.52649881496E-02  0.52142548364E-01  0.51100000000E-03 0.  1.
</event>
<event>
 8    1  0.9956970E+004  0.1043930E+01  0.7957747E-01            NaN
         13   -1    0    0    0    0  0.00000000000E+00  0.00000000000E+00  0.74505805969E-08  0.10566000000E+00  0.10566000000E+00 0.  1.
     999900   -1    0    0    0    0 -0.00000000000E+00 -0.00000000000E+00 -0.74505805969E-08  0.93827000000E+00  0.93827000000E+00 0.  1.
     999902    2    1    2    0    0  0.11255074834E-01 -0.42690341341E-02  0.20307085469E-01  0.10203232408E+01  0.10200501147E+01 0.  0.
     999903    2    3    3    0    0 -0.11208062243E+00  0.60180277878E-01  0.12998635512E-01  0.12935813398E+00  0.19514879792E-01 0.  0.
         14    1    1    2    0    0 -0.11255074834E-01  0.42690341341E-02 -0.20307085469E-01  0.23606759248E-01  0.00000000000E+00 0. -1.
     999901    1    3    3    0    0  0.12333569726E+00 -0.64449312013E-01  0.73084499574E-02  0.89096510677E+00  0.88000000000E+00 0. -1.
        -11    1    4    4    0    0 -0.96961363541E-01  0.58988738415E-01  0.10529331112E-01  0.11398379365E+00  0.51100000000E-03 0. -1.
         11    1    4    4    0    0 -0.15119258886E-01  0.11915394638E-02  0.24693044001E-02  0.15374340336E-01  0.51100000000E-03 0.  1.
</event>
<event>
 8    1  0.9956970E+004  0.1043930E+01  0.7957747E-01            NaN
         13   -1    0    0    0    0  0.00000000000E+00  0.00000000000E+00  0.74505805969E-08  0.10566000000E+00  0.10566000000E+00 0.  1.
     999900   -1    0    0    0    0 -0.00000000000E+00 -0.00000000000E+00 -0.74505805969E-08  0.93827000000E+00  0.93827000000E+00 0. -1.
     999902    2    1    2    0    0 -0.15647726296E-02 -0.13284748998E-01 -0.18747067229E-01  0.10208998980E+01  0.10206401012E+01 0.  0.
     999903    2    3    3    0    0  0.83041018492E-01 -0.97008986973E-01  0.25909513632E-01  0.13176430757E+00  0.19595294018E-01 0.  0.
         14    1    1    2    0    0  0.15647726296E-02  0.13284748998E-01  0.18747067229E-01  0.23030102019E-01  0.00000000000E+00 0.  1.
     999901    1    3    3    0    0 -0.84605791122E-01  0.83724237975E-01 -0.44656580861E-01  0.88913559041E+00  0.88000000000E+00 0. -1.
        -11    1    4    4    0    0  0.50626340936E-01 -0.67832191792E-01  0.24536021898E-01  0.88127805666E-01  0.51100000000E-03 0.  1.
         11    1    4    4    0    0  0.32414677556E-01 -0.29176795181E-01  0.13734917338E-02  0.43636501907E-01  0.51100000000E-03 0. -1.
</event>
<event>
 8    1  0.9956970E+004  0.1043930E+01  0.7957747E-01            NaN
         13   -1    0    0    0    0  0.00000000000E+00  0.00000000000E+00  0.74505805969E-08  0.10566000000E+00  0.10566000000E+00 0. -1.
     999900   -1    0    0    0    0 -0.00000000000E+00 -0.00000000000E+00 -0.74505805969E-08  0.93827000000E+00  0.93827000000E+00 0.  1.
     999902    2    1    2    0    0 -0.21276374574E-01  0.16085526896E-01 -0.29152442537E-02  0.10170985457E+01  0.10167445720E+01 0.  0.
     999903    2    3    3    0    0  0.55069689988E-01 -0.39023702938E-01 -0.10473426924E+00  0.12623780314E+00  0.20277959513E-01 0.  0.
         14    1    1    2    0    0  0.21276374574E-01 -0.16085526896E-01  0.29152442537E-02  0.26831454295E-01  0.00000000000E+00 0. -1.
     999901    1    3    3    0    0 -0.76346064561E-01  0.55109229834E-01  0.10181902499E+00  0.89086074256E+00  0.88000000000E+00 0.  1.
        -11    1    4    4    0    0  0.31850540493E-01 -0.34105085154E-01 -0.71995829468E-01  0.85797869116E-01  0.51100000000E-03 0.  1.
         11    1    4    4    0    0  0.23219149495E-01 -0.49186177841E-02 -0.32738439776E-01  0.40439934027E-01  0.51100000000E-03 0. -1.
</event>
<event>
 8    1  0.9956970E+004  0.1043930E+01  0.7957747E-01            NaN
         13   -1    0    0    0    0  0.00000000000E+00  0.00000000000E+00  0.74505805969E-08  0.10566000000E+00  0.10566000000E+00 0. -1.
     999900   -1    0    0    0    0 -0.00000000000E+00 -0.00000000000E+00 -0.74505805969E-08  0.93827000000E+00  0.93827000000E+00 0.  1.
     999902    2    1    2    0    0  0.49289291867E-02 -0.16771027904E-01 -0.15794541598E-01  0.10203709409E+01  0.10200989304E+01 0.  0.
     999903    2    3    3    0    0 -0.35860456505E-01  0.12066796120E+00  0.14662045078E-01  0.12824939463E+00  0.19652034367E-01 0.  0.
         14    1    1    2    0    0 -0.49289291867E-02  0.16771027904E-01  0.15794541598E-01  0.23559059069E-01  0.00000000000E+00 0. -1.
     999901    1    3    3    0    0  0.40789385692E-01 -0.13743898911E+00 -0.30456586676E-01  0.89212154631E+00  0.88000000000E+00 0.  1.
        -11    1    4    4    0    0 -0.15700059702E-01  0.67867581123E-01 -0.74760778055E-03  0.69665776967E-01  0.51100000000E-03 0. -1.
         11    1    4    4    0    0 -0.20160396804E-01  0.52800380078E-01  0.15409652858E-01  0.58583617658E-01  0.51100000000E-03 0.  1.
</event>
<event>
 8    1  0.9956970E+004  0.1043930E+01  0.7957747E-01            NaN
         13   -1    0    0    0    0  0.00000000000E+00  0.00000000000E+00  0.74505805969E-08  0.10566000000E+00  0.10566000000E+00 0.  1.
     999900   -1    0    0    0    0 -0.00000000000E+00 -0.00000000000E+00 -0.74505805969E-08  0.93827000000E+00  0.93827000000E+00 0. -1.
     999902    2    1    2    0    0  0.16473497423E-01 -0.18989764229E-02 -0.16381092351E-01  0.10206207225E+01  0.10203545153E+01 0.  0.
     999903    2    3    3    0    0 -0.98366024250E-01 -0.28530266534E-01  0.74869774436E-01  0.12808273342E+00  0.17602631626E-01 0.  0.
         14    1    1    2    0    0 -0.16473497423E-01  0.18989764229E-02  0.16381092351E-01  0.23309277453E-01  0.00000000000E+00 0. -1.
     999901    1    3    3    0    0  0.11483952167E+00  0.26631290111E-01 -0.91250866787E-01  0.89253798913E+00  0.88000000000E+00 0. -1.
        -11    1    4    4    0    0 -0.62246068056E-01 -0.18477879813E-01  0.57607791197E-01  0.86803938611E-01  0.51100000000E-03 0.  1.
         11    1    4    4    0    0 -0.36119956195E-01 -0.10052386721E-01  0.17261983239E-01  0.41278794806E-01  0.51100000000E-03 0. -1.
</event>
<event>
 8    1  0.9956970E+004  0.1043930E+01  0.7957747E-01            NaN
         13   -1    0    0    0    0  0.00000000000E+00  0.00000000000E+00  0.74505805969E-08  0.10566000000E+00  0.10566000000E+00 0.  1.
     999900   -1    0    0    0    0 -0.00000000000E+00 -0.00000000000E+00 -0.74505805969E-08  0.93827000000E+00  0.93827000000E+00 0. -1.
     999902    2    1    2    0    0  0.62652464852E-02 -0.20305380411E-01 -0.94231488906E-02  0.10206844085E+01  0.10204196707E+01 0.  0.
     999903    2    3    3    0    0 -0.10685114200E+00 -0.67179456233E-02  0.70452036427E-01  0.12975232305E+00  0.20245457751E-01 0.  0.
         14    1    1    2    0    0 -0.62652464852E-02  0.20305380411E-01  0.94231488906E-02  0.23245591457E-01  0.00000000000E+00 0.  1.
     999901    1    3    3    0    0  0.11311638849E+00 -0.13587434788E-01 -0.79875185317E-01  0.89093208549E+00  0.88000000000E+00 0. -1.
        -11    1    4    4    0    0 -0.23313025384E-01  0.33820087605E-02  0.77227790107E-02  0.24795918463E-01  0.51100000000E-03 0.  1.
         11    1    4    4    0    0 -0.83538116621E-01 -0.10099954384E-01  0.62729257416E-01  0.10495640459E+00  0.51100000000E-03 0. -1.
</event>
<event>
 8    1  0.9956970E+004  0.1043930E+01  0.7957747E-01            NaN
         13   -1    0    0    0    0  0.00000000000E+00  0.00000000000E+00  0.74505805969E-08  0.10566000000E+00  0.10566000000E+00 0.  1.
     999900   -1    0    0    0    0 -0.00000000000E+00 -0.00000000000E+00 -0.74505805969E-08  0.93827000000E+00  0.93827000000E+00 0.  1.
     999902    2    1    2    0    0  0.18408737951E-01 -0.98319600182E-02 -0.11623261387E-01  0.10200417335E+01  0.10197619766E+01 0.  0.
     999903    2    3    3    0    0  0.12326726529E+00  0.31398044893E-01  0.28609049524E-01  0.13194609513E+00  0.20264214518E-01 0.  0.
         14    1    1    2    0    0 -0.18408737951E-01  0.98319600182E-02  0.11623261387E-01  0.23888266492E-01  0.00000000000E+00 0.  1.
     999901    1    3    3    0    0 -0.10485852734E+00 -0.41230004911E-01 -0.40232310911E-01  0.88809563838E+00  0.88000000000E+00 0. -1.
        -11    1    4    4    0    0  0.61160038236E-01  0.57158239548E-02  0.10290223148E-01  0.62284594676E-01  0.51100000000E-03 0. -1.
         11    1    4    4    0    0  0.62107227057E-01  0.25682220938E-01  0.18318826375E-01  0.69661500456E-01  0.51100000000E-03 0.  1.
</event>
<event>
 8    1  0.9956970E+004  0.1043930E+01  0.7957747E-01            NaN
         13   -1    0    0    0    0  0.00000000000E+00  0.00000000000E+00  0.74505805969E-08  0.10566000000E+00  0.10566000000E+00 0.  1.
     999900   -1    0    0    0    0 -0.00000000000E+00 -0.00000000000E+00 -0.74505805969E-08  0.93827000000E+00  0.93827000000E+00 0. -1.
     999902    2    1    2    0    0 -0.19692371473E-01 -0.12920077723E-01 -0.44270720183E-02  0.10199650909E+01  0.10196835145E+01 0.  0.
     999903    2    3    3    0    0 -0.12772897257E+00  0.24536211255E-01  0.14976614945E-01  0.13235516313E+00  0.19413245873E-01 0.  0.
         14    1    1    2    0    0  0.19692371473E-01  0.12920077723E-01  0.44270720183E-02  0.23964909123E-01  0.00000000000E+00 0.  1.
     999901    1    3    3    0    0  0.10803660110E+00 -0.37456288978E-01 -0.19403686963E-01  0.88760992774E+00  0.88000000000E+00 0. -1.
        -11    1    4    4    0    0 -0.68185350708E-01  0.19435141028E-01  0.68525486093E-03  0.70906258209E-01  0.51100000000E-03 0.  1.
         11    1    4    4    0    0 -0.59543621866E-01  0.51010702265E-02  0.14291360084E-01  0.61448904924E-01  0.51100000000E-03 0. -1.
</event>
<event>
 8    1  0.9956970E+004  0.1043930E+01  0.7957747E-01            NaN
         13   -1    0    0    0    0  0.00000000000E+00  0.00000000000E+00  0.74505805969E-08  0.10566000000E+00  0.10566000000E+00 0. -1.
     999900   -1    0    0    0    0 -0.00000000000E+00 -0.00000000000E+00 -0.74505805969E-08  0.93827000000E+00  0.93827000000E+00 0.  1.
     999902    2    1    2    0    0  0.22457804735E-01  0.50194057560E-02  0.74120157912E-02  0.10197538670E+01  0.10194672451E+01 0.  0.
     999903    2    3    3    0    0 -0.11674380879E-01  0.94437154168E-01 -0.85739010507E-01  0.12967653694E+00  0.20252383902E-01 0.  0.
         14    1    1    2    0    0 -0.22457804735E-01 -0.50194057560E-02 -0.74120157912E-02  0.24176132978E-01  0.00000000000E+00 0. -1.
     999901    1    3    3    0    0  0.34132185615E-01 -0.89417748412E-01  0.93151026299E-01  0.89007733008E+00  0.88000000000E+00 0. -1.
        -11    1    4    4    0    0 -0.82771526775E-02  0.69512965679E-01 -0.50249049366E-01  0.86173033701E-01  0.51100000000E-03 0.  1.
         11    1    4    4    0    0 -0.33972282020E-02  0.24924188488E-01 -0.35489961142E-01  0.43503503239E-01  0.51100000000E-03 0. -1.
</event>
<event>
 8    1  0.9956970E+004  0.1043930E+01  0.7957747E-01            NaN
         13   -1    0    0    0    0  0.00000000000E+00  0.00000000000E+00  0.74505805969E-08  0.10566000000E+00  0.10566000000E+00 0. -1.
     999900   -1    0    0    0    0 -0.00000000000E+00 -0.00000000000E+00 -0.74505805969E-08  0.93827000000E+00  0.93827000000E+00 0.  1.
     999902    2    1    2    0    0 -0.16156442211E-01  0.40954639352E-02  0.16555793348E-01  0.10204374960E+01  0.10201670381E+01 0.  0.
     999903    2    3    3    0    0 -0.12920622497E+00 -0.18082346401E-01  0.15843944616E-01  0.13292827614E+00  0.19941820204E-01 0.  0.
         14    1    1    2    0    0  0.16156442211E-01 -0.40954639352E-02 -0.16555793348E-01  0.23492503978E-01  0.00000000000E+00 0. -1.
     999901    1    3    3    0    0  0.11304978276E+00  0.22177810336E-01  0.71184873157E-03  0.88750921989E+00  0.88000000000E+00 0. -1.
        -11    1    4    4    0    0 -0.82804216263E-01 -0.20785864635E-01  0.12988767292E-01  0.86357162971E-01  0.51100000000E-03 0. -1.
         11    1    4    4    0    0 -0.46402008708E-01  0.27035182339E-02  0.28551773237E-02  0.46571113166E-01  0.51100000000E-03 0.  1.
</event>
<event>
 8    1  0.9956970E+004  0.1043930E+01  0.7957747E-01            NaN
         13   -1    0    0    0    0  0.00000000000E+00  0.00000000000E+00  0.74505805969E-08  0.10566000000E+00  0.10566000000E+00 0.  1.
     999900   -1    0    0    0    0 -0.00000000000E+00 -0.00000000000E+00 -0.74505805969E-08  0.93827000000E+00  0.93827000000E+00 0.  1.
     999902    2    1    2    0    0 -0.61960840695E-02  0.18957686768E-01 -0.13315077833E-01  0.10199492443E+01  0.10196672910E+01 0.  0.
     999903    2    3    3    0    0  0.90123121484E-01 -0.58412872076E-01 -0.69604618018E-01  0.12953804433E+00  0.20026518131E-01 0.  0.
         14    1    1    2    0    0  0.61960840695E-02 -0.18957686768E-01  0.13315077833E-01  0.23980755682E-01  0.00000000000E+00 0. -1.
     999901    1    3    3    0    0 -0.96319205553E-01  0.77370558845E-01  0.56289540185E-01  0.89041119999E+00  0.88000000000E+00 0. -1.
        -11    1    4    4    0    0  0.50889821619E-01 -0.44508273388E-01 -0.44008789896E-01  0.80670905867E-01  0.51100000000E-03 0. -1.
         11    1    4    4    0    0  0.39233299865E-01 -0.13904598689E-01 -0.25595828122E-01  0.48867138460E-01  0.51100000000E-03 0.  1.
</event>
<event>
 8    1  0.9956970E+004  0.1043930E+01  0.7957747E-01            NaN
         13   -1    0    0    0    0  0.00000000000E+00  0.00000000000E+00  0.74505805969E-08  0.10566000000E+00  0.10566000000E+00 0.  1.
     999900   -1    0    0    0    0 -0.00000000000E+00 -0.00000000000E+00 -0.74505805969E-08  0.93827000000E+00  0.93827000000E+00 0. -1.
     999902    2    1    2    0    0 -0.99421384582E-02 -0.21115929960E-01 -0.71223095812E-03  0.10205797133E+01  0.10203125577E+01 0.  0.
     999903    2    3    3    0    0  0.52335308740E-01 -0.12019144596E+00  0.67356720950E-02  0.13280163882E+00  0.20147897451E-01 0.  0.
         14    1    1    2    0    0  0.99421384582E-02  0.21115929960E-01  0.71223095812E-03  0.23350286682E-01  0.00000000000E+00 0. -1.
     999901    1    3    3    0    0 -0.62277447198E-01  0.99075516001E-01 -0.74479030531E-02  0.88777807450E+00  0.88000000000E+00 0. -1.
        -11    1    4    4    0    0  0.50362951555E-01 -0.11285430052E+00  0.15572791578E-02  0.12359290544E+00  0.51100000000E-03 0. -1.
         11    1    4    4    0    0  0.19723571852E-02 -0.73371454361E-02  0.51783929372E-02  0.92087333781E-02  0.51100000000E-03 0.  1.
</event>
<event>
 8    1  0.9956970E+004  0.1043930E+01  0.7957747E-01            NaN
         13   -1    0    0    0    0  0.00000000000E+00  0.00000000000E+00  0.74505805969E-08  0.10566000000E+00  0.10566000000E+00 0. -1.
     999900   -1    0    0    0    0 -0.00000000000E+00 -0.00000000000E+00 -0.74505805969E-08  0.93827000000E+00  0.93827000000E+00 0. -1.
     999902    2    1    2    0    0  0.95448960969E-02  0.90490711782E-02  0.19437827539E-01  0.10204604480E+01  0.10201905244E+01 0.  0.
     999903    2    3    3    0    0  0.23848288456E-01 -0.11019912264E+00 -0.58814132628E-01  0.12886183428E+00  0.20825048485E-01 0.  0.
         14    1    1    2    0    0 -0.95448960969E-02 -0.90490711782E-02 -0.19437827539E-01  0.23469551979E-01  0.00000000000E+00 0.  1.
     999901    1    3    3    0    0 -0.14303392359E-01  0.11924819381E+00  0.78251960167E-01  0.89159861374E+00  0.88000000000E+00 0.  1.
        -11    1    4    4    0    0  0.10552545354E-01 -0.62768548035E-01 -0.44148770104E-01  0.77463680899E-01  0.51100000000E-03 0. -1.
         11    1    4    4    0    0  0.13295743103E-01 -0.47430574601E-01 -0.14665362525E-01  0.51398153377E-01  0.51100000000E-03 0.  1.
</event>
<event>
 8    1  0.9956970E+004  0.1043930E+01  0.7957747E-01            NaN
         13   -1    0    0    0    0  0.00000000000E+00  0.00000000000E+00  0.74505805969E-08  0.10566000000E+00  0.10566000000E+00 0.  1.
     999900   -1    0    0    0    0 -0.00000000000E+00 -0.00000000000E+00 -0.74505805969E-08  0.93827000000E+00  0.93827000000E+00 0.  1.
     999902    2    1    2    0    0 -0.12691361133E-01  0.16142904392E-01  0.10898529566E-01  0.10206825925E+01  0.10204178128E+01 0.  0.
     999903    2    3    3    0    0  0.33156013477E-01 -0.50873020298E-01  0.11438734898E+00  0.13090562511E+00  0.19090093131E-01 0.  0.
         14    1    1    2    0    0  0.12691361133E-01 -0.16142904392E-01 -0.10898529566E-01  0.23247407518E-01  0.00000000000E+00 0. -1.
     999901    1    3    3    0    0 -0.45847374610E-01  0.67015924689E-01 -0.10348881941E+00  0.88977696737E+00  0.88000000000E+00 0.  1.
        -11    1    4    4    0    0  0.78544217915E-03 -0.70865100991E-02  0.27082726115E-01  0.28010189567E-01  0.51100000000E-03 0. -1.
         11    1    4    4    0    0  0.32370571297E-01 -0.43786510198E-01  0.87304622863E-01  0.10289543554E+00  0.51100000000E-03 0.  1.
</event>
<event>
 8    1  0.9956970E+004  0.1043930E+01  0.7957747E-01            NaN
         13   -1    0    0    0    0  0.00000000000E+00  0.00000000000E+00  0.74505805969E-08  0.10566000000E+00  0.10566000000E+00 0. -1.
     999900   -1    0    0    0    0 -0.00000000000E+00 -0.00000000000E+00 -0.74505805969E-08  0.93827000000E+00  0.93827000000E+00 0. -1.
     999902    2    1    2    0    0  0.22300215637E-01 -0.36975431669E-02  0.36749547000E-02  0.10210285430E+01  0.10207716732E+01 0.  0.
     999903    2    3    3    0    0  0.52127404776E-01 -0.11948498192E+00  0.15485560789E-01  0.13286420984E+00  0.20473603265E-01 0.  0.
         14    1    1    2    0    0 -0.22300215637E-01  0.36975431669E-02 -0.36749547000E-02  0.22901457049E-01  0.00000000000E+00 0. -1.
     999901    1    3    3    0    0 -0.29827189139E-01  0.11578743876E+00 -0.11810606089E-01  0.88816433311E+00  0.88000000000E+00 0.  1.
        -11    1    4    4    0    0  0.14147414815E-01 -0.24772780224E-01  0.11436402537E-01  0.30739102296E-01  0.51100000000E-03 0.  1.
         11    1    4    4    0    0  0.37979989961E-01 -0.94712201700E-01  0.40491582523E-02  0.10212510755E+00  0.51100000000E-03 0. -1.
</event>
<event>
 8    1  0.9956970E+004  0.1043930E+01  0.7957747E-01            NaN
         13   -1    0    0    0    0  0.00000000000E+00  0.00000000000E+00  0.74505805969E-08  0.10566000000E+00  0.10566000000E+00 0.  1.
     999900   -1    0    0    0    0 -0.00000000000E+00 -0.00000000000E+00 -0.74505805969E-08  0.93827000000E+00  0.93827000000E+00 0.  1.
     999902    2    1    2    0    0 -0.10764498562E-01 -0.17353119275E-01 -0.18608187495E-01  0.10163026617E+01  0.10159270793E+01 0.  0.
     999903    2    3    3    0    0  0.12029028462E+00 -0.24800945081E-01  0.13257511108E-01  0.12599583313E+00  0.24786062925E-01 0.  0.
         14    1    1    2    0    0  0.10764498562E-01  0.17353119275E-01  0.18608187495E-01  0.27627338267E-01  0.00000000000E+00 0. -1.
     999901    1    3    3    0    0 -0.13105478318E+00  0.74478258054E-02 -0.31865698603E-01  0.89030682860E+00  0.88000000000E+00 0. -1.
        -11    1    4    4    0    0  0.19338704380E-01 -0.12684029062E-01  0.68086773902E-02  0.24114089018E-01  0.51100000000E-03 0.  1.
         11    1    4    4    0    0  0.10095158024E+00 -0.12116916019E-01  0.64488337174E-02  0.10188174412E+00  0.51100000000E-03 0. -1.
</event>
<event>
 8    1  0.9956970E+004  0.1043930E+01  0.7957747E-01            NaN
         13   -1    0    0    0    0  0.00000000000E+00  0.00000000000E+00  0.74505805969E-08  0.10566000000E+00  0.10566000000E+00 0.  1.
     999900   -1    0    0    0    0 -0.00000000000E+00 -0.00000000000E+00 -0.74505805969E-08  0.93827000000E+00  0.93827000000E+00 0. -1.
     999902    2    1    2    0    0  0.69505979023E-02 -0.97583593650E-02  0.22956269472E-01  0.10180354698E+01  0.10177060926E+01 0.  0.
     999903    2    3    3    0    0 -0.20096601363E-01  0.56794506513E-01  0.11368537792E+00  0.13045865276E+00  0.21577895424E-01 0.  0.
         14    1    1    2    0    0 -0.69505979023E-02  0.97583593650E-02 -0.22956269472E-01  0.25894530248E-01  0.00000000000E+00 0. -1.
     999901    1    3    3    0    0  0.27047199266E-01 -0.66552865878E-01 -0.90729108446E-01  0.88757681699E+00  0.88000000000E+00 0. -1.
        -11    1    4    4    0    0 -0.22847173367E-01  0.36540570077E-01  0.69613998414E-01  0.81875371685E-01  0.51100000000E-03 0. -1.
         11    1    4    4    0    0  0.27505720037E-02  0.20253936436E-01  0.44071379504E-01  0.48583281074E-01  0.51100000000E-03 0.  1.
</event>
<event>
 8    1  0.9956970E+004  0.1043930E+01  0.7957747E-01            NaN
         13   -1    0    0    0    0  0.00000000000E+00  0.00000000000E+00  0.74505805969E-08  0.10566000000E+00  0.10566000000E+00 0. -1.
     999900   -1    0    0    0    0 -0.00000000000E+00 -0.00000000000E+00 -0.74505805969E-08  0.93827000000E+00  0.93827000000E+00 0. -1.
     999902    2    1    2    0    0 -0.88147153526E-02 -0.12918194379E-01  0.18094935713E-01  0.10200133604E+01  0.10197329306E+01 0.  0.
     999903    2    3    3    0    0 -0.47961185013E-01  0.70684582594E-01  0.98086334002E-01  0.13157625274E+00  0.19869471152E-01 0.  0.
         14    1    1    2    0    0  0.88147153526E-02  0.12918194379E-01 -0.18094935713E-01  0.23916639631E-01  0.00000000000E+00 0.  1.
     999901    1    3    3    0    0  0.39146469661E-01 -0.83602776973E-01 -0.79991398289E-01  0.88843710762E+00  0.88000000000E+00 0. -1.
        -11    1    4    4    0    0 -0.19433774240E-01  0.32394422188E-01  0.58051194413E-01  0.69262345209E-01  0.51100000000E-03 0.  1.
         11    1    4    4    0    0 -0.28527410773E-01  0.38290160407E-01  0.40035139589E-01  0.62313907535E-01  0.51100000000E-03 0. -1.
</event>
<event>
 8    1  0.9956970E+004  0.1043930E+01  0.7957747E-01            NaN
         13   -1    0    0    0    0  0.00000000000E+00  0.00000000000E+00  0.74505805969E-08  0.10566000000E+00  0.10566000000E+00 0.  1.
     999900   -1    0    0    0    0 -0.00000000000E+00 -0.00000000000E+00 -0.74505805969E-08  0.93827000000E+00  0.93827000000E+00 0.  1.
     999902    2    1    2    0    0  0.83389322038E-02  0.22339902093E-01  0.47363822461E-02  0.10196186378E+01  0.10193287616E+01 0.  0.
     999903    2    3    3    0    0 -0.98657550861E-01 -0.52183516694E-01 -0.58865330850E-01  0.12774019022E+00  0.19899679990E-01 0.  0.
         14    1    1    2    0    0 -0.83389322038E-02 -0.22339902093E-01 -0.47363822461E-02  0.24311362212E-01  0.00000000000E+00 0. -1.
     999901    1    3    3    0    0  0.10699648307E+00  0.74523418787E-01  0.63601713096E-01  0.89187844757E+00  0.88000000000E+00 0. -1.
        -11    1    4    4    0    0 -0.16153522702E-01 -0.82331763824E-03 -0.82889708949E-02  0.18181922536E-01  0.51100000000E-03 0. -1.
         11    1    4    4    0    0 -0.82504028159E-01 -0.51360199056E-01 -0.50576359955E-01  0.10955826768E+00  0.51100000000E-03 0.  1.
</event>
<event>
 8    1  0.9956970E+004  0.1043930E+01  0.7957747E-01            NaN
         13   -1    0    0    0    0  0.00000000000E+00  0.00000000000E+00  0.74505805969E-08  0.10566000000E+00  0.10566000000E+00 0.  1.
     999900   -1    0    0    0    0 -0.00000000000E+00 -0.00000000000E+00 -0.74505805969E-08  0.93827000000E+00  0.93827000000E+00 0.  1.
     999902    2    1    2    0    0 -0.25117183191E-01 -0.35921398255E-02  0.38399526162E-02  0.10182683244E+01  0.10179449193E+01 0.  0.
     999903    2    3    3    0    0  0.77211466316E-01  0.96950031737E-01 -0.15334925686E-01  0.12644572053E+00  0.19810126425E-01 0.  0.
         14    1    1    2    0    0  0.25117183191E-01  0.35921398255E-02 -0.38399526162E-02  0.25661675628E-01  0.00000000000E+00 0. -1.
     999901    1    3    3    0    0 -0.10232864951E+00 -0.10054217156E+00  0.19174878303E-01  0.89182260385E+00  0.88000000000E+00 0.  1.
        -11    1    4    4    0    0  0.42152935191E-01  0.60550445879E-01 -0.17617408029E-01  0.75854206396E-01  0.51100000000E-03 0. -1.
         11    1    4    4    0    0  0.35058531125E-01  0.36399585859E-01  0.22824823422E-02  0.50591514130E-01  0.51100000000E-03 0.  1.
</event>
<event>
 8    1  0.9956970E+004  0.1043930E+01  0.7957747E-01            NaN
         13   -1    0    0    0    0  0.00000000000E+00  0.00000000000E+00  0.74505805969E-08  0.10566000000E+00  0.10566000000E+00 0.  1.
     999900   -1    0    0    0    0 -0.00000000000E+00 -0.00000000000E+00 -0.74505805969E-08  0.93827000000E+00  0.93827000000E+00 0.  1.
     999902    2    1    2    0    0 -0.11213305887E-02 -0.10906488854E-01 -0.21810398021E-01  0.10195188889E+01  0.10192266002E+01 0.  0.
     999903    2    3    3    0    0 -0.24101520347E-01  0.99994095971E-01 -0.77671276259E-01  0.13050400349E+00  0.20463754751E-01 0.  0.
         14    1    1    2    0    0  0.11213305887E-02  0.10906488854E-01  0.21810398021E-01  0.24411111061E-01  0.00000000000E+00 0.  1.
     999901    1    3    3    0    0  0.22980189758E-01 -0.11090058482E+00  0.55860878238E-01  0.88901488545E+00  0.88000000000E+00 0. -1.
        -11    1    4    4    0    0 -0.48949283010E-02  0.62948482729E-01 -0.46441076380E-01  0.78380523712E-01  0.51100000000E-03 0. -1.
         11    1    4    4    0    0 -0.19206592046E-01  0.37045613241E-01 -0.31230199879E-01  0.52123479776E-01  0.51100000000E-03 0.  1.
</event>
<event>
 8    1  0.9956970E+004  0.1043930E+01  0.7957747E-01            NaN
         13   -1    0    0    0    0  0.00000000000E+00  0.00000000000E+00  0.74505805969E-08  0.10566000000E+00  0.10566000000E+00 0.  1.
     999900   -1    0    0    0    0 -0.00000000000E+00 -0.00000000000E+00 -0.74505805969E-08  0.93827000000E+00  0.93827000000E+00 0.  1.
     999902    2    1    2    0    0  0.59117011953E-02  0.21246161285E-01  0.30431273376E-02  0.10216677404E+01  0.10214251629E+01 0.  0.
     999903    2    3    3    0    0 -0.77524445441E-01  0.10267482109E+00 -0.29298666829E-01  0.13338951319E+00  0.19549727003E-01 0.  0.
         14    1    1    2    0    0 -0.59117011953E-02 -0.21246161285E-01 -0.30431273376E-02  0.22262259642E-01  0.00000000000E+00 0. -1.
     999901    1    3    3    0    0  0.83436146637E-01 -0.81428659803E-01  0.32341794167E-01  0.88827822716E+00  0.88000000000E+00 0.  1.
        -11    1    4    4    0    0 -0.70528678634E-01  0.81921877232E-01 -0.26533489811E-01  0.11130936924E+00  0.51100000000E-03 0. -1.
         11    1    4    4    0    0 -0.69957668074E-02  0.20752943856E-01 -0.27651770179E-02  0.22080143950E-01  0.51100000000E-03 0.  1.
</event>
<event>
 8    1  0.9956970E+004  0.1043930E+01  0.7957747E-01            NaN
         13   -1    0    0    0    0  0.00000000000E+00  0.00000000000E+00  0.74505805969E-08  0.10566000000E+00  0.10566000000E+00 0.  1.
     999900   -1    0    0    0    0 -0.00000000000E+00 -0.00000000000E+00 -0.74505805969E-08  0.93827000000E+00  0.93827000000E+00 0. -1.
     999902    2    1    2    0    0 -0.21163412582E-01 -0.72733233327E-02 -0.82839309689E-02  0.10200675865E+01  0.10197884419E+01 0.  0.
     999903    2    3    3    0    0  0.11943710507E+00  0.92160477023E-02  0.39423349765E-01  0.12747787700E+00  0.18607821303E-01 0.  0.
         14    1    1    2    0    0  0.21163412582E-01  0.72733233327E-02  0.82839309689E-02  0.23862413472E-01  0.00000000000E+00 0.  1.
     999901    1    3    3    0    0 -0.14060051766E+00 -0.16489371035E-01 -0.47707280734E-01  0.89258970953E+00  0.88000000000E+00 0. -1.
        -11    1    4    4    0    0  0.38564131492E-01  0.63719714131E-02  0.45331379435E-02  0.39352315282E-01  0.51100000000E-03 0.  1.
         11    1    4    4    0    0  0.80872973582E-01  0.28440762892E-02  0.34890211822E-01  0.88125561717E-01  0.51100000000E-03 0. -1.
</event>
<event>
 8    1  0.9956970E+004  0.1043930E+01  0.7957747E-01            NaN
         13   -1    0    0    0    0  0.00000000000E+00  0.00000000000E+00  0.74505805969E-08  0.10566000000E+00  0.10566000000E+00 0. -1.
     999900   -1    0    0    0    0 -0.00000000000E+00 -0.00000000000E+00 -0.74505805969E-08  0.93827000000E+00  0.93827000000E+00 0.  1.
     999902    2    1    2    0    0  0.21362834978E-01  0.48311119992E-02  0.77198573336E-02  0.10207070252E+01  0.10204428082E+01 0.  0.
     999903    2    3    3    0    0  0.65163972125E-01  0.75097278335E-01 -0.84485637965E-01  0.13202388307E+00  0.20162792486E-01 0.  0.
         14    1    1    2    0    0 -0.21362834978E-01 -0.48311119992E-02 -0.77198573336E-02  0.23222974802E-01  0.00000000000E+00 0.  1.
     999901    1    3    3    0    0 -0.43801137147E-01 -0.70266166336E-01  0.92205495299E-01  0.88868314213E+00  0.88000000000E+00 0. -1.
        -11    1    4    4    0    0  0.21234472392E-01  0.21581591111E-01 -0.38169953832E-01  0.48722421832E-01  0.51100000000E-03 0. -1.
         11    1    4    4    0    0  0.43929499733E-01  0.53515687224E-01 -0.46315684133E-01  0.83301461233E-01  0.51100000000E-03 0.  1.
</event>
<event>
 8    1  0.9956970E+004  0.1043930E+01  0.7957747E-01            NaN
         13   -1    0    0    0    0  0.00000000000E+00  0.00000000000E+00  0.74505805969E-08  0.10566000000E+00  0.10566000000E+00 0. -1.
     999900   -1    0    0    0    0 -0.00000000000E+00 -0.00000000000E+00 -0.74505805969E-08  0.93827000000E+00  0.93827000000E+00 0.  1.
     999902    2    1    2    0    0 -0.60480983991E-02 -0.34545688808E-02 -0.11525195824E-01  0.10304636093E+01  0.10303756142E+01 0.  0.
     999903    2    3    3    0    0 -0.54969302376E-01 -0.65890599446E-01 -0.10997358333E+00  0.14142838662E+00  0.23336756674E-01 0.  0.
         14    1    1    2    0    0  0.60480983991E-02  0.34545688808E-02  0.11525195824E-01  0.13466390726E-01  0.00000000000E+00 0. -1.
     999901    1    3    3    0    0  0.48921203977E-01  0.62436030566E-01  0.98448387511E-01  0.88903522265E+00  0.88000000000E+00 0. -1.
        -11    1    4    4    0    0 -0.43257350514E-01 -0.42745782662E-01 -0.61759162079E-01  0.86676730041E-01  0.51100000000E-03 0. -1.
         11    1    4    4    0    0 -0.11711951862E-01 -0.23144816784E-01 -0.48214421256E-01  0.54751656581E-01  0.51100000000E-03 0.  1.
</event>
<event>
 8    1  0.9956970E+004  0.1043930E+01  0.7957747E-01            NaN
         13   -1    0    0    0    0  0.00000000000E+00  0.00000000000E+00  0.74505805969E-08  0.10566000000E+00  0.10566000000E+00 0. -1.
     999900   -1    0    0    0    0 -0.00000000000E+00 -0.00000000000E+00 -0.74505805969E-08  0.93827000000E+00  0.93827000000E+00 0.  1.
     999902    2    1    2    0    0  0.11444276022E-01  0.20089602247E-01  0.73616829604E-02  0.10196656651E+01  0.10193769228E+01 0.  0.
     999903    2    3    3    0    0  0.35081504720E-01  0.11442955716E+00 -0.52123029153E-01  0.13231163392E+00  0.21557429771E-01 0.  0.
         14    1    1    2    0    0 -0.11444276022E-01 -0.20089602247E-01 -0.73616829604E-02  0.24264334899E-01  0.00000000000E+00 0. -1.
     999901    1    3    3    0    0 -0.23637228698E-01 -0.94339954911E-01  0.59484712113E-01  0.88735403118E+00  0.88000000000E+00 0. -1.
        -11    1    4    4    0    0  0.19419551068E-01  0.81995450907E-01 -0.27344771482E-01  0.88591029916E-01  0.51100000000E-03 0. -1.
         11    1    4    4    0    0  0.15661953652E-01  0.32434106251E-01 -0.24778257671E-01  0.43720604007E-01  0.51100000000E-03 0.  1.
</event>
<event>
 8    1  0.9956970E+004  0.1043930E+01  0.7957747E-01            NaN
         13   -1    0    0    0    0  0.00000000000E+00  0.00000000000E+00  0.74505805969E-08  0.10566000000E+00  0.10566000000E+00 0. -1.
     999900   -1    0    0    0    0 -0.00000000000E+00 -0.00000000000E+00 -0.74505805969E-08  0.93827000000E+00  0.93827000000E+00 0. -1.
     999902    2    1    2    0    0 -0.20534316222E-01  0.70174045645E-02 -0.95780599189E-02  0.10202099380E+01  0.10199341529E+01 0.  0.
     999903    2    3    3    0    0  0.37392512750E-01 -0.14040190790E-02  0.12198644544E+00  0.12850614359E+00  0.15263184151E-01 0.  0.
         14    1    1    2    0    0  0.20534316222E-01 -0.70174045645E-02  0.95780599189E-02  0.23720062001E-01  0.00000000000E+00 0. -1.
     999901    1    3    3    0    0 -0.57926828971E-01  0.84214236435E-02 -0.13156450536E+00  0.89170379441E+00  0.88000000000E+00 0. -1.
        -11    1    4    4    0    0  0.12385749398E-01  0.38479312216E-02  0.24507597087E-01  0.27732594519E-01  0.51100000000E-03 0. -1.
         11    1    4    4    0    0  0.25006763352E-01 -0.52519503006E-02  0.97478848353E-01  0.10077354907E+00  0.51100000000E-03 0.  1.
</event>
<event>
 8    1  0.9956970E+004  0.1043930E+01  0.7957747E-01            NaN
         13   -1    0    0    0    0  0.00000000000E+00  0.00000000000E+00  0.74505805969E-08  0.10566000000E+00  0.10566000000E+00 0. -1.
     999900   -1    0    0    0    0 -0.00000000000E+00 -0.00000000000E+00 -0.74505805969E-08  0.93827000000E+00  0.93827000000E+00 0. -1.
     999902    2    1    2    0    0 -0.24878515430E-02  0.30662501590E-02  0.18106750706E-01  0.10253977115E+01  0.10252302283E+01 0.  0.
     999903    2    3    3    0    0  0.12001700122E+00 -0.56500969765E-01  0.14605875814E-01  0.13491023335E+00  0.19773701923E-01 0.  0.
         14    1    1    2    0    0  0.24878515430E-02 -0.30662501590E-02 -0.18106750706E-01  0.18532288484E-01  0.00000000000E+00 0.  1.
     999901    1    3    3    0    0 -0.12250485277E+00  0.59567219924E-01  0.35008748917E-02  0.89048747816E+00  0.88000000000E+00 0.  1.
        -11    1    4    4    0    0  0.43823968132E-01 -0.10968944075E-01  0.16667823993E-02  0.45209481323E-01  0.51100000000E-03 0.  1.
         11    1    4    4    0    0  0.76193033092E-01 -0.45532025690E-01  0.12939093415E-01  0.89700752029E-01  0.51100000000E-03 0. -1.
</event>
<event>
 8    1  0.9956970E+004  0.1043930E+01  0.7957747E-01            NaN
         13   -1    0    0    0    0  0.00000000000E+00  0.00000000000E+00  0.74505805969E-08  0.10566000000E+00  0.10566000000E+00 0. -1.
     999900   -1    0    0    0    0 -0.00000000000E+00 -0.00000000000E+00 -0.74505805969E-08  0.93827000000E+00  0.93827000000E+00 0. -1.
     999902    2    1    2    0    0 -0.21603842664E-01 -0.50499270164E-02  0.74872842905E-02  0.10205144666E+01  0.10202457984E+01 0.  0.
     999903    2    3    3    0    0  0.12390577032E+00  0.18134612977E-01 -0.17181780273E-01  0.12792322017E+00  0.19688386884E-01 0.  0.
         14    1    1    2    0    0  0.21603842664E-01  0.50499270164E-02 -0.74872842905E-02  0.23415533450E-01  0.00000000000E+00 0.  1.
     999901    1    3    3    0    0 -0.14550961299E+00 -0.23184539993E-01  0.24669064564E-01  0.89259124638E+00  0.88000000000E+00 0.  1.
        -11    1    4    4    0    0  0.85963881458E-01  0.33225848545E-02 -0.11857880583E-01  0.86842955606E-01  0.51100000000E-03 0.  1.
         11    1    4    4    0    0  0.37941888866E-01  0.14812028122E-01 -0.53238996897E-02  0.41080264564E-01  0.51100000000E-03 0. -1.
</event>
<event>
 8    1  0.9956970E+004  0.1043930E+01  0.7957747E-01            NaN
         13   -1    0    0    0    0  0.00000000000E+00  0.00000000000E+00  0.74505805969E-08  0.10566000000E+00  0.10566000000E+00 0.  1.
     999900   -1    0    0    0    0 -0.00000000000E+00 -0.00000000000E+00 -0.74505805969E-08  0.93827000000E+00  0.93827000000E+00 0. -1.
     999902    2    1    2    0    0 -0.19042315531E-01  0.14411026251E-01 -0.18320045941E-02  0.10199791399E+01  0.10196978975E+01 0.  0.
     999903    2    3    3    0    0  0.71788296432E-01 -0.44284382268E-01 -0.94862907931E-01  0.12849156286E+00  0.19910911776E-01 0.  0.
         14    1    1    2    0    0  0.19042315531E-01 -0.14411026251E-01  0.18320045941E-02  0.23950860094E-01  0.00000000000E+00 0. -1.
     999901    1    3    3    0    0 -0.90830611963E-01  0.58695408519E-01  0.93030903337E-01  0.89148757705E+00  0.88000000000E+00 0.  1.
        -11    1    4    4    0    0  0.16177996306E-01 -0.68519407062E-02 -0.32418777282E-01  0.36877023977E-01  0.51100000000E-03 0.  1.
         11    1    4    4    0    0  0.55610300126E-01 -0.37432441562E-01 -0.62444130649E-01  0.91614538883E-01  0.51100000000E-03 0. -1.
</event>
<event>
 8    1  0.9956970E+004  0.1043930E+01  0.7957747E-01            NaN
         13   -1    0    0    0    0  0.00000000000E+00  0.00000000000E+00  0.74505805969E-08  0.10566000000E+00  0.10566000000E+00 0.  1.
     999900   -1    0    0    0    0 -0.00000000000E+00 -0.00000000000E+00 -0.74505805969E-08  0.93827000000E+00  0.93827000000E+00 0. -1.
     999902    2    1    2    0    0 -0.14619592519E-01  0.18327654994E-01  0.84131746960E-02  0.10190218300E+01  0.10187173667E+01 0.  0.
     999903    2    3    3    0    0  0.10382812893E+00 -0.48767486792E-01 -0.49775992122E-01  0.12665553758E+00  0.20135234843E-01 0.  0.
         14    1    1    2    0    0  0.14619592519E-01 -0.18327654994E-01 -0.84131746960E-02  0.24908169974E-01  0.00000000000E+00 0. -1.
     999901    1    3    3    0    0 -0.11844772145E+00  0.67095141786E-01  0.58189166818E-01  0.89236629245E+00  0.88000000000E+00 0.  1.
        -11    1    4    4    0    0  0.33452871925E-01 -0.20230580954E-01 -0.77448232333E-02  0.39857426582E-01  0.51100000000E-03 0.  1.
         11    1    4    4    0    0  0.70375257002E-01 -0.28536905838E-01 -0.42031168889E-01  0.86798110994E-01  0.51100000000E-03 0. -1.
</event>
<event>
 8    1  0.9956970E+004  0.1043930E+01  0.7957747E-01            NaN
         13   -1    0    0    0    0  0.00000000000E+00  0.00000000000E+00  0.74505805969E-08  0.10566000000E+00  0.10566000000E+00 0. -1.
     999900   -1    0    0    0    0 -0.00000000000E+00 -0.00000000000E+00 -0.74505805969E-08  0.93827000000E+00  0.93827000000E+00 0.  1.
     999902    2    1    2    0    0 -0.56323835779E-02 -0.22795801992E-01  0.40450807422E-02  0.10201028094E+01  0.10198244980E+01 0.  0.
     999903    2    3    3    0    0 -0.48913933196E-01 -0.12280283689E+00 -0.69737067279E-02  0.13331302979E+00  0.15831036481E-01 0.  0.
         14    1    1    2    0    0  0.56323835779E-02  0.22795801992E-01 -0.40450807422E-02  0.23827190591E-01  0.00000000000E+00 0.  1.
     999901    1    3    3    0    0  0.43281549618E-01  0.10000703490E+00  0.11018787470E-01  0.88678977962E+00  0.88000000000E+00 0. -1.
        -11    1    4    4    0    0 -0.11249791873E-01 -0.47359396070E-01 -0.53529178932E-02  0.48973309713E-01  0.51100000000E-03 0.  1.
         11    1    4    4    0    0 -0.37664141323E-01 -0.75443440821E-01 -0.16207888346E-02  0.84339720073E-01  0.51100000000E-03 0. -1.
</event>
<event>
 8    1  0.9956970E+004  0.1043930E+01  0.7957747E-01            NaN
         13   -1    0    0    0    0  0.00000000000E+00  0.00000000000E+00  0.74505805969E-08  0.10566000000E+00  0.10566000000E+00 0.  1.
     999900   -1    0    0    0    0 -0.00000000000E+00 -0.00000000000E+00 -0.74505805969E-08  0.93827000000E+00  0.93827000000E+00 0. -1.
     999902    2    1    2    0    0 -0.13211508322E-02 -0.15717864908E-01  0.18313832470E-01  0.10197599115E+01  0.10194734347E+01 0.  0.
     999903    2    3    3    0    0  0.33081006896E-02 -0.93170568193E-01  0.92816560957E-01  0.13320985216E+00  0.20934479163E-01 0.  0.
         14    1    1    2    0    0  0.13211508322E-02  0.15717864908E-01 -0.18313832470E-01  0.24170088468E-01  0.00000000000E+00 0. -1.
     999901    1    3    3    0    0 -0.46292515218E-02  0.77452703285E-01 -0.74502728487E-01  0.88655005937E+00  0.88000000000E+00 0. -1.
        -11    1    4    4    0    0  0.86430753714E-02 -0.22361786581E-01  0.17431190711E-01  0.29645569341E-01  0.51100000000E-03 0.  1.
         11    1    4    4    0    0 -0.53349746818E-02 -0.70808781612E-01  0.75385370247E-01  0.10356428282E+00  0.51100000000E-03 0. -1.
</event>
<event>
 8    1  0.9956970E+004  0.1043930E+01  0.7957747E-01            NaN
         13   -1    0    0    0    0  0.00000000000E+00  0.00000000000E+00  0.74505805969E-08  0.10566000000E+00  0.10566000000E+00 0.  1.
     999900   -1    0    0    0    0 -0.00000000000E+00 -0.00000000000E+00 -0.74505805969E-08  0.93827000000E+00  0.93827000000E+00 0. -1.
     999902    2    1    2    0    0  0.93930692032E-02 -0.21880036194E-01 -0.41786467925E-02  0.10197550787E+01  0.10194684858E+01 0.  0.
     999903    2    3    3    0    0 -0.70597483699E-01  0.16152912326E-01 -0.10525257765E+00  0.12955233028E+00  0.21465784327E-01 0.  0.
         14    1    1    2    0    0 -0.93930692032E-02  0.21880036194E-01  0.41786467925E-02  0.24174921343E-01  0.00000000000E+00 0. -1.
     999901    1    3    3    0    0  0.79990552903E-01 -0.38032948520E-01  0.10107393086E+00  0.89020274838E+00  0.88000000000E+00 0.  1.
        -11    1    4    4    0    0 -0.51703693444E-01  0.15612207123E-01 -0.61272435822E-01  0.81679773748E-01  0.51100000000E-03 0.  1.
         11    1    4    4    0    0 -0.18893790255E-01  0.54070520268E-03 -0.43980141827E-01  0.47872556527E-01  0.51100000000E-03 0. -1.
</event>
<event>
 8    1  0.9956970E+004  0.1043930E+01  0.7957747E-01            NaN
         13   -1    0    0    0    0  0.00000000000E+00  0.00000000000E+00  0.74505805969E-08  0.10566000000E+00  0.10566000000E+00 0. -1.
     999900   -1    0    0    0    0 -0.00000000000E+00 -0.00000000000E+00 -0.74505805969E-08  0.93827000000E+00  0.93827000000E+00 0. -1.
     999902    2    1    2    0    0  0.21197200832E-01 -0.11354349023E-03  0.11330249760E-01  0.10198944269E+01  0.10196111677E+01 0.  0.
     999903    2    3    3    0    0 -0.30629719168E-01 -0.98426752831E-01  0.78116213477E-01  0.13039350968E+00  0.16562584001E-01 0.  0.
         14    1    1    2    0    0 -0.21197200832E-01  0.11354349023E-03 -0.11330249760E-01  0.24035573112E-01  0.00000000000E+00 0.  1.
     999901    1    3    3    0    0  0.51826920000E-01  0.98313209341E-01 -0.66785963718E-01  0.88950091721E+00  0.88000000000E+00 0. -1.
        -11    1    4    4    0    0 -0.21922642597E-01 -0.78196022221E-01  0.68940407972E-01  0.10652821749E+00  0.51100000000E-03 0. -1.
         11    1    4    4    0    0 -0.87070765709E-02 -0.20230730611E-01  0.91758055049E-02  0.23865292186E-01  0.51100000000E-03 0.  1.
</event>
<event>
 8    1  0.9956970E+004  0.1043930E+01  0.7957747E-01            NaN
         13   -1    0    0    0    0  0.00000000000E+00  0.00000000000E+00  0.74505805969E-08  0.10566000000E+00  0.10566000000E+00 0. -1.
     999900   -1    0    0    0    0 -0.00000000000E+00 -0.00000000000E+00 -0.74505805969E-08  0.93827000000E+00  0.93827000000E+00 0.  1.
     999902    2    1    2    0    0 -0.97156254142E-02 -0.20468373839E-01  0.90640220365E-03  0.10212546991E+01  0.10210029340E+01 0.  0.
     999903    2    3    3    0    0 -0.53261525618E-01 -0.10123433432E-01 -0.11899122010E+00  0.13199731060E+00  0.18030682983E-01 0.  0.
         14    1    1    2    0    0  0.97156254142E-02  0.20468373839E-01 -0.90640220365E-03  0.22675300875E-01  0.00000000000E+00 0. -1.
     999901    1    3    3    0    0  0.43545900204E-01 -0.10344940407E-01  0.11989762230E+00  0.88925738853E+00  0.88000000000E+00 0. -1.
        -11    1    4    4    0    0 -0.24738911291E-01 -0.97931945745E-02 -0.74842583939E-01  0.79432952126E-01  0.51100000000E-03 0.  1.
         11    1    4    4    0    0 -0.28522614327E-01 -0.33023885791E-03 -0.44148636160E-01  0.52564358472E-01  0.51100000000E-03 0. -1.
</event>
<event>
 8    1  0.9956970E+004  0.1043930E+01  0.7957747E-01            NaN
         13   -1    0    0    0    0  0.00000000000E+00  0.00000000000E+00  0.74505805969E-08  0.10566000000E+00  0.10566000000E+00 0.  1.
     999900   -1    0    0    0    0 -0.00000000000E+00 -0.00000000000E+00 -0.74505805969E-08  0.93827000000E+00  0.93827000000E+00 0.  1.
     999902    2    1    2    0    0  0.11415693426E-01  0.17724007004E-01  0.10176777174E-01  0.10205200604E+01  0.10202515221E+01 0.  0.
     999903    2    3    3    0    0 -0.12718838490E+00  0.41716055592E-02 -0.11800425756E-01  0.12929744194E+00  0.19603338971E-01 0.  0.
         14    1    1    2    0    0 -0.11415693426E-01 -0.17724007004E-01 -0.10176777174E-01  0.23409939648E-01  0.00000000000E+00 0. -1.
     999901    1    3    3    0    0  0.13860407833E+00  0.13552401445E-01  0.21977202930E-01  0.89122261841E+00  0.88000000000E+00 0. -1.
        -11    1    4    4    0    0 -0.86876684044E-01  0.25169574958E-02 -0.17165288593E-01  0.88593462281E-01  0.51100000000E-03 0. -1.
         11    1    4    4    0    0 -0.40311700857E-01  0.16546480633E-02  0.53648628366E-02  0.40703979663E-01  0.51100000000E-03 0.  1.
</event>
<event>
 8    1  0.9956970E+004  0.1043930E+01  0.7957747E-01            NaN
         13   -1    0    0    0    0  0.00000000000E+00  0.00000000000E+00  0.74505805969E-08  0.10566000000E+00  0.10566000000E+00 0.  1.
     999900   -1    0    0    0    0 -0.00000000000E+00 -0.00000000000E+00 -0.74505805969E-08  0.93827000000E+00  0.93827000000E+00 0.  1.
     999902    2    1    2    0    0  0.95222058813E-02  0.20451508637E-01 -0.73191120165E-02  0.10202127908E+01  0.10199370728E+01 0.  0.
     999903    2    3    3    0    0  0.21924962780E-01 -0.26205334808E-01  0.12303990693E+00  0.12930080682E+00  0.20309022157E-01 0.  0.
         14    1    1    2    0    0 -0.95222058813E-02 -0.20451508637E-01  0.73191120165E-02  0.23717209176E-01  0.00000000000E+00 0.  1.
     999901    1    3    3    0    0 -0.12402756899E-01  0.46656843446E-01 -0.13035901895E+00  0.89091198400E+00  0.88000000000E+00 0.  1.
        -11    1    4    4    0    0  0.17281033108E-01 -0.96155050357E-02  0.41694478410E-01  0.46149568722E-01  0.51100000000E-03 0. -1.
         11    1    4    4    0    0  0.46439296729E-02 -0.16589829773E-01  0.81345428523E-01  0.83151238098E-01  0.51100000000E-03 0.  1.
</event>
<event>
 8    1  0.9956970E+004  0.1043930E+01  0.7957747E-01            NaN
         13   -1    0    0    0    0  0.00000000000E+00  0.00000000000E+00  0.74505805969E-08  0.10566000000E+00  0.10566000000E+00 0. -1.
     999900   -1    0    0    0    0 -0.00000000000E+00 -0.00000000000E+00 -0.74505805969E-08  0.93827000000E+00  0.93827000000E+00 0.  1.
     999902    2    1    2    0    0  0.23097059500E-02  0.94694730312E-02  0.21608370634E-01  0.10202249933E+01  0.10199495623E+01 0.  0.
     999903    2    3    3    0    0 -0.46487737415E-01 -0.10081993533E+00 -0.60463079888E-01  0.12821565083E+00  0.21393924318E-01 0.  0.
         14    1    1    2    0    0 -0.23097059500E-02 -0.94694730312E-02 -0.21608370634E-01  0.23705006697E-01  0.00000000000E+00 0. -1.
     999901    1    3    3    0    0  0.48797443365E-01  0.11028940836E+00  0.82071450521E-01  0.89200934248E+00  0.88000000000E+00 0. -1.
        -11    1    4    4    0    0 -0.17304381402E-01 -0.59982602765E-01 -0.39090398949E-01  0.73659179069E-01  0.51100000000E-03 0.  1.
         11    1    4    4    0    0 -0.29183356013E-01 -0.40837332563E-01 -0.21372680939E-01  0.54556471757E-01  0.51100000000E-03 0. -1.
</event>
<event>
 8    1  0.9956970E+004  0.1043930E+01  0.7957747E-01            NaN
         13   -1    0    0    0    0  0.00000000000E+00  0.00000000000E+00  0.74505805969E-08  0.10566000000E+00  0.10566000000E+00 0.  1.
     999900   -1    0    0    0    0 -0.00000000000E+00 -0.00000000000E+00 -0.74505805969E-08  0.93827000000E+00  0.93827000000E+00 0.  1.
     999902    2    1    2    0    0  0.57443526463E-02  0.72349935513E-02  0.16929691509E-01  0.10246438087E+01  0.10244622871E+01 0.  0.
     999903    2    3    3    0    0  0.16338687829E-01  0.13324332778E+00  0.83915458893E-02  0.13556381224E+00  0.16923121164E-01 0.  0.
         14    1    1    2    0    0 -0.57443526463E-02 -0.72349935513E-02 -0.16929691509E-01  0.19286191267E-01  0.00000000000E+00 0. -1.
     999901    1    3    3    0    0 -0.10594335183E-01 -0.12600833422E+00  0.85381456195E-02  0.88907999649E+00  0.88000000000E+00 0.  1.
        -11    1    4    4    0    0 -0.37160865666E-03  0.18588634162E-01  0.64319471652E-02  0.19680103616E-01  0.51100000000E-03 0. -1.
         11    1    4    4    0    0  0.16710296486E-01  0.11465469361E+00  0.19595987241E-02  0.11588370862E+00  0.51100000000E-03 0.  1.
</event>
<event>
 8    1  0.9956970E+004  0.1043930E+01  0.7957747E-01            NaN
         13   -1    0    0    0    0  0.00000000000E+00  0.00000000000E+00  0.74505805969E-08  0.10566000000E+00  0.10566000000E+00 0.  1.
     999900   -1    0    0    0    0 -0.00000000000E+00 -0.00000000000E+00 -0.74505805969E-08  0.93827000000E+00  0.93827000000E+00 0. -1.
     999902    2    1    2    0    0 -0.19157541553E-01 -0.24322203318E-02  0.15409708626E-01  0.10192240045E+01  0.10189245238E+01 0.  0.
     999903    2    3    3    0    0 -0.77418241685E-02 -0.86177316730E-01  0.96872381868E-01  0.13142913691E+00  0.20072217105E-01 0.  0.
         14    1    1    2    0    0  0.19157541553E-01  0.24322203318E-02 -0.15409708626E-01  0.24705995508E-01  0.00000000000E+00 0. -1.
     999901    1    3    3    0    0 -0.11415717385E-01  0.83745096399E-01 -0.81462673242E-01  0.88779486758E+00  0.88000000000E+00 0.  1.
        -11    1    4    4    0    0  0.49560475777E-02 -0.51621292600E-01  0.52962624023E-01  0.74125710261E-01  0.51100000000E-03 0. -1.
         11    1    4    4    0    0 -0.12697871746E-01 -0.34556024130E-01  0.43909757845E-01  0.57303426648E-01  0.51100000000E-03 0.  1.
</event>
<event>
 7    1  0.1298258E+005  0.1043930E+01  0.7957747E-01            NaN
         13   -1    0    0    0    0  0.00000000000E+00  0.00000000000E+00  0.74505805969E-08  0.10566000000E+00  0.10566000000E+00 0.  1.
     999900   -1    0    0    0    0 -0.00000000000E+00 -0.00000000000E+00 -0.74505805969E-08  0.93827000000E+00  0.93827000000E+00 0. -1.
     999903    2    1    2    0    0  0.56781169181E-01  0.29331658982E-01 -0.80333903807E-01  0.10468404299E+00  0.20512565971E-01 0.  0.
         14    1    1    2    0    0  0.40981841747E-01  0.25282130850E-01 -0.29845733931E-02  0.48245260613E-01  0.00000000000E+00 0.  1.
     999901    1    1    2    0    0 -0.97763010928E-01 -0.54613789832E-01  0.83318477200E-01  0.89100069640E+00  0.88000000000E+00 0.  1.
        -11    1    3    3    0    0  0.24573411736E-01  0.24101040557E-01 -0.38957826270E-01  0.51987364513E-01  0.51100000000E-03 0. -1.
         11    1    3    3    0    0  0.32207757445E-01  0.52306184253E-02 -0.41376077537E-01  0.52696678473E-01  0.51100000000E-03 0.  1.
</event>
<event>
 8    1  0.9956970E+004  0.1043930E+01  0.7957747E-01            NaN
         13   -1    0    0    0    0  0.00000000000E+00  0.00000000000E+00  0.74505805969E-08  0.10566000000E+00  0.10566000000E+00 0. -1.
     999900   -1    0    0    0    0 -0.00000000000E+00 -0.00000000000E+00 -0.74505805969E-08  0.93827000000E+00  0.93827000000E+00 0. -1.
     999902    2    1    2    0    0 -0.23044091565E-01  0.43940047180E-02  0.27839744223E-02  0.10203061149E+01  0.10200325878E+01 0.  0.
     999903    2    3    3    0    0 -0.28534668120E-01  0.11633517990E+00 -0.50652960032E-01  0.13158991774E+00  0.20052000496E-01 0.  0.
         14    1    1    2    0    0  0.23044091565E-01 -0.43940047180E-02 -0.27839744223E-02  0.23623885097E-01  0.00000000000E+00 0.  1.
     999901    1    3    3    0    0  0.54905765553E-02 -0.11194117518E+00  0.53436934454E-01  0.88871619716E+00  0.88000000000E+00 0. -1.
        -11    1    4    4    0    0 -0.78357300171E-02  0.54218235319E-01 -0.32268932092E-01  0.63581135609E-01  0.51100000000E-03 0. -1.
         11    1    4    4    0    0 -0.20698938103E-01  0.62116944583E-01 -0.18384027940E-01  0.68008782132E-01  0.51100000000E-03 0.  1.
</event>
<event>
 8    1  0.9956970E+004  0.1043930E+01  0.7957747E-01            NaN
         13   -1    0    0    0    0  0.00000000000E+00  0.00000000000E+00  0.74505805969E-08  0.10566000000E+00  0.10566000000E+00 0.  1.
     999900   -1    0    0    0    0 -0.00000000000E+00 -0.00000000000E+00 -0.74505805969E-08  0.93827000000E+00  0.93827000000E+00 0. -1.
     999902    2    1    2    0    0 -0.23056113643E-01  0.20980483280E-02  0.13413267494E-01  0.10171736563E+01  0.10168216880E+01 0.  0.
     999903    2    3    3    0    0 -0.45794928246E-01 -0.79703075330E-01  0.89433571644E-01  0.12982504152E+00  0.20159910659E-01 0.  0.
         14    1    1    2    0    0  0.23056113643E-01 -0.20980483280E-02 -0.13413267494E-01  0.26756343696E-01  0.00000000000E+00 0. -1.
     999901    1    3    3    0    0  0.22738814603E-01  0.81801123658E-01 -0.76020304149E-01  0.88734861479E+00  0.88000000000E+00 0. -1.
        -11    1    4    4    0    0 -0.38657011592E-01 -0.55126812488E-01  0.73477751745E-01  0.99662285358E-01  0.51100000000E-03 0.  1.
         11    1    4    4    0    0 -0.71379166536E-02 -0.24576262842E-01  0.15955819899E-01  0.30162756159E-01  0.51100000000E-03 0. -1.
</event>
<event>
 8    1  0.1092367E+005  0.1043930E+01  0.7957747E-01            NaN
         13   -1    0    0    0    0  0.00000000000E+00  0.00000000000E+00  0.74505805969E-08  0.10566000000E+00  0.10566000000E+00 0.  1.
     999900   -1    0    0    0    0 -0.00000000000E+00 -0.00000000000E+00 -0.74505805969E-08  0.93827000000E+00  0.93827000000E+00 0.  1.
     999902    2    1    2    0    0  0.19201317990E-01 -0.46730624376E-02  0.16978770727E-01  0.10178760794E+01  0.10175425820E+01 0.  0.
     999903    2    3    3    0    0 -0.47404846539E-01 -0.10986233986E+00  0.41899814457E-01  0.12876291241E+00  0.22524208408E-01 0.  0.
         14    1    1    2    0    0 -0.19201317990E-01  0.46730624376E-02 -0.16978770727E-01  0.26053920635E-01  0.00000000000E+00 0. -1.
     999901    1    3    3    0    0  0.66606164529E-01  0.10518927742E+00 -0.24921043730E-01  0.88911316696E+00  0.88000000000E+00 0.  1.
        -11    1    4    4    0    0 -0.28094119314E-01 -0.51992036039E-01  0.31176688528E-01  0.66818398515E-01  0.51100000000E-03 0. -1.
         11    1    4    4    0    0 -0.19310727225E-01 -0.57870303823E-01  0.10723125929E-01  0.61944513891E-01  0.51100000000E-03 0.  1.
</event>
<event>
 8    1  0.9956970E+004  0.1043930E+01  0.7957747E-01            NaN
         13   -1    0    0    0    0  0.00000000000E+00  0.00000000000E+00  0.74505805969E-08  0.10566000000E+00  0.10566000000E+00 0.  1.
     999900   -1    0    0    0    0 -0.00000000000E+00 -0.00000000000E+00 -0.74505805969E-08  0.93827000000E+00  0.93827000000E+00 0.  1.
     999902    2    1    2    0    0 -0.21854749943E-01  0.79225938571E-02 -0.77548411710E-02  0.10194241813E+01  0.10191295925E+01 0.  0.
     999903    2    3    3    0    0 -0.42122985479E-02 -0.29419958832E-01 -0.12470132435E+00  0.13072726882E+00  0.25610956281E-01 0.  0.
         14    1    1    2    0    0  0.21854749943E-01 -0.79225938571E-02  0.77548411710E-02  0.24505818698E-01  0.00000000000E+00 0.  1.
     999901    1    3    3    0    0 -0.17642451395E-01  0.37342552689E-01  0.11694648318E+00  0.88869691248E+00  0.88000000000E+00 0. -1.
        -11    1    4    4    0    0  0.53599822168E-03 -0.31587507531E-01 -0.85027452122E-01  0.90708250239E-01  0.51100000000E-03 0.  1.
         11    1    4    4    0    0 -0.47482967695E-02  0.21675486990E-02 -0.39673872225E-01  0.40019018578E-01  0.51100000000E-03 0. -1.
</event>
<event>
 8    1  0.9956970E+004  0.1043930E+01  0.7957747E-01            NaN
         13   -1    0    0    0    0  0.00000000000E+00  0.00000000000E+00  0.74505805969E-08  0.10566000000E+00  0.10566000000E+00 0. -1.
     999900   -1    0    0    0    0 -0.00000000000E+00 -0.00000000000E+00 -0.74505805969E-08  0.93827000000E+00  0.93827000000E+00 0.  1.
     999902    2    1    2    0    0  0.21315148917E-01 -0.15373804356E-01  0.71391884272E-02  0.10166966116E+01  0.10163318073E+01 0.  0.
     999903    2    3    3    0    0  0.39071376543E-01  0.34280598202E-01  0.11569858763E+00  0.12845903836E+00  0.20342799183E-01 0.  0.
         14    1    1    2    0    0 -0.21315148917E-01  0.15373804356E-01 -0.71391884272E-02  0.27233388425E-01  0.00000000000E+00 0.  1.
     999901    1    3    3    0    0 -0.17756227626E-01 -0.49654402558E-01 -0.10855939920E+00  0.88823757321E+00  0.88000000000E+00 0.  1.
        -11    1    4    4    0    0  0.39732142693E-02  0.91913483224E-02  0.94249547951E-02  0.13760748871E-01  0.51100000000E-03 0. -1.
         11    1    4    4    0    0  0.35098162274E-01  0.25089249880E-01  0.10627363284E+00  0.11469828949E+00  0.51100000000E-03 0.  1.
</event>
<event>
 8    1  0.9956970E+004  0.1043930E+01  0.7957747E-01            NaN
         13   -1    0    0    0    0  0.00000000000E+00  0.00000000000E+00  0.74505805969E-08  0.10566000000E+00  0.10566000000E+00 0.  1.
     999900   -1    0    0    0    0 -0.00000000000E+00 -0.00000000000E+00 -0.74505805969E-08  0.93827000000E+00  0.93827000000E+00 0.  1.
     999902    2    1    2    0    0  0.40298345232E-03  0.17989825316E-01 -0.16208500407E-01  0.10197119964E+01  0.10194243689E+01 0.  0.
     999903    2    3    3    0    0  0.10132320959E+00 -0.67844143843E-01 -0.39200433926E-01  0.12949798212E+00  0.19074399007E-01 0.  0.
         14    1    1    2    0    0 -0.40298345232E-03 -0.17989825316E-01  0.16208500407E-01  0.24218003551E-01  0.00000000000E+00 0.  1.
     999901    1    3    3    0    0 -0.10092022614E+00  0.85833969159E-01  0.22991933519E-01  0.89021401433E+00  0.88000000000E+00 0. -1.
        -11    1    4    4    0    0  0.45656681548E-01 -0.40776941248E-01 -0.24038273323E-01  0.65767706459E-01  0.51100000000E-03 0.  1.
         11    1    4    4    0    0  0.55666528040E-01 -0.27067202595E-01 -0.15162160603E-01  0.63730275658E-01  0.51100000000E-03 0. -1.
</event>
<event>
 8    1  0.9956970E+004  0.1043930E+01  0.7957747E-01            NaN
         13   -1    0    0    0    0  0.00000000000E+00  0.00000000000E+00  0.74505805969E-08  0.10566000000E+00  0.10566000000E+00 0.  1.
     999900   -1    0    0    0    0 -0.00000000000E+00 -0.00000000000E+00 -0.74505805969E-08  0.93827000000E+00  0.93827000000E+00 0. -1.
     999902    2    1    2    0    0 -0.12856864231E-01  0.10145218183E-01  0.17488267656E-01  0.10199703690E+01  0.10196889182E+01 0.  0.
     999903    2    3    3    0    0  0.78541086819E-01 -0.77481560200E-01  0.65065002732E-01  0.12963583447E+00  0.19997512531E-01 0.  0.
         14    1    1    2    0    0  0.12856864231E-01 -0.10145218183E-01 -0.17488267656E-01  0.23959630954E-01  0.00000000000E+00 0. -1.
     999901    1    3    3    0    0 -0.91397951050E-01  0.87626778383E-01 -0.47576735076E-01  0.89033453458E+00  0.88000000000E+00 0. -1.
        -11    1    4    4    0    0  0.58173787181E-01 -0.48108152913E-01  0.36365286493E-01  0.83793072950E-01  0.51100000000E-03 0.  1.
         11    1    4    4    0    0  0.20367299638E-01 -0.29373407287E-01  0.28699716240E-01  0.45842761516E-01  0.51100000000E-03 0. -1.
</event>
<event>
 8    1  0.9956970E+004  0.1043930E+01  0.7957747E-01            NaN
         13   -1    0    0    0    0  0.00000000000E+00  0.00000000000E+00  0.74505805969E-08  0.10566000000E+00  0.10566000000E+00 0. -1.
     999900   -1    0    0    0    0 -0.00000000000E+00 -0.00000000000E+00 -0.74505805969E-08  0.93827000000E+00  0.93827000000E+00 0. -1.
     999902    2    1    2    0    0  0.42448760669E-02  0.27826636545E-02  0.23099042131E-01  0.10202798850E+01  0.10200057431E+01 0.  0.
     999903    2    3    3    0    0  0.95189908921E-02  0.79776420632E-01 -0.98378894116E-01  0.12858893865E+00  0.20045444826E-01 0.  0.
         14    1    1    2    0    0 -0.42448760669E-02 -0.27826636545E-02 -0.23099042131E-01  0.23650114952E-01  0.00000000000E+00 0.  1.
     999901    1    3    3    0    0 -0.52741148252E-02 -0.76993756977E-01  0.12147793625E+00  0.89169094640E+00  0.88000000000E+00 0.  1.
        -11    1    4    4    0    0 -0.57410831015E-02  0.17773148840E-01 -0.26751785855E-01  0.32630722063E-01  0.51100000000E-03 0.  1.
         11    1    4    4    0    0  0.15260073994E-01  0.62003271791E-01 -0.71627108261E-01  0.95958216584E-01  0.51100000000E-03 0. -1.
</event>
<event>
 8    1  0.9956970E+004  0.1043930E+01  0.7957747E-01            NaN
         13   -1    0    0    0    0  0.00000000000E+00  0.00000000000E+00  0.74505805969E-08  0.10566000000E+00  0.10566000000E+00 0. -1.
     999900   -1    0    0    0    0 -0.00000000000E+00 -0.00000000000E+00 -0.74505805969E-08  0.93827000000E+00  0.93827000000E+00 0.  1.
     999902    2    1    2    0    0 -0.14856898599E-01  0.88834228764E-02  0.16949855635E-01  0.10197031503E+01  0.10194153102E+01 0.  0.
     999903    2    3    3    0    0 -0.42155232752E-01  0.10024574068E+00  0.73553066980E-01  0.13274419093E+00  0.19613627683E-01 0.  0.
         14    1    1    2    0    0  0.14856898599E-01 -0.88834228764E-02 -0.16949855635E-01  0.24226849651E-01  0.00000000000E+00 0.  1.
     999901    1    3    3    0    0  0.27298334153E-01 -0.91362317800E-01 -0.56603211345E-01  0.88695895942E+00  0.88000000000E+00 0. -1.
        -11    1    4    4    0    0 -0.94655638138E-02  0.41368548297E-01  0.35896972525E-01  0.55586036412E-01  0.51100000000E-03 0.  1.
         11    1    4    4    0    0 -0.32689668938E-01  0.58877192380E-01  0.37656094455E-01  0.77158154516E-01  0.51100000000E-03 0. -1.
</event>
<event>
 8    1  0.9956970E+004  0.1043930E+01  0.7957747E-01            NaN
         13   -1    0    0    0    0  0.00000000000E+00  0.00000000000E+00  0.74505805969E-08  0.10566000000E+00  0.10566000000E+00 0.  1.
     999900   -1    0    0    0    0 -0.00000000000E+00 -0.00000000000E+00 -0.74505805969E-08  0.93827000000E+00  0.93827000000E+00 0. -1.
     999902    2    1    2    0    0  0.17175738328E-01 -0.56491090984E-02 -0.15449456829E-01  0.10201475666E+01  0.10198703121E+01 0.  0.
     999903    2    3    3    0    0 -0.25031105749E-01  0.13100675841E-01 -0.12726173300E+00  0.13187116977E+00  0.19906601087E-01 0.  0.
         14    1    1    2    0    0 -0.17175738328E-01  0.56491090984E-02  0.15449456829E-01  0.23782433371E-01  0.00000000000E+00 0.  1.
     999901    1    3    3    0    0  0.42206844078E-01 -0.18749784939E-01  0.11181227617E+00  0.88827639686E+00  0.88000000000E+00 0.  1.
        -11    1    4    4    0    0 -0.19036426798E-01  0.17454037698E-01 -0.81062981057E-01  0.85079357050E-01  0.51100000000E-03 0.  1.
         11    1    4    4    0    0 -0.59946789511E-02 -0.43533618568E-02 -0.46198751943E-01  0.46791812716E-01  0.51100000000E-03 0. -1.
</event>
<event>
 8    1  0.9956970E+004  0.1043930E+01  0.7957747E-01            NaN
         13   -1    0    0    0    0  0.00000000000E+00  0.00000000000E+00  0.74505805969E-08  0.10566000000E+00  0.10566000000E+00 0. -1.
     999900   -1    0    0    0    0 -0.00000000000E+00 -0.00000000000E+00 -0.74505805969E-08  0.93827000000E+00  0.93827000000E+00 0. -1.
     999902    2    1    2    0    0  0.89050378470E-03  0.47863871652E-02 -0.21162877044E-01  0.10222143406E+01  0.10219836536E+01 0.  0.
     999903    2    3    3    0    0  0.87910986794E-01 -0.26066520858E-01 -0.95886840001E-01  0.13423453392E+00  0.20416143212E-01 0.  0.
         14    1    1    2    0    0 -0.89050378470E-03 -0.47863871652E-02  0.21162877044E-01  0.21715659415E-01  0.00000000000E+00 0. -1.
     999901    1    3    3    0    0 -0.87020483010E-01  0.30852908023E-01  0.74723962958E-01  0.88797980666E+00  0.88000000000E+00 0.  1.
        -11    1    4    4    0    0  0.35676081857E-01 -0.51033575750E-02 -0.25707191677E-01  0.44271298830E-01  0.51100000000E-03 0. -1.
         11    1    4    4    0    0  0.52234904937E-01 -0.20963163283E-01 -0.70179648324E-01  0.89963235094E-01  0.51100000000E-03 0.  1.
</event>
<event>
 8    1  0.9956970E+004  0.1043930E+01  0.7957747E-01            NaN
         13   -1    0    0    0    0  0.00000000000E+00  0.00000000000E+00  0.74505805969E-08  0.10566000000E+00  0.10566000000E+00 0. -1.
     999900   -1    0    0    0    0 -0.00000000000E+00 -0.00000000000E+00 -0.74505805969E-08  0.93827000000E+00  0.93827000000E+00 0. -1.
     999902    2    1    2    0    0 -0.82187613897E-02 -0.50306827288E-02 -0.21818268787E-01  0.10200785292E+01  0.10197996436E+01 0.  0.
     999903    2    3    3    0    0  0.56223574873E-01 -0.21190415471E-01  0.11081809001E+00  0.12766250773E+00  0.20172821455E-01 0.  0.
         14    1    1    2    0    0  0.82187613897E-02  0.50306827288E-02  0.21818268787E-01  0.23851470822E-01  0.00000000000E+00 0. -1.
     999901    1    3    3    0    0 -0.64442336263E-01  0.16159732742E-01 -0.13263635880E+00  0.89241602145E+00  0.88000000000E+00 0.  1.
        -11    1    4    4    0    0  0.19836302021E-01  0.20639663251E-02  0.40379759477E-01  0.45039148874E-01  0.51100000000E-03 0. -1.
         11    1    4    4    0    0  0.36387272853E-01 -0.23254381796E-01  0.70438330537E-01  0.82623358854E-01  0.51100000000E-03 0.  1.
</event>
<event>
 8    1  0.9956970E+004  0.1043930E+01  0.7957747E-01            NaN
         13   -1    0    0    0    0  0.00000000000E+00  0.00000000000E+00  0.74505805969E-08  0.10566000000E+00  0.10566000000E+00 0.  1.
     999900   -1    0    0    0    0 -0.00000000000E+00 -0.00000000000E+00 -0.74505805969E-08  0.93827000000E+00  0.93827000000E+00 0.  1.
     999902    2    1    2    0    0 -0.36887165036E-02  0.19891915674E-01  0.11619214024E-01  0.10205997391E+01  0.10203330468E+01 0.  0.
     999903    2    3    3    0    0  0.33258731636E-01  0.10541575243E+00  0.72267981321E-01  0.13360610128E+00  0.20231289737E-01 0.  0.
         14    1    1    2    0    0  0.36887165036E-02 -0.19891915674E-01 -0.11619214024E-01  0.23330260889E-01  0.00000000000E+00 0. -1.
     999901    1    3    3    0    0 -0.36947448140E-01 -0.85523836757E-01 -0.60648767297E-01  0.88699363783E+00  0.88000000000E+00 0.  1.
        -11    1    4    4    0    0  0.25549841608E-01  0.95111131276E-01  0.57622442326E-01  0.11410314930E+00  0.51100000000E-03 0. -1.
         11    1    4    4    0    0  0.77088900281E-02  0.10304621154E-01  0.14645538995E-01  0.19502951983E-01  0.51100000000E-03 0.  1.
</event>
<event>
 8    1  0.9956970E+004  0.1043930E+01  0.7957747E-01            NaN
         13   -1    0    0    0    0  0.00000000000E+00  0.00000000000E+00  0.74505805969E-08  0.10566000000E+00  0.10566000000E+00 0. -1.
     999900   -1    0    0    0    0 -0.00000000000E+00 -0.00000000000E+00 -0.74505805969E-08  0.93827000000E+00  0.93827000000E+00 0. -1.
     999902    2    1    2    0    0 -0.89594557053E-02 -0.46275963760E-02  0.21162152195E-01  0.10204880892E+01  0.10202188084E+01 0.  0.
     999903    2    3    3    0    0  0.12333556844E+00 -0.26705134078E-01  0.25201916933E-01  0.13031635817E+00  0.20552127924E-01 0.  0.
         14    1    1    2    0    0  0.89594557053E-02  0.46275963760E-02 -0.21162152195E-01  0.23441910764E-01  0.00000000000E+00 0.  1.
     999901    1    3    3    0    0 -0.13229502414E+00  0.22077537702E-01 -0.40397647373E-02  0.89017173106E+00  0.88000000000E+00 0. -1.
        -11    1    4    4    0    0  0.49222774720E-01 -0.13316249826E-01  0.31143473823E-03  0.50995707399E-01  0.51100000000E-03 0. -1.
         11    1    4    4    0    0  0.74112793718E-01 -0.13388884252E-01  0.24890482194E-01  0.79320650773E-01  0.51100000000E-03 0.  1.
</event>
<event>
 8    1  0.9956970E+004  0.1043930E+01  0.7957747E-01            NaN
         13   -1    0    0    0    0  0.00000000000E+00  0.00000000000E+00  0.74505805969E-08  0.10566000000E+00  0.10566000000E+00 0.  1.
     999900   -1    0    0    0    0 -0.00000000000E+00 -0.00000000000E+00 -0.74505805969E-08  0.93827000000E+00  0.93827000000E+00 0. -1.
     999902    2    1    2    0    0 -0.18056337127E-01  0.19265888977E-01  0.11621288585E-01  0.10150810808E+01  0.10146710504E+01 0.  0.
     999903    2    3    3    0    0  0.11938477448E+00 -0.11602997610E-01  0.23802421427E-01  0.12379474788E+00  0.19267340366E-01 0.  0.
         14    1    1    2    0    0  0.18056337127E-01 -0.19265888977E-01 -0.11621288585E-01  0.28848919164E-01  0.00000000000E+00 0. -1.
     999901    1    3    3    0    0 -0.13744111161E+00  0.30868886587E-01 -0.12181132842E-01  0.89128633296E+00  0.88000000000E+00 0. -1.
        -11    1    4    4    0    0  0.50606167291E-01 -0.12819593150E-01  0.15765127399E-01  0.54535552618E-01  0.51100000000E-03 0. -1.
         11    1    4    4    0    0  0.68778607191E-01  0.12165955397E-02  0.80372940285E-02  0.69259195261E-01  0.51100000000E-03 0.  1.
</event>
<event>
 8    1  0.9956970E+004  0.1043930E+01  0.7957747E-01            NaN
         13   -1    0    0    0    0  0.00000000000E+00  0.00000000000E+00  0.74505805969E-08  0.10566000000E+00  0.10566000000E+00 0.  1.
     999900   -1    0    0    0    0 -0.00000000000E+00 -0.00000000000E+00 -0.74505805969E-08  0.93827000000E+00  0.93827000000E+00 0.  1.
     999902    2    1    2    0    0 -0.21477989964E-01  0.35133462321E-02  0.89800802345E-02  0.10203866465E+01  0.10201150027E+01 0.  0.
     999903    2    3    3    0    0  0.83564697647E-01  0.70176380407E-01  0.67100604317E-01  0.12973748902E+00  0.20531485495E-01 0.  0.
         14    1    1    2    0    0  0.21477989964E-01 -0.35133462321E-02 -0.89800802345E-02  0.23543353534E-01  0.00000000000E+00 0.  1.
     999901    1    3    3    0    0 -0.10504268761E+00 -0.66663034175E-01 -0.58120524083E-01  0.89064915745E+00  0.88000000000E+00 0.  1.
        -11    1    4    4    0    0  0.64409274163E-01  0.62178226432E-01  0.48289735878E-01  0.10171944825E+00  0.51100000000E-03 0. -1.
         11    1    4    4    0    0  0.19155423484E-01  0.79981539755E-02  0.18810868440E-01  0.28018040765E-01  0.51100000000E-03 0.  1.
</event>
<event>
 8    1  0.9956970E+004  0.1043930E+01  0.7957747E-01            NaN
         13   -1    0    0    0    0  0.00000000000E+00  0.00000000000E+00  0.74505805969E-08  0.10566000000E+00  0.10566000000E+00 0.  1.
     999900   -1    0    0    0    0 -0.00000000000E+00 -0.00000000000E+00 -0.74505805969E-08  0.93827000000E+00  0.93827000000E+00 0.  1.
     999902    2    1    2    0    0 -0.89654819601E-03  0.61413493624E-02  0.21019431476E-01  0.10220134202E+01  0.10217783980E+01 0.  0.
     999903    2    3    3    0    0 -0.12856576188E+00  0.32557325940E-02  0.26038832771E-01  0.13278175786E+00  0.20327800843E-01 0.  0.
         14    1    1    2    0    0  0.89654819601E-03 -0.61413493624E-02 -0.21019431476E-01  0.21916579803E-01  0.00000000000E+00 0.  1.
     999901    1    3    3    0    0  0.12766921368E+00  0.28856167685E-02 -0.50194012951E-02  0.88923166233E+00  0.88000000000E+00 0.  1.
        -11    1    4    4    0    0 -0.78358334647E-01 -0.75671120200E-02  0.13015541248E-01  0.79793202893E-01  0.51100000000E-03 0. -1.
         11    1    4    4    0    0 -0.50207427232E-01  0.10822844614E-01  0.13023291524E-01  0.52988554971E-01  0.51100000000E-03 0.  1.
</event>
<event>
 8    1  0.9956970E+004  0.1043930E+01  0.7957747E-01            NaN
         13   -1    0    0    0    0  0.00000000000E+00  0.00000000000E+00  0.74505805969E-08  0.10566000000E+00  0.10566000000E+00 0. -1.
     999900   -1    0    0    0    0 -0.00000000000E+00 -0.00000000000E+00 -0.74505805969E-08  0.93827000000E+00  0.93827000000E+00 0.  1.
     999902    2    1    2    0    0 -0.67018340066E-03 -0.20643564553E-01  0.12785401320E-01  0.10196385943E+01  0.10193491996E+01 0.  0.
     999903    2    3    3    0    0 -0.74143094946E-01  0.42473995088E-01  0.96574756981E-01  0.13036768442E+00  0.19178390645E-01 0.  0.
         14    1    1    2    0    0  0.67018340066E-03  0.20643564553E-01 -0.12785401320E-01  0.24291405685E-01  0.00000000000E+00 0.  1.
     999901    1    3    3    0    0  0.73472911545E-01 -0.63117559642E-01 -0.83789355661E-01  0.88927090990E+00  0.88000000000E+00 0.  1.
        -11    1    4    4    0    0 -0.14844323940E-01  0.41775886965E-03  0.17268700307E-01  0.22781518979E-01  0.51100000000E-03 0. -1.
         11    1    4    4    0    0 -0.59298771006E-01  0.42056236219E-01  0.79306056674E-01  0.10758616544E+00  0.51100000000E-03 0.  1.
</event>
<event>
 8    1  0.9956970E+004  0.1043930E+01  0.7957747E-01            NaN
         13   -1    0    0    0    0  0.00000000000E+00  0.00000000000E+00  0.74505805969E-08  0.10566000000E+00  0.10566000000E+00 0. -1.
     999900   -1    0    0    0    0 -0.00000000000E+00 -0.00000000000E+00 -0.74505805969E-08  0.93827000000E+00  0.93827000000E+00 0.  1.
     999902    2    1    2    0    0  0.92113561204E-02 -0.56567022929E-02  0.21592074433E-01  0.10197832602E+01  0.10194973432E+01 0.  0.
     999903    2    3    3    0    0 -0.11284523652E+00  0.14760389580E-01 -0.55084437976E-01  0.12782252288E+00  0.18771934978E-01 0.  0.
         14    1    1    2    0    0 -0.92113561204E-02  0.56567022929E-02 -0.21592074433E-01  0.24146739754E-01  0.00000000000E+00 0.  1.
     999901    1    3    3    0    0  0.12205659264E+00 -0.20417091873E-01  0.76676512410E-01  0.89196073737E+00  0.88000000000E+00 0. -1.
        -11    1    4    4    0    0 -0.10865096940E+00  0.14117949161E-01 -0.48154535843E-01  0.11968070054E+00  0.51100000000E-03 0.  1.
         11    1    4    4    0    0 -0.41942671216E-02  0.64244041905E-03 -0.69299021335E-02  0.81418223365E-02  0.51100000000E-03 0. -1.
</event>
<event>
 8    1  0.9956970E+004  0.1043930E+01  0.7957747E-01            NaN
         13   -1    0    0    0    0  0.00000000000E+00  0.00000000000E+00  0.74505805969E-08  0.10566000000E+00  0.10566000000E+00 0. -1.
     999900   -1    0    0    0    0 -0.00000000000E+00 -0.00000000000E+00 -0.74505805969E-08  0.93827000000E+00  0.93827000000E+00 0.  1.
     999902    2    1    2    0    0  0.20025595227E-01  0.82146631128E-03 -0.16276175913E-01  0.10181111469E+01  0.10177837169E+01 0.  0.
     999903    2    3    3    0    0  0.76772685672E-01  0.60134395046E-01 -0.86022533150E-01  0.13154315172E+00  0.19837686937E-01 0.  0.
         14    1    1    2    0    0 -0.20025595227E-01 -0.82146631128E-03  0.16276175913E-01  0.25818853062E-01  0.00000000000E+00 0. -1.
     999901    1    3    3    0    0 -0.56747090446E-01 -0.59312928735E-01  0.69746357237E-01  0.88656799521E+00  0.88000000000E+00 0.  1.
        -11    1    4    4    0    0  0.10231206595E-01  0.84094305344E-02 -0.22071483500E-01  0.25745050305E-01  0.51100000000E-03 0.  1.
         11    1    4    4    0    0  0.66541479077E-01  0.51724964512E-01 -0.63951049650E-01  0.10579810142E+00  0.51100000000E-03 0. -1.
</event>
<event>
 8    1  0.9956970E+004  0.1043930E+01  0.7957747E-01            NaN
         13   -1    0    0    0    0  0.00000000000E+00  0.00000000000E+00  0.74505805969E-08  0.10566000000E+00  0.10566000000E+00 0.  1.
     999900   -1    0    0    0    0 -0.00000000000E+00 -0.00000000000E+00 -0.74505805969E-08  0.93827000000E+00  0.93827000000E+00 0. -1.
     999902    2    1    2    0    0 -0.27305093121E-01 -0.47135275655E-02 -0.39857928792E-02  0.10159358578E+01  0.10155500949E+01 0.  0.
     999903    2    3    3    0    0  0.10658712694E+00 -0.56924467548E-01  0.18055585762E-01  0.12400596638E+00  0.21219445944E-01 0.  0.
         14    1    1    2    0    0  0.27305093121E-01  0.47135275655E-02  0.39857928792E-02  0.27994142196E-01  0.00000000000E+00 0. -1.
     999901    1    3    3    0    0 -0.13389222006E+00  0.52210939982E-01 -0.22041378642E-01  0.89192989143E+00  0.88000000000E+00 0. -1.
        -11    1    4    4    0    0  0.53446504788E-01 -0.35963251075E-01  0.11590695475E-02  0.64432048432E-01  0.51100000000E-03 0. -1.
         11    1    4    4    0    0  0.53140622148E-01 -0.20961216473E-01  0.16896516215E-01  0.59573917946E-01  0.51100000000E-03 0.  1.
</event>
<event>
 8    1  0.9956970E+004  0.1043930E+01  0.7957747E-01            NaN
         13   -1    0    0    0    0  0.00000000000E+00  0.00000000000E+00  0.74505805969E-08  0.10566000000E+00  0.10566000000E+00 0.  1.
     999900   -1    0    0    0    0 -0.00000000000E+00 -0.00000000000E+00 -0.74505805969E-08  0.93827000000E+00  0.93827000000E+00 0. -1.
     999902    2    1    2    0    0  0.17321537350E-01  0.61941468269E-02 -0.13463813594E-01  0.10211335663E+01  0.10208790736E+01 0.  0.
     999903    2    3    3    0    0  0.12854632731E-01 -0.56613321728E-01 -0.11778145951E+00  0.13273787601E+00  0.19405198871E-01 0.  0.
         14    1    1    2    0    0 -0.17321537350E-01 -0.61941468269E-02  0.13463813594E-01  0.22796433659E-01  0.00000000000E+00 0.  1.
     999901    1    3    3    0    0  0.44669046194E-02  0.62807468555E-01  0.10431764592E+00  0.88839569033E+00  0.88000000000E+00 0.  1.
        -11    1    4    4    0    0  0.38310063985E-03 -0.63365955446E-02 -0.31191950829E-01  0.31835485338E-01  0.51100000000E-03 0. -1.
         11    1    4    4    0    0  0.12471532091E-01 -0.50276726184E-01 -0.86589508686E-01  0.10090239067E+00  0.51100000000E-03 0.  1.
</event>
<event>
 8    1  0.9956970E+004  0.1043930E+01  0.7957747E-01            NaN
         13   -1    0    0    0    0  0.00000000000E+00  0.00000000000E+00  0.74505805969E-08  0.10566000000E+00  0.10566000000E+00 0. -1.
     999900   -1    0    0    0    0 -0.00000000000E+00 -0.00000000000E+00 -0.74505805969E-08  0.93827000000E+00  0.93827000000E+00 0. -1.
     999902    2    1    2    0    0  0.25066292349E-01 -0.37636788822E-02  0.87058970706E-03  0.10185677797E+01  0.10182519726E+01 0.  0.
     999903    2    3    3    0    0 -0.82384829232E-01  0.34015490818E-01 -0.88120679917E-01  0.12677606903E+00  0.19042157090E-01 0.  0.
         14    1    1    2    0    0 -0.25066292349E-01  0.37636788822E-02 -0.87058970706E-03  0.25362220275E-01  0.00000000000E+00 0.  1.
     999901    1    3    3    0    0  0.10745112158E+00 -0.37779169700E-01  0.88991269625E-01  0.89179171069E+00  0.88000000000E+00 0.  1.
        -11    1    4    4    0    0 -0.42575037249E-01  0.84752267243E-02 -0.48319111225E-01  0.64957377528E-01  0.51100000000E-03 0.  1.
         11    1    4    4    0    0 -0.39809791983E-01  0.25540264094E-01 -0.39801568693E-01  0.61818691503E-01  0.51100000000E-03 0. -1.
</event>
<event>
 8    1  0.9956970E+004  0.1043930E+01  0.7957747E-01            NaN
         13   -1    0    0    0    0  0.00000000000E+00  0.00000000000E+00  0.74505805969E-08  0.10566000000E+00  0.10566000000E+00 0.  1.
     999900   -1    0    0    0    0 -0.00000000000E+00 -0.00000000000E+00 -0.74505805969E-08  0.93827000000E+00  0.93827000000E+00 0. -1.
     999902    2    1    2    0    0  0.75658524703E-02  0.22161341226E-01  0.86917058992E-02  0.10189517511E+01  0.10186455508E+01 0.  0.
     999903    2    3    3    0    0  0.21584929908E-01 -0.90596234899E-01 -0.83934539219E-01  0.12682483924E+00  0.19129715063E-01 0.  0.
         14    1    1    2    0    0 -0.75658524703E-02 -0.22161341226E-01 -0.86917058992E-02  0.24978248937E-01  0.00000000000E+00 0.  1.
     999901    1    3    3    0    0 -0.14019077438E-01  0.11275757613E+00  0.92626245118E-01  0.89212691182E+00  0.88000000000E+00 0.  1.
        -11    1    4    4    0    0  0.14703814130E-01 -0.80097013324E-01 -0.78581933177E-01  0.11316852494E+00  0.51100000000E-03 0.  1.
         11    1    4    4    0    0  0.68811157784E-02 -0.10499221575E-01 -0.53526060416E-02  0.13656314308E-01  0.51100000000E-03 0. -1.
</event>
<event>
 7    1  0.9956970E+004  0.1043930E+01  0.7957747E-01            NaN
         13   -1    0    0    0    0  0.00000000000E+00  0.00000000000E+00  0.74505805969E-08  0.10566000000E+00  0.10566000000E+00 0. -1.
     999900   -1    0    0    0    0 -0.00000000000E+00 -0.00000000000E+00 -0.74505805969E-08  0.93827000000E+00  0.93827000000E+00 0. -1.
     999903    2    1    2    0    0  0.77216933469E-01 -0.45997705750E-01  0.68378892799E-01  0.11463013492E+00  0.19650727767E-01 0.  0.
         14    1    1    2    0    0  0.72527222881E-02 -0.30625802214E-01 -0.26179488312E-01  0.40937847405E-01  0.00000000000E+00 0.  1.
     999901    1    1    2    0    0 -0.84469655757E-01  0.76623507965E-01 -0.42199404486E-01  0.88836201768E+00  0.88000000000E+00 0. -1.
        -11    1    3    3    0    0  0.50358271756E-01 -0.40258542085E-01  0.46071664428E-01  0.79243707190E-01  0.51100000000E-03 0.  1.
         11    1    3    3    0    0  0.26858661713E-01 -0.57391636650E-02  0.22307228371E-01  0.35386427726E-01  0.51100000000E-03 0. -1.
</event>
<event>
 8    1  0.9956970E+004  0.1043930E+01  0.7957747E-01            NaN
         13   -1    0    0    0    0  0.00000000000E+00  0.00000000000E+00  0.74505805969E-08  0.10566000000E+00  0.10566000000E+00 0.  1.
     999900   -1    0    0    0    0 -0.00000000000E+00 -0.00000000000E+00 -0.74505805969E-08  0.93827000000E+00  0.93827000000E+00 0. -1.
     999902    2    1    2    0    0  0.28946965199E-02  0.20934975657E-01 -0.20310700173E-02  0.10226984735E+01  0.10224780633E+01 0.  0.
     999903    2    3    3    0    0  0.66136432558E-01 -0.80137346986E-01  0.77425012187E-01  0.13111090032E+00  0.19985334052E-01 0.  0.
         14    1    1    2    0    0 -0.28946965199E-02 -0.20934975657E-01  0.20310700173E-02  0.21231526538E-01  0.00000000000E+00 0.  1.
     999901    1    3    3    0    0 -0.63241736038E-01  0.10107232264E+00 -0.79456082205E-01  0.89158757314E+00  0.88000000000E+00 0. -1.
        -11    1    4    4    0    0  0.15850147737E-01 -0.34050726109E-01  0.25923742637E-01  0.45639683228E-01  0.51100000000E-03 0. -1.
         11    1    4    4    0    0  0.50286284821E-01 -0.46086620877E-01  0.51501269550E-01  0.85471217092E-01  0.51100000000E-03 0.  1.
</event>
<event>
 8    1  0.9956970E+004  0.1043930E+01  0.7957747E-01            NaN
         13   -1    0    0    0    0  0.00000000000E+00  0.00000000000E+00  0.74505805969E-08  0.10566000000E+00  0.10566000000E+00 0.  1.
     999900   -1    0    0    0    0 -0.00000000000E+00 -0.00000000000E+00 -0.74505805969E-08  0.93827000000E+00  0.93827000000E+00 0.  1.
     999902    2    1    2    0    0  0.36881066967E-02 -0.74962854679E-02  0.22358042022E-01  0.10200620619E+01  0.10197827865E+01 0.  0.
     999903    2    3    3    0    0  0.47164753485E-01  0.57542287680E-01 -0.10211295973E+00  0.12786630697E+00  0.19675036719E-01 0.  0.
         14    1    1    2    0    0 -0.36881066967E-02  0.74962854679E-02 -0.22358042022E-01  0.23867938115E-01  0.00000000000E+00 0. -1.
     999901    1    3    3    0    0 -0.43476646788E-01 -0.65038573148E-01  0.12447100175E+00  0.89219575492E+00  0.88000000000E+00 0. -1.
        -11    1    4    4    0    0  0.41868406467E-01  0.39222656902E-01 -0.69922403735E-01  0.90447686204E-01  0.51100000000E-03 0. -1.
         11    1    4    4    0    0  0.52963470180E-02  0.18319630778E-01 -0.32190555996E-01  0.37418620764E-01  0.51100000000E-03 0.  1.
</event>
<event>
 8    1  0.9956970E+004  0.1043930E+01  0.7957747E-01            NaN
         13   -1    0    0    0    0  0.00000000000E+00  0.00000000000E+00  0.74505805969E-08  0.10566000000E+00  0.10566000000E+00 0. -1.
     999900   -1    0    0    0    0 -0.00000000000E+00 -0.00000000000E+00 -0.74505805969E-08  0.93827000000E+00  0.93827000000E+00 0. -1.
     999902    2    1    2    0    0  0.21298832656E-01  0.10392457500E-01 -0.59124093840E-03  0.10202236082E+01  0.10199481446E+01 0.  0.
     999903    2    3    3    0    0  0.72593711850E-01 -0.10236027483E+00  0.31489431958E-01  0.13096913797E+00  0.20343498049E-01 0.  0.
         14    1    1    2    0    0 -0.21298832656E-01 -0.10392457500E-01  0.59124093840E-03  0.23706391781E-01  0.00000000000E+00 0. -1.
     999901    1    3    3    0    0 -0.51294879194E-01  0.11275273233E+00 -0.32080672897E-01  0.88925447025E+00  0.88000000000E+00 0. -1.
        -11    1    4    4    0    0  0.47098448833E-01 -0.54054166758E-01  0.10545266132E-01  0.72467789984E-01  0.51100000000E-03 0. -1.
         11    1    4    4    0    0  0.25495263018E-01 -0.48306108072E-01  0.20944165826E-01  0.58501347989E-01  0.51100000000E-03 0.  1.
</event>
<event>
 8    1  0.9956970E+004  0.1043930E+01  0.7957747E-01            NaN
         13   -1    0    0    0    0  0.00000000000E+00  0.00000000000E+00  0.74505805969E-08  0.10566000000E+00  0.10566000000E+00 0.  1.
     999900   -1    0    0    0    0 -0.00000000000E+00 -0.00000000000E+00 -0.74505805969E-08  0.93827000000E+00  0.93827000000E+00 0. -1.
     999902    2    1    2    0    0 -0.14824024777E-01 -0.88012418976E-02 -0.16314095732E-01  0.10201947248E+01  0.10199185817E+01 0.  0.
     999903    2    3    3    0    0  0.58269711280E-01 -0.85444697363E-01  0.75417110938E-01  0.12911025753E+00  0.16898592193E-01 0.  0.
         14    1    1    2    0    0  0.14824024777E-01  0.88012418976E-02  0.16314095732E-01  0.23735275205E-01  0.00000000000E+00 0.  1.
     999901    1    3    3    0    0 -0.73093736057E-01  0.76643455466E-01 -0.91731206670E-01  0.89108446726E+00  0.88000000000E+00 0.  1.
        -11    1    4    4    0    0  0.43138507918E-01 -0.52102035978E-01  0.55009813739E-01  0.87188839578E-01  0.51100000000E-03 0.  1.
         11    1    4    4    0    0  0.15131203362E-01 -0.33342661385E-01  0.20407297199E-01  0.41921417956E-01  0.51100000000E-03 0. -1.
</event>
<event>
 8    1  0.9956970E+004  0.1043930E+01  0.7957747E-01            NaN
         13   -1    0    0    0    0  0.00000000000E+00  0.00000000000E+00  0.74505805969E-08  0.10566000000E+00  0.10566000000E+00 0. -1.
     999900   -1    0    0    0    0 -0.00000000000E+00 -0.00000000000E+00 -0.74505805969E-08  0.93827000000E+00  0.93827000000E+00 0.  1.
     999902    2    1    2    0    0 -0.99191111129E-02  0.10677804726E-01 -0.18639068499E-01  0.10202695023E+01  0.10199951167E+01 0.  0.
     999903    2    3    3    0    0 -0.33690790240E-01 -0.28648256903E-01 -0.12368631728E+00  0.13283130366E+00  0.19749890581E-01 0.  0.
         14    1    1    2    0    0  0.99191111129E-02 -0.10677804726E-01  0.18639068499E-01  0.23660497745E-01  0.00000000000E+00 0. -1.
     999901    1    3    3    0    0  0.23771679127E-01  0.39326061629E-01  0.10504724878E+00  0.88743819860E+00  0.88000000000E+00 0. -1.
        -11    1    4    4    0    0 -0.10365915817E-01 -0.11765834096E-01 -0.21188656694E-01  0.26364888701E-01  0.51100000000E-03 0.  1.
         11    1    4    4    0    0 -0.23324874423E-01 -0.16882422807E-01 -0.10249766059E+00  0.10646641496E+00  0.51100000000E-03 0. -1.
</event>
<event>
 8    1  0.9956970E+004  0.1043930E+01  0.7957747E-01            NaN
         13   -1    0    0    0    0  0.00000000000E+00  0.00000000000E+00  0.74505805969E-08  0.10566000000E+00  0.10566000000E+00 0.  1.
     999900   -1    0    0    0    0 -0.00000000000E+00 -0.00000000000E+00 -0.74505805969E-08  0.93827000000E+00  0.93827000000E+00 0. -1.
     999902    2    1    2    0    0 -0.48720314098E-02 -0.23124169729E-01 -0.30649658284E-02  0.10201002301E+01  0.10198218578E+01 0.  0.
     999903    2    3    3    0    0  0.28396321553E-01  0.10827781129E+00  0.54850203822E-01  0.12784049733E+00  0.28358638957E-01 0.  0.
         14    1    1    2    0    0  0.48720314098E-02  0.23124169729E-01  0.30649658284E-02  0.23829769853E-01  0.00000000000E+00 0.  1.
     999901    1    3    3    0    0 -0.33268352963E-01 -0.13140198102E+00 -0.57915169650E-01  0.89225973281E+00  0.88000000000E+00 0. -1.
        -11    1    4    4    0    0  0.21347746983E-01  0.30837550265E-01  0.21445747102E-01  0.43207198444E-01  0.51100000000E-03 0.  1.
         11    1    4    4    0    0  0.70485745702E-02  0.77440261026E-01  0.33404456720E-01  0.84633298890E-01  0.51100000000E-03 0. -1.
</event>
<event>
 8    1  0.9956970E+004  0.1043930E+01  0.7957747E-01            NaN
         13   -1    0    0    0    0  0.00000000000E+00  0.00000000000E+00  0.74505805969E-08  0.10566000000E+00  0.10566000000E+00 0. -1.
     999900   -1    0    0    0    0 -0.00000000000E+00 -0.00000000000E+00 -0.74505805969E-08  0.93827000000E+00  0.93827000000E+00 0.  1.
     999902    2    1    2    0    0 -0.14434560477E-01 -0.80679595881E-02 -0.16746549973E-01  0.10203950166E+01  0.10201235682E+01 0.  0.
     999903    2    3    3    0    0  0.85078527397E-02  0.74095437235E-01  0.10240031093E+00  0.12827778631E+00  0.20170508289E-01 0.  0.
         14    1    1    2    0    0  0.14434560477E-01  0.80679595881E-02  0.16746549973E-01  0.23534983409E-01  0.00000000000E+00 0. -1.
     999901    1    3    3    0    0 -0.22942413217E-01 -0.82163396823E-01 -0.11914686090E+00  0.89211723028E+00  0.88000000000E+00 0.  1.
        -11    1    4    4    0    0  0.65950664599E-02  0.41392178884E-01  0.40739663729E-01  0.58453303551E-01  0.51100000000E-03 0.  1.
         11    1    4    4    0    0  0.19127862798E-02  0.32703258351E-01  0.61660647201E-01  0.69824482758E-01  0.51100000000E-03 0. -1.
</event>
<event>
 8    1  0.9956970E+004  0.1043930E+01  0.7957747E-01            NaN
         13   -1    0    0    0    0  0.00000000000E+00  0.00000000000E+00  0.74505805969E-08  0.10566000000E+00  0.10566000000E+00 0. -1.
     999900   -1    0    0    0    0 -0.00000000000E+00 -0.00000000000E+00 -0.74505805969E-08  0.93827000000E+00  0.93827000000E+00 0.  1.
     999902    2    1    2    0    0  0.16385874839E-01 -0.17777244763E-01 -0.41733280267E-03  0.10197493984E+01  0.10194626693E+01 0.  0.
     999903    2    3    3    0    0 -0.57682409486E-01  0.35740773037E-01 -0.10732039353E+00  0.12858243688E+00  0.20275921289E-01 0.  0.
         14    1    1    2    0    0 -0.16385874839E-01  0.17777244763E-01  0.41733280267E-03  0.24180601570E-01  0.00000000000E+00 0. -1.
     999901    1    3    3    0    0  0.74068284325E-01 -0.53518017800E-01  0.10690306073E+00  0.89116696155E+00  0.88000000000E+00 0. -1.
        -11    1    4    4    0    0 -0.12190096442E-01  0.16055210429E-01 -0.41922478668E-01  0.46520141571E-01  0.51100000000E-03 0.  1.
         11    1    4    4    0    0 -0.45492313045E-01  0.19685562608E-01 -0.65397914863E-01  0.82062295305E-01  0.51100000000E-03 0. -1.
</event>
<event>
 8    1  0.9956970E+004  0.1043930E+01  0.7957747E-01            NaN
         13   -1    0    0    0    0  0.00000000000E+00  0.00000000000E+00  0.74505805969E-08  0.10566000000E+00  0.10566000000E+00 0. -1.
     999900   -1    0    0    0    0 -0.00000000000E+00 -0.00000000000E+00 -0.74505805969E-08  0.93827000000E+00  0.93827000000E+00 0.  1.
     999902    2    1    2    0    0 -0.21038379214E-01 -0.60816678963E-02  0.10194280165E-01  0.10197737703E+01  0.10194876258E+01 0.  0.
     999903    2    3    3    0    0  0.71642535976E-01 -0.82622209546E-01  0.63076886007E-01  0.13002955058E+00  0.31143346069E-01 0.  0.
         14    1    1    2    0    0  0.21038379214E-01  0.60816678963E-02 -0.10194280165E-01  0.24156229681E-01  0.00000000000E+00 0.  1.
     999901    1    3    3    0    0 -0.92680915190E-01  0.76540541650E-01 -0.52882605842E-01  0.88974421974E+00  0.88000000000E+00 0.  1.
        -11    1    4    4    0    0  0.59792450293E-01 -0.48323132018E-01  0.36865858817E-01  0.85262036496E-01  0.51100000000E-03 0.  1.
         11    1    4    4    0    0  0.11850085683E-01 -0.34299077528E-01  0.26211027190E-01  0.44767514085E-01  0.51100000000E-03 0. -1.
</event>
<event>
 8    1  0.9956970E+004  0.1043930E+01  0.7957747E-01            NaN
         13   -1    0    0    0    0  0.00000000000E+00  0.00000000000E+00  0.74505805969E-08  0.10566000000E+00  0.10566000000E+00 0. -1.
     999900   -1    0    0    0    0 -0.00000000000E+00 -0.00000000000E+00 -0.74505805969E-08  0.93827000000E+00  0.93827000000E+00 0.  1.
     999902    2    1    2    0    0 -0.24664963809E-02 -0.23481563456E-02 -0.23014370999E-01  0.10206650325E+01  0.10203998480E+01 0.  0.
     999903    2    3    3    0    0  0.47019655688E-01 -0.70040413359E-01  0.95598114742E-01  0.12875694151E+00  0.17967830171E-01 0.  0.
         14    1    1    2    0    0  0.24664963809E-02  0.23481563456E-02  0.23014370999E-01  0.23264967550E-01  0.00000000000E+00 0. -1.
     999901    1    3    3    0    0 -0.49486152069E-01  0.67692257013E-01 -0.11861248574E+00  0.89190809094E+00  0.88000000000E+00 0.  1.
        -11    1    4    4    0    0  0.27032981618E-01 -0.54363182830E-01  0.70550804649E-01  0.93079615921E-01  0.51100000000E-03 0.  1.
         11    1    4    4    0    0  0.19986674070E-01 -0.15677230529E-01  0.25047310093E-01  0.35677325592E-01  0.51100000000E-03 0. -1.
</event>
<event>
 8    1  0.9956970E+004  0.1043930E+01  0.7957747E-01            NaN
         13   -1    0    0    0    0  0.00000000000E+00  0.00000000000E+00  0.74505805969E-08  0.10566000000E+00  0.10566000000E+00 0.  1.
     999900   -1    0    0    0    0 -0.00000000000E+00 -0.00000000000E+00 -0.74505805969E-08  0.93827000000E+00  0.93827000000E+00 0.  1.
     999902    2    1    2    0    0  0.18077251840E-01 -0.34989267405E-02  0.15975407478E-01  0.10195528967E+01  0.10192614316E+01 0.  0.
     999903    2    3    3    0    0 -0.84134136198E-01  0.73920588502E-02 -0.92555536227E-01  0.12694730228E+00  0.20393500456E-01 0.  0.
         14    1    1    2    0    0 -0.18077251840E-01  0.34989267405E-02 -0.15975407478E-01  0.24377103325E-01  0.00000000000E+00 0. -1.
     999901    1    3    3    0    0  0.10221138804E+00 -0.10890985591E-01  0.10853094370E+00  0.89260559440E+00  0.88000000000E+00 0. -1.
        -11    1    4    4    0    0 -0.27646082772E-01 -0.55099031190E-02 -0.22769290706E-01  0.36240400733E-01  0.51100000000E-03 0.  1.
         11    1    4    4    0    0 -0.56488053426E-01  0.12901961969E-01 -0.69786245521E-01  0.90706901542E-01  0.51100000000E-03 0. -1.
</event>
<event>
 8    1  0.9956970E+004  0.1043930E+01  0.7957747E-01            NaN
         13   -1    0    0    0    0  0.00000000000E+00  0.00000000000E+00  0.74505805969E-08  0.10566000000E+00  0.10566000000E+00 0.  1.
     999900   -1    0    0    0    0 -0.00000000000E+00 -0.00000000000E+00 -0.74505805969E-08  0.93827000000E+00  0.93827000000E+00 0. -1.
     999902    2    1    2    0    0 -0.14691754423E-01 -0.17488790712E-01  0.81015242526E-02  0.10196948985E+01  0.10194068599E+01 0.  0.
     999903    2    3    3    0    0  0.72313588244E-02 -0.31306744843E-02 -0.12722052453E+00  0.12896551465E+00  0.19620102805E-01 0.  0.
         14    1    1    2    0    0  0.14691754423E-01  0.17488790712E-01 -0.81015242526E-02  0.24235101481E-01  0.00000000000E+00 0.  1.
     999901    1    3    3    0    0 -0.21923113247E-01 -0.14358116228E-01  0.13532204878E+00  0.89072938387E+00  0.88000000000E+00 0.  1.
        -11    1    4    4    0    0  0.64038200004E-02  0.66262038839E-02 -0.90113337202E-01  0.90584712569E-01  0.51100000000E-03 0. -1.
         11    1    4    4    0    0  0.82753882404E-03 -0.97568783682E-02 -0.37107187330E-01  0.38380802083E-01  0.51100000000E-03 0.  1.
</event>
<event>
 8    1  0.9956970E+004  0.1043930E+01  0.7957747E-01            NaN
         13   -1    0    0    0    0  0.00000000000E+00  0.00000000000E+00  0.74505805969E-08  0.10566000000E+00  0.10566000000E+00 0.  1.
     999900   -1    0    0    0    0 -0.00000000000E+00 -0.00000000000E+00 -0.74505805969E-08  0.93827000000E+00  0.93827000000E+00 0. -1.
     999902    2    1    2    0    0 -0.14290836076E-01 -0.16104892359E-01  0.91535762581E-02  0.10205337714E+01  0.10202655513E+01 0.  0.
     999903    2    3    3    0    0  0.55902443445E-01 -0.79087651849E-01 -0.85121455101E-01  0.13048787034E+00  0.20037023964E-01 0.  0.
         14    1    1    2    0    0  0.14290836076E-01  0.16104892359E-01 -0.91535762581E-02  0.23396228584E-01  0.00000000000E+00 0.  1.
     999901    1    3    3    0    0 -0.70193279522E-01  0.62982759491E-01  0.94275031359E-01  0.89004590108E+00  0.88000000000E+00 0.  1.
        -11    1    4    4    0    0  0.27562883781E-01 -0.55013233788E-01 -0.49217813367E-01  0.78796083200E-01  0.51100000000E-03 0. -1.
         11    1    4    4    0    0  0.28339559665E-01 -0.24074418062E-01 -0.35903641734E-01  0.51691787140E-01  0.51100000000E-03 0.  1.
</event>
<event>
 8    1  0.9956970E+004  0.1043930E+01  0.7957747E-01            NaN
         13   -1    0    0    0    0  0.00000000000E+00  0.00000000000E+00  0.74505805969E-08  0.10566000000E+00  0.10566000000E+00 0. -1.
     999900   -1    0    0    0    0 -0.00000000000E+00 -0.00000000000E+00 -0.74505805969E-08  0.93827000000E+00  0.93827000000E+00 0. -1.
     999902    2    1    2    0    0 -0.14748821434E-01  0.46853020294E-02 -0.20136958191E-01  0.10185336051E+01  0.10182169356E+01 0.  0.
     999903    2    3    3    0    0  0.28484885308E-01 -0.43255328257E-01 -0.11842435183E+00  0.13071162453E+00  0.19462517012E-01 0.  0.
         14    1    1    2    0    0  0.14748821434E-01 -0.46853020294E-02  0.20136958191E-01  0.25396394901E-01  0.00000000000E+00 0. -1.
     999901    1    3    3    0    0 -0.43233706742E-01  0.47940630286E-01  0.98287393636E-01  0.88782198057E+00  0.88000000000E+00 0.  1.
        -11    1    4    4    0    0  0.17823713508E-02 -0.87563730604E-02 -0.80911498547E-02  0.12065601675E-01  0.51100000000E-03 0. -1.
         11    1    4    4    0    0  0.26702513957E-01 -0.34498955196E-01 -0.11033320197E+00  0.11864602286E+00  0.51100000000E-03 0.  1.
</event>
<event>
 8    1  0.9956970E+004  0.1043930E+01  0.7957747E-01            NaN
         13   -1    0    0    0    0  0.00000000000E+00  0.00000000000E+00  0.74505805969E-08  0.10566000000E+00  0.10566000000E+00 0. -1.
     999900   -1    0    0    0    0 -0.00000000000E+00 -0.00000000000E+00 -0.74505805969E-08  0.93827000000E+00  0.93827000000E+00 0. -1.
     999902    2    1    2    0    0 -0.23090073021E-01 -0.10932165102E-01  0.39532185769E-02  0.10180786626E+01  0.10177503975E+01 0.  0.
     999903    2    3    3    0    0 -0.86824697931E-01  0.87973674428E-01 -0.33365061345E-01  0.12946337945E+00  0.19226121233E-01 0.  0.
         14    1    1    2    0    0  0.23090073021E-01  0.10932165102E-01 -0.39532185769E-02  0.25851337355E-01  0.00000000000E+00 0. -1.
     999901    1    3    3    0    0  0.63734624910E-01 -0.98905839530E-01  0.37318279921E-01  0.88861528319E+00  0.88000000000E+00 0.  1.
        -11    1    4    4    0    0 -0.45015959326E-01  0.54750893327E-01 -0.26251583617E-01  0.75587721738E-01  0.51100000000E-03 0. -1.
         11    1    4    4    0    0 -0.41808738605E-01  0.33222781102E-01 -0.71134777273E-02  0.53875657715E-01  0.51100000000E-03 0.  1.
</event>
<event>
 8    1  0.9956970E+004  0.1043930E+01  0.7957747E-01            NaN
         13   -1    0    0    0    0  0.00000000000E+00  0.00000000000E+00  0.74505805969E-08  0.10566000000E+00  0.10566000000E+00 0.  1.
     999900   -1    0    0    0    0 -0.00000000000E+00 -0.00000000000E+00 -0.74505805969E-08  0.93827000000E+00  0.93827000000E+00 0.  1.
     999902    2    1    2    0    0 -0.12302091131E-01  0.13243457097E-01  0.15517553712E-01  0.10201072152E+01  0.10198290079E+01 0.  0.
     999903    2    3    3    0    0  0.67187290860E-01  0.98883172751E-01 -0.47463816032E-01  0.13015251092E+00  0.19870791633E-01 0.  0.
         14    1    1    2    0    0  0.12302091131E-01 -0.13243457097E-01 -0.15517553712E-01  0.23822784793E-01  0.00000000000E+00 0. -1.
     999901    1    3    3    0    0 -0.79489381992E-01 -0.85639715655E-01  0.62981369744E-01  0.88995470429E+00  0.88000000000E+00 0.  1.
        -11    1    4    4    0    0 -0.12433602322E-02  0.38726708830E-02 -0.15565030162E-02  0.43848998934E-02  0.51100000000E-03 0. -1.
         11    1    4    4    0    0  0.68430651092E-01  0.95010501868E-01 -0.45907313015E-01  0.12576761103E+00  0.51100000000E-03 0.  1.
</event>
<event>
 8    1  0.9956970E+004  0.1043930E+01  0.7957747E-01            NaN
         13   -1    0    0    0    0  0.00000000000E+00  0.00000000000E+00  0.74505805969E-08  0.10566000000E+00  0.10566000000E+00 0.  1.
     999900   -1    0    0    0    0 -0.00000000000E+00 -0.00000000000E+00 -0.74505805969E-08  0.93827000000E+00  0.93827000000E+00 0.  1.
     999902    2    1    2    0    0  0.20546972799E-01 -0.30843560804E-02 -0.13129657139E-01  0.10193519765E+01  0.10190556279E+01 0.  0.
     999903    2    3    3    0    0  0.85038830478E-01  0.83556349607E-01  0.49402443473E-01  0.13054599360E+00  0.19707581687E-01 0.  0.
         14    1    1    2    0    0 -0.20546972799E-01  0.30843560804E-02  0.13129657139E-01  0.24578023521E-01  0.00000000000E+00 0. -1.
     999901    1    3    3    0    0 -0.64491857679E-01 -0.86640705687E-01 -0.62532100612E-01  0.88880598288E+00  0.88000000000E+00 0.  1.
        -11    1    4    4    0    0  0.52400378005E-01  0.64254380964E-01  0.34184339756E-01  0.89684197569E-01  0.51100000000E-03 0. -1.
         11    1    4    4    0    0  0.32638452473E-01  0.19301968643E-01  0.15218103717E-01  0.40861796034E-01  0.51100000000E-03 0.  1.
</event>
<event>
 8    1  0.9956970E+004  0.1043930E+01  0.7957747E-01            NaN
         13   -1    0    0    0    0  0.00000000000E+00  0.00000000000E+00  0.74505805969E-08  0.10566000000E+00  0.10566000000E+00 0. -1.
     999900   -1    0    0    0    0 -0.00000000000E+00 -0.00000000000E+00 -0.74505805969E-08  0.93827000000E+00  0.93827000000E+00 0. -1.
     999902    2    1    2    0    0 -0.12305697291E-01  0.94399992282E-02  0.17601800417E-01  0.10204700949E+01  0.10202003957E+01 0.  0.
     999903    2    3    3    0    0 -0.79045016215E-01 -0.10154262436E+00  0.11163720050E-01  0.13096870177E+00  0.21659941105E-01 0.  0.
         14    1    1    2    0    0  0.12305697291E-01 -0.94399992282E-02 -0.17601800417E-01  0.23459905140E-01  0.00000000000E+00 0. -1.
     999901    1    3    3    0    0  0.66739318925E-01  0.11098262358E+00  0.64380803668E-02  0.88950139309E+00  0.88000000000E+00 0.  1.
        -11    1    4    4    0    0 -0.85257876084E-02 -0.17518761444E-01 -0.49160099706E-02  0.20100356512E-01  0.51100000000E-03 0. -1.
         11    1    4    4    0    0 -0.70519228607E-01 -0.84023862912E-01  0.16079730021E-01  0.11086834526E+00  0.51100000000E-03 0.  1.
</event>
<event>
 8    1  0.9956970E+004  0.1043930E+01  0.7957747E-01            NaN
         13   -1    0    0    0    0  0.00000000000E+00  0.00000000000E+00  0.74505805969E-08  0.10566000000E+00  0.10566000000E+00 0. -1.
     999900   -1    0    0    0    0 -0.00000000000E+00 -0.00000000000E+00 -0.74505805969E-08  0.93827000000E+00  0.93827000000E+00 0.  1.
     999902    2    1    2    0    0  0.21007455816E-02 -0.22054379347E-01  0.53625118587E-02  0.10211360246E+01  0.10208815874E+01 0.  0.
     999903    2    3    3    0    0 -0.15479162068E-01 -0.13075061539E+00 -0.15313008407E-01  0.13403321095E+00  0.19876758460E-01 0.  0.
         14    1    1    2    0    0 -0.21007455816E-02  0.22054379347E-01 -0.53625118587E-02  0.22793975384E-01  0.00000000000E+00 0.  1.
     999901    1    3    3    0    0  0.17579907650E-01  0.10869623604E+00  0.20675520266E-01  0.88710281367E+00  0.88000000000E+00 0. -1.
        -11    1    4    4    0    0 -0.17537857280E-01 -0.12285076844E+00 -0.18060015074E-01  0.12540459725E+00  0.51100000000E-03 0. -1.
         11    1    4    4    0    0  0.20586952111E-02 -0.78998469464E-02  0.27470066667E-02  0.86286136995E-02  0.51100000000E-03 0.  1.
</event>
<event>
 8    1  0.9956970E+004  0.1043930E+01  0.7957747E-01            NaN
         13   -1    0    0    0    0  0.00000000000E+00  0.00000000000E+00  0.74505805969E-08  0.10566000000E+00  0.10566000000E+00 0.  1.
     999900   -1    0    0    0    0 -0.00000000000E+00 -0.00000000000E+00 -0.74505805969E-08  0.93827000000E+00  0.93827000000E+00 0.  1.
     999902    2    1    2    0    0 -0.90034621437E-02 -0.17738897994E-01 -0.11892580129E-01  0.10207531949E+01  0.10204900394E+01 0.  0.
     999903    2    3    3    0    0 -0.12771266469E+00  0.25536460215E-01  0.15949241308E-02  0.13162635121E+00  0.18982018546E-01 0.  0.
         14    1    1    2    0    0  0.90034621437E-02  0.17738897994E-01  0.11892580129E-01  0.23176805102E-01  0.00000000000E+00 0.  1.
     999901    1    3    3    0    0  0.11870920254E+00 -0.43275358209E-01 -0.13487504260E-01  0.88912684369E+00  0.88000000000E+00 0.  1.
        -11    1    4    4    0    0 -0.48077783257E-01  0.18687101312E-01  0.31536005813E-02  0.51680628053E-01  0.51100000000E-03 0. -1.
         11    1    4    4    0    0 -0.79634881430E-01  0.68493589026E-02 -0.15586764505E-02  0.79945723157E-01  0.51100000000E-03 0.  1.
</event>
<event>
 8    1  0.9956970E+004  0.1043930E+01  0.7957747E-01            NaN
         13   -1    0    0    0    0  0.00000000000E+00  0.00000000000E+00  0.74505805969E-08  0.10566000000E+00  0.10566000000E+00 0.  1.
     999900   -1    0    0    0    0 -0.00000000000E+00 -0.00000000000E+00 -0.74505805969E-08  0.93827000000E+00  0.93827000000E+00 0. -1.
     999902    2    1    2    0    0  0.19403850273E-01 -0.51682125675E-02  0.10480892771E-01  0.10212789749E+01  0.10210277545E+01 0.  0.
     999903    2    3    3    0    0 -0.22139341761E-01 -0.85590333865E-01 -0.94497160693E-01  0.13042884936E+00  0.16313051869E-01 0.  0.
         14    1    1    2    0    0 -0.19403850273E-01  0.51682125675E-02 -0.10480892771E-01  0.22651025139E-01  0.00000000000E+00 0. -1.
     999901    1    3    3    0    0  0.41543192034E-01  0.80422121298E-01  0.10497805346E+00  0.89085012550E+00  0.88000000000E+00 0.  1.
        -11    1    4    4    0    0 -0.74181387883E-02 -0.58871914959E-01 -0.64458912396E-01  0.87613604323E-01  0.51100000000E-03 0. -1.
         11    1    4    4    0    0 -0.14721202972E-01 -0.26718418906E-01 -0.30038248296E-01  0.42815245036E-01  0.51100000000E-03 0.  1.
</event>
<event>
 8    1  0.9956970E+004  0.1043930E+01  0.7957747E-01            NaN
         13   -1    0    0    0    0  0.00000000000E+00  0.00000000000E+00  0.74505805969E-08  0.10566000000E+00  0.10566000000E+00 0. -1.
     999900   -1    0    0    0    0 -0.00000000000E+00 -0.00000000000E+00 -0.74505805969E-08  0.93827000000E+00  0.93827000000E+00 0. -1.
     999902    2    1    2    0    0  0.77881317803E-02 -0.14929882477E-01  0.14119767333E-01  0.10219544632E+01  0.10217181611E+01 0.  0.
     999903    2    3    3    0    0  0.10606189128E+00 -0.69926686290E-01 -0.35164306276E-01  0.13340997916E+00  0.20562778647E-01 0.  0.
         14    1    1    2    0    0 -0.77881317803E-02  0.14929882477E-01 -0.14119767333E-01  0.21975536784E-01  0.00000000000E+00 0.  1.
     999901    1    3    3    0    0 -0.98273759502E-01  0.54996803813E-01  0.49284073608E-01  0.88854448406E+00  0.88000000000E+00 0. -1.
        -11    1    4    4    0    0  0.24892707892E-01 -0.25187252459E-01 -0.15517900645E-01  0.38666664636E-01  0.51100000000E-03 0.  1.
         11    1    4    4    0    0  0.81169183390E-01 -0.44739433830E-01 -0.19646405631E-01  0.94743314524E-01  0.51100000000E-03 0. -1.
</event>
<event>
 8    1  0.9956970E+004  0.1043930E+01  0.7957747E-01            NaN
         13   -1    0    0    0    0  0.00000000000E+00  0.00000000000E+00  0.74505805969E-08  0.10566000000E+00  0.10566000000E+00 0.  1.
     999900   -1    0    0    0    0 -0.00000000000E+00 -0.00000000000E+00 -0.74505805969E-08  0.93827000000E+00  0.93827000000E+00 0. -1.
     999902    2    1    2    0    0  0.19366100338E-01 -0.57885694669E-02  0.11890925372E-01  0.10204790409E+01  0.10202095497E+01 0.  0.
     999903    2    3    3    0    0  0.63567214002E-02 -0.12924916798E+00  0.14780621044E-01  0.13176079885E+00  0.19916978291E-01 0.  0.
         14    1    1    2    0    0 -0.19366100338E-01  0.57885694669E-02 -0.11890925372E-01  0.23450959148E-01  0.00000000000E+00 0. -1.
     999901    1    3    3    0    0  0.13009378937E-01  0.12346059851E+00 -0.28896956716E-02  0.88871824200E+00  0.88000000000E+00 0. -1.
        -11    1    4    4    0    0 -0.62207043930E-02 -0.58136711658E-01  0.10583944252E-01  0.59421001359E-01  0.51100000000E-03 0.  1.
         11    1    4    4    0    0  0.12577425793E-01 -0.71112456323E-01  0.41966767919E-02  0.72339797491E-01  0.51100000000E-03 0. -1.
</event>
<event>
 8    1  0.9956970E+004  0.1043930E+01  0.7957747E-01            NaN
         13   -1    0    0    0    0  0.00000000000E+00  0.00000000000E+00  0.74505805969E-08  0.10566000000E+00  0.10566000000E+00 0. -1.
     999900   -1    0    0    0    0 -0.00000000000E+00 -0.00000000000E+00 -0.74505805969E-08  0.93827000000E+00  0.93827000000E+00 0.  1.
     999902    2    1    2    0    0 -0.17175064732E-01 -0.30102899230E-02  0.17700752245E-01  0.10190832432E+01  0.10187802978E+01 0.  0.
     999903    2    3    3    0    0  0.10146833204E+00  0.34633351235E-01  0.68409530563E-01  0.12887839063E+00  0.20844286392E-01 0.  0.
         14    1    1    2    0    0  0.17175064732E-01  0.30102899230E-02 -0.17700752245E-01  0.24846756811E-01  0.00000000000E+00 0.  1.
     999901    1    3    3    0    0 -0.11864339677E+00 -0.37643641158E-01 -0.50708778318E-01  0.89020485256E+00  0.88000000000E+00 0. -1.
        -11    1    4    4    0    0  0.89293069352E-01  0.27726631711E-01  0.66510954911E-01  0.11474313306E+00  0.51100000000E-03 0. -1.
         11    1    4    4    0    0  0.12175262689E-01  0.69067195239E-02  0.18985756525E-02  0.14135257572E-01  0.51100000000E-03 0.  1.
</event>
<event>
 8    1  0.9956970E+004  0.1043930E+01  0.7957747E-01            NaN
         13   -1    0    0    0    0  0.00000000000E+00  0.00000000000E+00  0.74505805969E-08  0.10566000000E+00  0.10566000000E+00 0.  1.
     999900   -1    0    0    0    0 -0.00000000000E+00 -0.00000000000E+00 -0.74505805969E-08  0.93827000000E+00  0.93827000000E+00 0.  1.
     999902    2    1    2    0    0 -0.97177045001E-02 -0.46995953829E-02 -0.20932312923E-01  0.10203783185E+01  0.10201064803E+01 0.  0.
     999903    2    3    3    0    0 -0.10240587118E+00 -0.62671494854E-01  0.47795609652E-01  0.13095414257E+00  0.21210573641E-01 0.  0.
         14    1    1    2    0    0  0.97177045001E-02  0.46995953829E-02  0.20932312923E-01  0.23551681507E-01  0.00000000000E+00 0.  1.
     999901    1    3    3    0    0  0.92688166685E-01  0.57971899471E-01 -0.68727922575E-01  0.88942417592E+00  0.88000000000E+00 0.  1.
        -11    1    4    4    0    0 -0.90433204300E-01 -0.48151245339E-01  0.45075506164E-01  0.11193198490E+00  0.51100000000E-03 0. -1.
         11    1    4    4    0    0 -0.11972666885E-01 -0.14520249516E-01  0.27201034879E-02  0.19022157667E-01  0.51100000000E-03 0.  1.
</event>
<event>
 8    1  0.9956970E+004  0.1043930E+01  0.7957747E-01            NaN
         13   -1    0    0    0    0  0.00000000000E+00  0.00000000000E+00  0.74505805969E-08  0.10566000000E+00  0.10566000000E+00 0. -1.
     999900   -1    0    0    0    0 -0.00000000000E+00 -0.00000000000E+00 -0.74505805969E-08  0.93827000000E+00  0.93827000000E+00 0. -1.
     999902    2    1    2    0    0  0.20061681541E-01  0.12329515985E-01  0.43969711405E-02  0.10199754308E+01  0.10196941002E+01 0.  0.
     999903    2    3    3    0    0 -0.57564291306E-01 -0.11064822332E+00  0.79147555954E-02  0.12803278082E+00  0.27804184063E-01 0.  0.
         14    1    1    2    0    0 -0.20061681541E-01 -0.12329515985E-01 -0.43969711405E-02  0.23954569206E-01  0.00000000000E+00 0.  1.
     999901    1    3    3    0    0  0.77625972846E-01  0.12297773931E+00 -0.35177844549E-02  0.89194264997E+00  0.88000000000E+00 0.  1.
        -11    1    4    4    0    0 -0.22421280402E-01 -0.44038989427E-01 -0.10448515782E-01  0.50513156778E-01  0.51100000000E-03 0.  1.
         11    1    4    4    0    0 -0.35143010903E-01 -0.66609233896E-01  0.18363271378E-01  0.77519624047E-01  0.51100000000E-03 0. -1.
</event>
<event>
 8    1  0.9956970E+004  0.1043930E+01  0.7957747E-01            NaN
         13   -1    0    0    0    0  0.00000000000E+00  0.00000000000E+00  0.74505805969E-08  0.10566000000E+00  0.10566000000E+00 0. -1.
     999900   -1    0    0    0    0 -0.00000000000E+00 -0.00000000000E+00 -0.74505805969E-08  0.93827000000E+00  0.93827000000E+00 0.  1.
     999902    2    1    2    0    0  0.15478832058E-01  0.15871126662E-01 -0.24781366886E-02  0.10216224214E+01  0.10213788444E+01 0.  0.
     999903    2    3    3    0    0 -0.45632036792E-01 -0.11927571430E+00 -0.31685345212E-02  0.12921013796E+00  0.19396941441E-01 0.  0.
         14    1    1    2    0    0 -0.15478832058E-01 -0.15871126662E-01  0.24781366886E-02  0.22307578642E-01  0.00000000000E+00 0.  1.
     999901    1    3    3    0    0  0.61110868850E-01  0.13514684096E+00  0.69039783259E-03  0.89241228340E+00  0.88000000000E+00 0. -1.
        -11    1    4    4    0    0 -0.70036504898E-02 -0.39155526923E-01  0.39632735160E-02  0.39977181826E-01  0.51100000000E-03 0.  1.
         11    1    4    4    0    0 -0.38628386302E-01 -0.80120187375E-01 -0.71318080372E-02  0.89232956133E-01  0.51100000000E-03 0. -1.
</event>
<event>
 8    1  0.9956970E+004  0.1043930E+01  0.7957747E-01            NaN
         13   -1    0    0    0    0  0.00000000000E+00  0.00000000000E+00  0.74505805969E-08  0.10566000000E+00  0.10566000000E+00 0.  1.
     999900   -1    0    0    0    0 -0.00000000000E+00 -0.00000000000E+00 -0.74505805969E-08  0.93827000000E+00  0.93827000000E+00 0.  1.
     999902    2    1    2    0    0  0.13665974242E-01  0.97924895199E-02  0.16688356432E-01  0.10202413330E+01  0.10199662860E+01 0.  0.
     999903    2    3    3    0    0 -0.10852202331E+00 -0.44159650705E-02 -0.64724283160E-01  0.12796345880E+00  0.19720133560E-01 0.  0.
         14    1    1    2    0    0 -0.13665974242E-01 -0.97924895199E-02 -0.16688356432E-01  0.23688666983E-01  0.00000000000E+00 0. -1.
     999901    1    3    3    0    0  0.12218799755E+00  0.14208454590E-01  0.81412639593E-01  0.89227787421E+00  0.88000000000E+00 0. -1.
        -11    1    4    4    0    0 -0.11665337342E-01 -0.66994359108E-02 -0.67767068511E-02  0.15071410470E-01  0.51100000000E-03 0. -1.
         11    1    4    4    0    0 -0.96856685967E-01  0.22834708403E-02 -0.57947576309E-01  0.11289204833E+00  0.51100000000E-03 0.  1.
</event>
<event>
 8    1  0.9956970E+004  0.1043930E+01  0.7957747E-01            NaN
         13   -1    0    0    0    0  0.00000000000E+00  0.00000000000E+00  0.74505805969E-08  0.10566000000E+00  0.10566000000E+00 0.  1.
     999900   -1    0    0    0    0 -0.00000000000E+00 -0.00000000000E+00 -0.74505805969E-08  0.93827000000E+00  0.93827000000E+00 0.  1.
     999902    2    1    2    0    0  0.13769987738E-02 -0.25453172908E-02 -0.24900145805E-01  0.10188622513E+01  0.10185538253E+01 0.  0.
     999903    2    3    3    0    0  0.41481546161E-01  0.10722267552E-01 -0.12363777101E+00  0.13233333343E+00  0.19751633410E-01 0.  0.
         14    1    1    2    0    0 -0.13769987738E-02  0.25453172908E-02  0.24900145805E-01  0.25067748739E-01  0.00000000000E+00 0.  1.
     999901    1    3    3    0    0 -0.40104547388E-01 -0.13267584843E-01  0.98737625202E-01  0.88652891784E+00  0.88000000000E+00 0. -1.
        -11    1    4    4    0    0  0.10776034023E-01  0.22498383841E-02 -0.61769620790E-01  0.62744974743E-01  0.51100000000E-03 0. -1.
         11    1    4    4    0    0  0.30705512139E-01  0.84724291677E-02 -0.61868150217E-01  0.69588358682E-01  0.51100000000E-03 0.  1.
</event>
<event>
 8    1  0.9956970E+004  0.1043930E+01  0.7957747E-01            NaN
         13   -1    0    0    0    0  0.00000000000E+00  0.00000000000E+00  0.74505805969E-08  0.10566000000E+00  0.10566000000E+00 0. -1.
     999900   -1    0    0    0    0 -0.00000000000E+00 -0.00000000000E+00 -0.74505805969E-08  0.93827000000E+00  0.93827000000E+00 0. -1.
     999902    2    1    2    0    0  0.19941797804E-01 -0.22162574176E-02  0.11727443182E-01  0.10206895176E+01  0.10204248975E+01 0.  0.
     999903    2    3    3    0    0  0.60236485395E-01 -0.84324198883E-01 -0.78086227920E-01  0.13140223481E+00  0.20738457778E-01 0.  0.
         14    1    1    2    0    0 -0.19941797804E-01  0.22162574176E-02 -0.11727443182E-01  0.23240482357E-01  0.00000000000E+00 0. -1.
     999901    1    3    3    0    0 -0.40294687591E-01  0.82107941466E-01  0.89813671102E-01  0.88928728284E+00  0.88000000000E+00 0.  1.
        -11    1    4    4    0    0  0.12833592642E-01 -0.29714203024E-01 -0.32761386776E-01  0.46056536408E-01  0.51100000000E-03 0.  1.
         11    1    4    4    0    0  0.47402892754E-01 -0.54609995859E-01 -0.45324841144E-01  0.85345698397E-01  0.51100000000E-03 0. -1.
</event>
<event>
 8    1  0.9956970E+004  0.1043930E+01  0.7957747E-01            NaN
         13   -1    0    0    0    0  0.00000000000E+00  0.00000000000E+00  0.74505805969E-08  0.10566000000E+00  0.10566000000E+00 0.  1.
     999900   -1    0    0    0    0 -0.00000000000E+00 -0.00000000000E+00 -0.74505805969E-08  0.93827000000E+00  0.93827000000E+00 0.  1.
     999902    2    1    2    0    0  0.16785216737E-01  0.17490812045E-01  0.25203018749E-02  0.10195573939E+01  0.10192660377E+01 0.  0.
     999903    2    3    3    0    0  0.81410590436E-01  0.84260791618E-01  0.59330750143E-01  0.13284318056E+00  0.19990184315E-01 0.  0.
         14    1    1    2    0    0 -0.16785216737E-01 -0.17490812045E-01 -0.25203018749E-02  0.24372606107E-01  0.00000000000E+00 0. -1.
     999901    1    3    3    0    0 -0.64625373699E-01 -0.66769979573E-01 -0.56810448268E-01  0.88671421333E+00  0.88000000000E+00 0. -1.
        -11    1    4    4    0    0  0.48151590020E-01  0.59846675081E-01  0.45740532842E-01  0.89401664444E-01  0.51100000000E-03 0. -1.
         11    1    4    4    0    0  0.33259000416E-01  0.24414116537E-01  0.13590217301E-01  0.43441516114E-01  0.51100000000E-03 0.  1.
</event>
<event>
 8    1  0.9956970E+004  0.1043930E+01  0.7957747E-01            NaN
         13   -1    0    0    0    0  0.00000000000E+00  0.00000000000E+00  0.74505805969E-08  0.10566000000E+00  0.10566000000E+00 0. -1.
     999900   -1    0    0    0    0 -0.00000000000E+00 -0.00000000000E+00 -0.74505805969E-08  0.93827000000E+00  0.93827000000E+00 0. -1.
     999902    2    1    2    0    0 -0.22579471096E-01 -0.65921151858E-02 -0.24490018074E-02  0.10202807694E+01  0.10200066482E+01 0.  0.
     999903    2    3    3    0    0 -0.11171695753E+00  0.64594738523E-01 -0.23574644885E-01  0.13266635288E+00  0.19784803793E-01 0.  0.
         14    1    1    2    0    0  0.22579471096E-01  0.65921151858E-02  0.24490018074E-02  0.23649230589E-01  0.00000000000E+00 0.  1.
     999901    1    3    3    0    0  0.89137486436E-01 -0.71186853709E-01  0.21125643078E-01  0.88761441653E+00  0.88000000000E+00 0. -1.
        -11    1    4    4    0    0 -0.73949274967E-01  0.37683677838E-01 -0.65276835900E-02  0.83255189733E-01  0.51100000000E-03 0.  1.
         11    1    4    4    0    0 -0.37767682566E-01  0.26911060685E-01 -0.17046961295E-01  0.49411163151E-01  0.51100000000E-03 0. -1.
</event>
<event>
 8    1  0.9956970E+004  0.1043930E+01  0.7957747E-01            NaN
         13   -1    0    0    0    0  0.00000000000E+00  0.00000000000E+00  0.74505805969E-08  0.10566000000E+00  0.10566000000E+00 0.  1.
     999900   -1    0    0    0    0 -0.00000000000E+00 -0.00000000000E+00 -0.74505805969E-08  0.93827000000E+00  0.93827000000E+00 0.  1.
     999902    2    1    2    0    0  0.18094838538E-01  0.12688742998E-01 -0.87525143952E-02  0.10201595585E+01  0.10198825868E+01 0.  0.
     999903    2    3    3    0    0  0.61941889526E-01 -0.98821433397E-01 -0.55660422056E-01  0.13080168053E+00  0.20211968457E-01 0.  0.
         14    1    1    2    0    0 -0.18094838538E-01 -0.12688742998E-01  0.87525143952E-02  0.23770441494E-01  0.00000000000E+00 0.  1.
     999901    1    3    3    0    0 -0.43847050988E-01  0.11151017639E+00  0.46907907661E-01  0.88935787798E+00  0.88000000000E+00 0. -1.
        -11    1    4    4    0    0  0.13360752762E-01 -0.99561386245E-02 -0.41632955944E-02  0.17182216443E-01  0.51100000000E-03 0.  1.
         11    1    4    4    0    0  0.48581136763E-01 -0.88865294772E-01 -0.51497126462E-01  0.11361946409E+00  0.51100000000E-03 0. -1.
</event>
<event>
 8    1  0.9956970E+004  0.1043930E+01  0.7957747E-01            NaN
         13   -1    0    0    0    0  0.00000000000E+00  0.00000000000E+00  0.74505805969E-08  0.10566000000E+00  0.10566000000E+00 0. -1.
     999900   -1    0    0    0    0 -0.00000000000E+00 -0.00000000000E+00 -0.74505805969E-08  0.93827000000E+00  0.93827000000E+00 0. -1.
     999902    2    1    2    0    0  0.28246232942E-01 -0.70952564264E-02  0.77037654653E-03  0.10147960710E+01  0.10143777797E+01 0.  0.
     999903    2    3    3    0    0 -0.44493798208E-01  0.99917972435E-01  0.54370446420E-01  0.12372036671E+00  0.19679542673E-01 0.  0.
         14    1    1    2    0    0 -0.28246232942E-01  0.70952564264E-02 -0.77037654653E-03  0.29133929004E-01  0.00000000000E+00 0.  1.
     999901    1    3    3    0    0  0.72740031150E-01 -0.10701322886E+00 -0.53600069873E-01  0.89107570429E+00  0.88000000000E+00 0.  1.
        -11    1    4    4    0    0 -0.12269125669E-01  0.37767886003E-01  0.10418796201E-01  0.41057972346E-01  0.51100000000E-03 0. -1.
         11    1    4    4    0    0 -0.32224672539E-01  0.62150086432E-01  0.43951650219E-01  0.82662394362E-01  0.51100000000E-03 0.  1.
</event>
<event>
 8    1  0.9956970E+004  0.1043930E+01  0.7957747E-01            NaN
         13   -1    0    0    0    0  0.00000000000E+00  0.00000000000E+00  0.74505805969E-08  0.10566000000E+00  0.10566000000E+00 0. -1.
     999900   -1    0    0    0    0 -0.00000000000E+00 -0.00000000000E+00 -0.74505805969E-08  0.93827000000E+00  0.93827000000E+00 0.  1.
     999902    2    1    2    0    0 -0.47208997751E-02  0.21922999997E-01  0.77475898863E-02  0.10202038547E+01  0.10199279264E+01 0.  0.
     999903    2    3    3    0    0 -0.55750112860E-01 -0.98950069317E-01  0.58024707347E-01  0.12905736389E+00  0.19741965712E-01 0.  0.
         14    1    1    2    0    0  0.47208997751E-02 -0.21922999997E-01 -0.77475898863E-02  0.23726145338E-01  0.00000000000E+00 0.  1.
     999901    1    3    3    0    0  0.51029213084E-01  0.12087306931E+00 -0.50277117461E-01  0.89114649077E+00  0.88000000000E+00 0. -1.
        -11    1    4    4    0    0 -0.45322286452E-01 -0.68027242729E-01  0.48539614905E-01  0.95069294405E-01  0.51100000000E-03 0.  1.
         11    1    4    4    0    0 -0.10427826408E-01 -0.30922826588E-01  0.94850924421E-02  0.33988069486E-01  0.51100000000E-03 0. -1.
</event>
<event>
 8    1  0.9956970E+004  0.1043930E+01  0.7957747E-01            NaN
         13   -1    0    0    0    0  0.00000000000E+00  0.00000000000E+00  0.74505805969E-08  0.10566000000E+00  0.10566000000E+00 0.  1.
     999900   -1    0    0    0    0 -0.00000000000E+00 -0.00000000000E+00 -0.74505805969E-08  0.93827000000E+00  0.93827000000E+00 0. -1.
     999902    2    1    2    0    0  0.12008836519E-01  0.19803471676E-01  0.54254150513E-02  0.10201429284E+01  0.10198655645E+01 0.  0.
     999903    2    3    3    0    0 -0.68433980369E-01  0.64554075347E-01 -0.88112622379E-01  0.13041093072E+00  0.19817626396E-01 0.  0.
         14    1    1    2    0    0 -0.12008836519E-01 -0.19803471676E-01 -0.54254150513E-02  0.23787071560E-01  0.00000000000E+00 0. -1.
     999901    1    3    3    0    0  0.80442816887E-01 -0.44750603672E-01  0.93538037431E-01  0.88973199772E+00  0.88000000000E+00 0.  1.
        -11    1    4    4    0    0 -0.44376134894E-01  0.37632540369E-01 -0.41601940182E-01  0.71529238711E-01  0.51100000000E-03 0.  1.
         11    1    4    4    0    0 -0.24057845475E-01  0.26921534979E-01 -0.46510682197E-01  0.58881692010E-01  0.51100000000E-03 0. -1.
</event>
<event>
 8    1  0.9956970E+004  0.1043930E+01  0.7957747E-01            NaN
         13   -1    0    0    0    0  0.00000000000E+00  0.00000000000E+00  0.74505805969E-08  0.10566000000E+00  0.10566000000E+00 0.  1.
     999900   -1    0    0    0    0 -0.00000000000E+00 -0.00000000000E+00 -0.74505805969E-08  0.93827000000E+00  0.93827000000E+00 0.  1.
     999902    2    1    2    0    0 -0.61072035873E-02 -0.14018297007E-01 -0.16979136469E-01  0.10210804560E+01  0.10208247626E+01 0.  0.
     999903    2    3    3    0    0 -0.17355956715E-01  0.12234864010E+00  0.31638709710E-01  0.12918014151E+00  0.20398089181E-01 0.  0.
         14    1    1    2    0    0  0.61072035873E-02  0.14018297007E-01  0.16979136469E-01  0.22849544019E-01  0.00000000000E+00 0.  1.
     999901    1    3    3    0    0  0.11248753128E-01 -0.13636693710E+00 -0.48617846180E-01  0.89190031447E+00  0.88000000000E+00 0.  1.
        -11    1    4    4    0    0 -0.91726771284E-02  0.22431211959E-01  0.65589570884E-03  0.24248476155E-01  0.51100000000E-03 0.  1.
         11    1    4    4    0    0 -0.81832795866E-02  0.99917428137E-01  0.30982814001E-01  0.10493166536E+00  0.51100000000E-03 0. -1.
</event>
<event>
 8    1  0.9956970E+004  0.1043930E+01  0.7957747E-01            NaN
         13   -1    0    0    0    0  0.00000000000E+00  0.00000000000E+00  0.74505805969E-08  0.10566000000E+00  0.10566000000E+00 0. -1.
     999900   -1    0    0    0    0 -0.00000000000E+00 -0.00000000000E+00 -0.74505805969E-08  0.93827000000E+00  0.93827000000E+00 0. -1.
     999902    2    1    2    0    0 -0.14567009372E-01 -0.16322444329E-01  0.58606441165E-02  0.10212812230E+01  0.10210300531E+01 0.  0.
     999903    2    3    3    0    0  0.99747198413E-01  0.74566422746E-01 -0.26144411754E-01  0.12867109092E+00  0.19054248350E-01 0.  0.
         14    1    1    2    0    0  0.14567009372E-01  0.16322444329E-01 -0.58606441165E-02  0.22648777018E-01  0.00000000000E+00 0. -1.
     999901    1    3    3    0    0 -0.11431420779E+00 -0.90888867075E-01  0.32005055870E-01  0.89261013206E+00  0.88000000000E+00 0. -1.
        -11    1    4    4    0    0  0.30513666478E-01  0.17850059543E-01 -0.15273899410E-01  0.38513135316E-01  0.51100000000E-03 0.  1.
         11    1    4    4    0    0  0.69233531934E-01  0.56716363204E-01 -0.10870512344E-01  0.90157955604E-01  0.51100000000E-03 0. -1.
</event>
<event>
 8    1  0.9956970E+004  0.1043930E+01  0.7957747E-01            NaN
         13   -1    0    0    0    0  0.00000000000E+00  0.00000000000E+00  0.74505805969E-08  0.10566000000E+00  0.10566000000E+00 0. -1.
     999900   -1    0    0    0    0 -0.00000000000E+00 -0.00000000000E+00 -0.74505805969E-08  0.93827000000E+00  0.93827000000E+00 0.  1.
     999902    2    1    2    0    0 -0.15039790530E-01 -0.17510026217E-01 -0.10336863926E-01  0.10186387550E+01  0.10183247351E+01 0.  0.
     999903    2    3    3    0    0 -0.78281924540E-01 -0.75440282973E-01  0.69862444495E-01  0.13083955968E+00  0.20467858243E-01 0.  0.
         14    1    1    2    0    0  0.15039790530E-01  0.17510026217E-01  0.10336863926E-01  0.25291244990E-01  0.00000000000E+00 0. -1.
     999901    1    3    3    0    0  0.63242134011E-01  0.57930256756E-01 -0.80199308421E-01  0.88779919533E+00  0.88000000000E+00 0.  1.
        -11    1    4    4    0    0 -0.54011365063E-01 -0.39555847397E-01  0.37264592601E-01  0.76621169412E-01  0.51100000000E-03 0.  1.
         11    1    4    4    0    0 -0.24270559477E-01 -0.35884435576E-01  0.32597851894E-01  0.54218390266E-01  0.51100000000E-03 0. -1.
</event>
<event>
 8    1  0.9956970E+004  0.1043930E+01  0.7957747E-01            NaN
         13   -1    0    0    0    0  0.00000000000E+00  0.00000000000E+00  0.74505805969E-08  0.10566000000E+00  0.10566000000E+00 0. -1.
     999900   -1    0    0    0    0 -0.00000000000E+00 -0.00000000000E+00 -0.74505805969E-08  0.93827000000E+00  0.93827000000E+00 0. -1.
     999902    2    1    2    0    0 -0.23210319590E-01  0.45924208670E-02 -0.43549890736E-02  0.10198722529E+01  0.10195884646E+01 0.  0.
     999903    2    3    3    0    0  0.48987838657E-01  0.10774369510E+00  0.48287815533E-01  0.12935328944E+00  0.19800206852E-01 0.  0.
         14    1    1    2    0    0  0.23210319590E-01 -0.45924208670E-02  0.43549890736E-02  0.24057747083E-01  0.00000000000E+00 0.  1.
     999901    1    3    3    0    0 -0.72198158246E-01 -0.10315127423E+00 -0.52642804606E-01  0.89051896347E+00  0.88000000000E+00 0.  1.
        -11    1    4    4    0    0  0.17679392661E-01  0.44326141800E-01  0.29748922441E-01  0.56237241034E-01  0.51100000000E-03 0.  1.
         11    1    4    4    0    0  0.31308445995E-01  0.63417553298E-01  0.18538893092E-01  0.73116048409E-01  0.51100000000E-03 0. -1.
</event>
<event>
 8    1  0.1055427E+005  0.1043930E+01  0.7957747E-01            NaN
         13   -1    0    0    0    0  0.00000000000E+00  0.00000000000E+00  0.74505805969E-08  0.10566000000E+00  0.10566000000E+00 0.  1.
     999900   -1    0    0    0    0 -0.00000000000E+00 -0.00000000000E+00 -0.74505805969E-08  0.93827000000E+00  0.93827000000E+00 0. -1.
     999902    2    1    2    0    0  0.76457772016E-02  0.17418993903E-01 -0.15019224971E-01  0.10196925006E+01  0.10194044043E+01 0.  0.
     999903    2    3    3    0    0  0.65227283778E-01 -0.31531296083E-01  0.10515660352E+00  0.12831492038E+00  0.12569262048E-01 0.  0.
         14    1    1    2    0    0 -0.76457772016E-02 -0.17418993903E-01  0.15019224971E-01  0.24237499383E-01  0.00000000000E+00 0.  1.
     999901    1    3    3    0    0 -0.57581506576E-01  0.48950289986E-01 -0.12017582849E+00  0.89137758023E+00  0.88000000000E+00 0. -1.
        -11    1    4    4    0    0  0.29999198491E-01 -0.91725321462E-02  0.52070170103E-01  0.60791866163E-01  0.51100000000E-03 0. -1.
         11    1    4    4    0    0  0.35228085287E-01 -0.22358763937E-01  0.53086433413E-01  0.67523054221E-01  0.51100000000E-03 0.  1.
</event>
<event>
 8    1  0.9956970E+004  0.1043930E+01  0.7957747E-01            NaN
         13   -1    0    0    0    0  0.00000000000E+00  0.00000000000E+00  0.74505805969E-08  0.10566000000E+00  0.10566000000E+00 0.  1.
     999900   -1    0    0    0    0 -0.00000000000E+00 -0.00000000000E+00 -0.74505805969E-08  0.93827000000E+00  0.93827000000E+00 0.  1.
     999902    2    1    2    0    0  0.18753170873E-01 -0.11319427837E-02  0.12384220702E-01  0.10214281860E+01  0.10211803012E+01 0.  0.
     999903    2    3    3    0    0 -0.13332575174E-02 -0.11746875173E+00 -0.54706769391E-01  0.13101315989E+00  0.19259601215E-01 0.  0.
         14    1    1    2    0    0 -0.18753170873E-01  0.11319427837E-02 -0.12384220702E-01  0.22501814030E-01  0.00000000000E+00 0.  1.
     999901    1    3    3    0    0  0.20086428390E-01  0.11633680894E+00  0.67090990093E-01  0.89041502608E+00  0.88000000000E+00 0. -1.
        -11    1    4    4    0    0 -0.94793767292E-02 -0.72994720149E-01 -0.30013958425E-01  0.79493311506E-01  0.51100000000E-03 0.  1.
         11    1    4    4    0    0  0.81461192118E-02 -0.44474031578E-01 -0.24692810966E-01  0.51519848383E-01  0.51100000000E-03 0. -1.
</event>
<event>
 8    1  0.9956970E+004  0.1043930E+01  0.7957747E-01            NaN
         13   -1    0    0    0    0  0.00000000000E+00  0.00000000000E+00  0.74505805969E-08  0.10566000000E+00  0.10566000000E+00 0.  1.
     999900   -1    0    0    0    0 -0.00000000000E+00 -0.00000000000E+00 -0.74505805969E-08  0.93827000000E+00  0.93827000000E+00 0.  1.
     999902    2    1    2    0    0 -0.22069735459E-01  0.90413381844E-02 -0.21883584293E-02  0.10199798866E+01  0.10196986619E+01 0.  0.
     999903    2    3    3    0    0  0.10769095296E-01  0.12767441269E+00 -0.19613052117E-01  0.13124155890E+00  0.20565648537E-01 0.  0.
         14    1    1    2    0    0  0.22069735459E-01 -0.90413381844E-02  0.21883584293E-02  0.23950113403E-01  0.00000000000E+00 0. -1.
     999901    1    3    3    0    0 -0.32838830755E-01 -0.11863307450E+00  0.17424693688E-01  0.88873832770E+00  0.88000000000E+00 0. -1.
        -11    1    4    4    0    0  0.76293235215E-02  0.15158319054E-01 -0.52317486125E-02  0.17765515148E-01  0.51100000000E-03 0. -1.
         11    1    4    4    0    0  0.31397717744E-02  0.11251609363E+00 -0.14381303505E-01  0.11347604375E+00  0.51100000000E-03 0.  1.
</event>
<event>
 8    1  0.9956970E+004  0.1043930E+01  0.7957747E-01            NaN
         13   -1    0    0    0    0  0.00000000000E+00  0.00000000000E+00  0.74505805969E-08  0.10566000000E+00  0.10566000000E+00 0.  1.
     999900   -1    0    0    0    0 -0.00000000000E+00 -0.00000000000E+00 -0.74505805969E-08  0.93827000000E+00  0.93827000000E+00 0.  1.
     999902    2    1    2    0    0 -0.23214989712E-01  0.29045389194E-02  0.72827534093E-03  0.10205226832E+01  0.10202542058E+01 0.  0.
     999903    2    3    3    0    0 -0.60506694287E-01 -0.11489831876E+00  0.11686741089E-01  0.13182235551E+00  0.19438873083E-01 0.  0.
         14    1    1    2    0    0  0.23214989712E-01 -0.29045389194E-02 -0.72827534093E-03  0.23407316776E-01  0.00000000000E+00 0. -1.
     999901    1    3    3    0    0  0.37291704575E-01  0.11780285768E+00 -0.10958465749E-01  0.88870032771E+00  0.88000000000E+00 0. -1.
        -11    1    4    4    0    0 -0.58222249185E-01 -0.10789978809E+00  0.64557166057E-02  0.12277675662E+00  0.51100000000E-03 0.  1.
         11    1    4    4    0    0 -0.22844451029E-02 -0.69985306770E-02  0.52310244837E-02  0.90455988864E-02  0.51100000000E-03 0. -1.
</event>
<event>
 8    1  0.9956970E+004  0.1043930E+01  0.7957747E-01            NaN
         13   -1    0    0    0    0  0.00000000000E+00  0.00000000000E+00  0.74505805969E-08  0.10566000000E+00  0.10566000000E+00 0. -1.
     999900   -1    0    0    0    0 -0.00000000000E+00 -0.00000000000E+00 -0.74505805969E-08  0.93827000000E+00  0.93827000000E+00 0. -1.
     999902    2    1    2    0    0 -0.12521608189E-01 -0.17242071247E-01 -0.98020807767E-02  0.10204745000E+01  0.10202049033E+01 0.  0.
     999903    2    3    3    0    0 -0.12737632081E+00 -0.24861605056E-01  0.18498888196E-01  0.13252708762E+00  0.19452341253E-01 0.  0.
         14    1    1    2    0    0  0.12521608189E-01  0.17242071247E-01  0.98020807767E-02  0.23455499996E-01  0.00000000000E+00 0.  1.
     999901    1    3    3    0    0  0.11485471262E+00  0.76195338093E-02 -0.28300968972E-01  0.88794741238E+00  0.88000000000E+00 0.  1.
        -11    1    4    4    0    0 -0.16734587929E-01 -0.78371664893E-02 -0.24221727422E-02  0.18643917333E-01  0.51100000000E-03 0. -1.
         11    1    4    4    0    0 -0.11064173288E+00 -0.17024438567E-01  0.20921060938E-01  0.11388317029E+00  0.51100000000E-03 0.  1.
</event>
<event>
 8    1  0.9956970E+004  0.1043930E+01  0.7957747E-01            NaN
         13   -1    0    0    0    0  0.00000000000E+00  0.00000000000E+00  0.74505805969E-08  0.10566000000E+00  0.10566000000E+00 0.  1.
     999900   -1    0    0    0    0 -0.00000000000E+00 -0.00000000000E+00 -0.74505805969E-08  0.93827000000E+00  0.93827000000E+00 0.  1.
     999902    2    1    2    0    0  0.23884965572E-02 -0.19282098148E-01 -0.13294186172E-01  0.10203877059E+01  0.10201160869E+01 0.  0.
     999903    2    3    3    0    0 -0.63200589726E-01 -0.11302855257E+00  0.18862224367E-01  0.13239876415E+00  0.20096790841E-01 0.  0.
         14    1    1    2    0    0 -0.23884965572E-02  0.19282098148E-01  0.13294186172E-01  0.23542294084E-01  0.00000000000E+00 0.  1.
     999901    1    3    3    0    0  0.65589086284E-01  0.93746454426E-01 -0.32156410539E-01  0.88798894176E+00  0.88000000000E+00 0. -1.
        -11    1    4    4    0    0 -0.29598405062E-01 -0.41132341246E-01  0.15379737715E-01  0.52959725564E-01  0.51100000000E-03 0. -1.
         11    1    4    4    0    0 -0.33602184664E-01 -0.71896211327E-01  0.34824866521E-02  0.79439038587E-01  0.51100000000E-03 0.  1.
</event>
<event>
 8    1  0.9956970E+004  0.1043930E+01  0.7957747E-01            NaN
         13   -1    0    0    0    0  0.00000000000E+00  0.00000000000E+00  0.74505805969E-08  0.10566000000E+00  0.10566000000E+00 0. -1.
     999900   -1    0    0    0    0 -0.00000000000E+00 -0.00000000000E+00 -0.74505805969E-08  0.93827000000E+00  0.93827000000E+00 0. -1.
     999902    2    1    2    0    0 -0.12928291488E-01 -0.73594162754E-02 -0.18387029772E-01  0.10202786873E+01  0.10200045172E+01 0.  0.
     999903    2    3    3    0    0 -0.41877490458E-01  0.10517464562E+00 -0.63878984686E-01  0.13147528431E+00  0.19743237089E-01 0.  0.
         14    1    1    2    0    0  0.12928291488E-01  0.73594162754E-02  0.18387029772E-01  0.23651312703E-01  0.00000000000E+00 0.  1.
     999901    1    3    3    0    0  0.28949198969E-01 -0.11253406189E+00  0.45491954914E-01  0.88880340299E+00  0.88000000000E+00 0.  1.
        -11    1    4    4    0    0 -0.41806066319E-01  0.99933526136E-01 -0.55859396637E-01  0.12188104915E+00  0.51100000000E-03 0. -1.
         11    1    4    4    0    0 -0.71424138491E-04  0.52411194819E-02 -0.80195880493E-02  0.95942351603E-02  0.51100000000E-03 0.  1.
</event>
<event>
 8    1  0.9956970E+004  0.1043930E+01  0.7957747E-01            NaN
         13   -1    0    0    0    0  0.00000000000E+00  0.00000000000E+00  0.74505805969E-08  0.10566000000E+00  0.10566000000E+00 0. -1.
     999900   -1    0    0    0    0 -0.00000000000E+00 -0.00000000000E+00 -0.74505805969E-08  0.93827000000E+00  0.93827000000E+00 0. -1.
     999902    2    1    2    0    0  0.16107603041E-01 -0.17377814195E-01  0.41724327686E-02  0.10198706464E+01  0.10195868197E+01 0.  0.
     999903    2    3    3    0    0 -0.31833757353E-01  0.35626352633E-01 -0.11754473907E+00  0.12862270912E+00  0.21081046199E-01 0.  0.
         14    1    1    2    0    0 -0.16107603041E-01  0.17377814195E-01 -0.41724327686E-02  0.24059353630E-01  0.00000000000E+00 0. -1.
     999901    1    3    3    0    0  0.47941360393E-01 -0.53004166828E-01  0.12171717184E+00  0.89124793725E+00  0.88000000000E+00 0.  1.
        -11    1    4    4    0    0 -0.53472532105E-02  0.20625315844E-01 -0.40166613600E-01  0.45471031874E-01  0.51100000000E-03 0.  1.
         11    1    4    4    0    0 -0.26486504142E-01  0.15001036789E-01 -0.77378125468E-01  0.83151677243E-01  0.51100000000E-03 0. -1.
</event>
<event>
 8    1  0.9956970E+004  0.1043930E+01  0.7957747E-01            NaN
         13   -1    0    0    0    0  0.00000000000E+00  0.00000000000E+00  0.74505805969E-08  0.10566000000E+00  0.10566000000E+00 0.  1.
     999900   -1    0    0    0    0 -0.00000000000E+00 -0.00000000000E+00 -0.74505805969E-08  0.93827000000E+00  0.93827000000E+00 0.  1.
     999902    2    1    2    0    0  0.96023658913E-02  0.19913172902E-01 -0.80563702065E-02  0.10204003382E+01  0.10201290140E+01 0.  0.
     999903    2    3    3    0    0 -0.17823054616E-01 -0.96966394930E-01 -0.81645669414E-01  0.12920542568E+00  0.17546614159E-01 0.  0.
         14    1    1    2    0    0 -0.96023658913E-02 -0.19913172902E-01  0.80563702065E-02  0.23529661847E-01  0.00000000000E+00 0.  1.
     999901    1    3    3    0    0  0.27425420507E-01  0.11687956783E+00  0.73589299208E-01  0.89119491248E+00  0.88000000000E+00 0. -1.
        -11    1    4    4    0    0 -0.20130890960E-02 -0.54540166604E-01 -0.39786620080E-01  0.67541976276E-01  0.51100000000E-03 0. -1.
         11    1    4    4    0    0 -0.15809965520E-01 -0.42426228326E-01 -0.41859049334E-01  0.61663449399E-01  0.51100000000E-03 0.  1.
</event>
<event>
 8    1  0.9956970E+004  0.1043930E+01  0.7957747E-01            NaN
         13   -1    0    0    0    0  0.00000000000E+00  0.00000000000E+00  0.74505805969E-08  0.10566000000E+00  0.10566000000E+00 0.  1.
     999900   -1    0    0    0    0 -0.00000000000E+00 -0.00000000000E+00 -0.74505805969E-08  0.93827000000E+00  0.93827000000E+00 0. -1.
     999902    2    1    2    0    0 -0.20093704109E-01 -0.70905255316E-02 -0.96207932193E-02  0.10205506895E+01  0.10202828616E+01 0.  0.
     999903    2    3    3    0    0 -0.12683626734E+00  0.21823492461E-02  0.34455280707E-01  0.13295694161E+00  0.19954462949E-01 0.  0.
         14    1    1    2    0    0  0.20093704109E-01  0.70905255316E-02  0.96207932193E-02  0.23379310496E-01  0.00000000000E+00 0.  1.
     999901    1    3    3    0    0  0.10674256323E+00 -0.92728747778E-02 -0.44076073926E-01  0.88759374790E+00  0.88000000000E+00 0. -1.
        -11    1    4    4    0    0 -0.35532755286E-01 -0.34313050011E-02  0.15295009414E-02  0.35734451813E-01  0.51100000000E-03 0. -1.
         11    1    4    4    0    0 -0.91303512055E-01  0.56136542472E-02  0.32925779765E-01  0.97222489794E-01  0.51100000000E-03 0.  1.
</event>
<event>
 8    1  0.9956970E+004  0.1043930E+01  0.7957747E-01            NaN
         13   -1    0    0    0    0  0.00000000000E+00  0.00000000000E+00  0.74505805969E-08  0.10566000000E+00  0.10566000000E+00 0.  1.
     999900   -1    0    0    0    0 -0.00000000000E+00 -0.00000000000E+00 -0.74505805969E-08  0.93827000000E+00  0.93827000000E+00 0. -1.
     999902    2    1    2    0    0 -0.19074587910E-01 -0.14766176350E-01  0.94712268396E-03  0.10197892272E+01  0.10195034532E+01 0.  0.
     999903    2    3    3    0    0  0.53844387389E-01 -0.50699356949E-01 -0.10459691576E+00  0.12976230940E+00  0.20690560819E-01 0.  0.
         14    1    1    2    0    0  0.19074587910E-01  0.14766176350E-01 -0.94712268396E-03  0.24140772757E-01  0.00000000000E+00 0.  1.
     999901    1    3    3    0    0 -0.72918975298E-01  0.35933180599E-01  0.10554403844E+00  0.89002691784E+00  0.88000000000E+00 0.  1.
        -11    1    4    4    0    0  0.10307753639E-01 -0.88339624621E-02 -0.77980004350E-02  0.15663927019E-01  0.51100000000E-03 0. -1.
         11    1    4    4    0    0  0.43536633750E-01 -0.41865394487E-01 -0.96798915326E-01  0.11409838239E+00  0.51100000000E-03 0.  1.
</event>
<event>
 8    1  0.9956970E+004  0.1043930E+01  0.7957747E-01            NaN
         13   -1    0    0    0    0  0.00000000000E+00  0.00000000000E+00  0.74505805969E-08  0.10566000000E+00  0.10566000000E+00 0.  1.
     999900   -1    0    0    0    0 -0.00000000000E+00 -0.00000000000E+00 -0.74505805969E-08  0.93827000000E+00  0.93827000000E+00 0. -1.
     999902    2    1    2    0    0 -0.16959554130E-01  0.10568851313E-01 -0.12503501657E-01  0.10203574599E+01  0.10200851343E+01 0.  0.
     999903    2    3    3    0    0  0.97033373504E-01 -0.49157383679E-01  0.63842413712E-01  0.12772634374E+00  0.20155424899E-01 0.  0.
         14    1    1    2    0    0  0.16959554130E-01 -0.10568851313E-01  0.12503501657E-01  0.23572540127E-01  0.00000000000E+00 0. -1.
     999901    1    3    3    0    0 -0.11399292763E+00  0.59726234992E-01 -0.76345915368E-01  0.89263111613E+00  0.88000000000E+00 0. -1.
        -11    1    4    4    0    0  0.75339449059E-01 -0.44798643477E-01  0.44358647096E-01  0.98239003126E-01  0.51100000000E-03 0. -1.
         11    1    4    4    0    0  0.21693924445E-01 -0.43587402023E-02  0.19483766615E-01  0.29487340614E-01  0.51100000000E-03 0.  1.
</event>
<event>
 8    1  0.9956970E+004  0.1043930E+01  0.7957747E-01            NaN
         13   -1    0    0    0    0  0.00000000000E+00  0.00000000000E+00  0.74505805969E-08  0.10566000000E+00  0.10566000000E+00 0.  1.
     999900   -1    0    0    0    0 -0.00000000000E+00 -0.00000000000E+00 -0.74505805969E-08  0.93827000000E+00  0.93827000000E+00 0. -1.
     999902    2    1    2    0    0  0.10310260633E-01  0.19820478747E-01 -0.74217819642E-02  0.10203877890E+01  0.10201161719E+01 0.  0.
     999903    2    3    3    0    0  0.11224519424E+00 -0.16552326764E-01 -0.64182710354E-01  0.13194222809E+00  0.20405099740E-01 0.  0.
         14    1    1    2    0    0 -0.10310260633E-01 -0.19820478747E-01  0.74217819642E-02  0.23542211018E-01  0.00000000000E+00 0. -1.
     999901    1    3    3    0    0 -0.10193493360E+00  0.36372805511E-01  0.56760928390E-01  0.88844556089E+00  0.88000000000E+00 0.  1.
        -11    1    4    4    0    0  0.62128656826E-01 -0.80424084925E-02 -0.23797001639E-01  0.67016481117E-01  0.51100000000E-03 0.  1.
         11    1    4    4    0    0  0.50116537412E-01 -0.85099182710E-02 -0.40385708715E-01  0.64925746977E-01  0.51100000000E-03 0. -1.
</event>
<event>
 8    1  0.9956970E+004  0.1043930E+01  0.7957747E-01            NaN
         13   -1    0    0    0    0  0.00000000000E+00  0.00000000000E+00  0.74505805969E-08  0.10566000000E+00  0.10566000000E+00 0.  1.
     999900   -1    0    0    0    0 -0.00000000000E+00 -0.00000000000E+00 -0.74505805969E-08  0.93827000000E+00  0.93827000000E+00 0.  1.
     999902    2    1    2    0    0 -0.22454383888E-01 -0.26628383653E-02  0.49077693912E-02  0.10207918008E+01  0.10205295313E+01 0.  0.
     999903    2    3    3    0    0  0.11938722948E+00 -0.95281918350E-02 -0.41253293112E-01  0.12821294146E+00  0.19814821828E-01 0.  0.
         14    1    1    2    0    0  0.22454383888E-01  0.26628383653E-02 -0.49077693912E-02  0.23138199246E-01  0.00000000000E+00 0.  1.
     999901    1    3    3    0    0 -0.14184161337E+00  0.68653534698E-02  0.46161062503E-01  0.89257885929E+00  0.88000000000E+00 0. -1.
        -11    1    4    4    0    0  0.81073990178E-01 -0.25460219069E-02 -0.18833024458E-01  0.83273153190E-01  0.51100000000E-03 0. -1.
         11    1    4    4    0    0  0.38313239300E-01 -0.69821699281E-02 -0.22420268655E-01  0.44939788274E-01  0.51100000000E-03 0.  1.
</event>
<event>
 8    1  0.9956970E+004  0.1043930E+01  0.7957747E-01            NaN
         13   -1    0    0    0    0  0.00000000000E+00  0.00000000000E+00  0.74505805969E-08  0.10566000000E+00  0.10566000000E+00 0. -1.
     999900   -1    0    0    0    0 -0.00000000000E+00 -0.00000000000E+00 -0.74505805969E-08  0.93827000000E+00  0.93827000000E+00 0.  1.
     999902    2    1    2    0    0  0.16545223053E-01 -0.19120010442E-01  0.12812690871E-02  0.10186127953E+01  0.10182981223E+01 0.  0.
     999903    2    3    3    0    0 -0.24601250686E-01 -0.16673329316E-02 -0.12449666272E+00  0.12854666492E+00  0.20416280230E-01 0.  0.
         14    1    1    2    0    0 -0.16545223053E-01  0.19120010442E-01 -0.12812690871E-02  0.25317204736E-01  0.00000000000E+00 0. -1.
     999901    1    3    3    0    0  0.41146473739E-01 -0.17452677511E-01  0.12577793181E+00  0.89006613034E+00  0.88000000000E+00 0. -1.
        -11    1    4    4    0    0 -0.68816999037E-02  0.73326758416E-02 -0.22791803841E-01  0.24916929423E-01  0.51100000000E-03 0. -1.
         11    1    4    4    0    0 -0.17719550782E-01 -0.90000087731E-02 -0.10170485888E+00  0.10362973550E+00  0.51100000000E-03 0.  1.
</event>
<event>
 8    1  0.9956970E+004  0.1043930E+01  0.7957747E-01            NaN
         13   -1    0    0    0    0  0.00000000000E+00  0.00000000000E+00  0.74505805969E-08  0.10566000000E+00  0.10566000000E+00 0. -1.
     999900   -1    0    0    0    0 -0.00000000000E+00 -0.00000000000E+00 -0.74505805969E-08  0.93827000000E+00  0.93827000000E+00 0. -1.
     999902    2    1    2    0    0  0.17343304516E-01 -0.90158210619E-02  0.15388737713E-01  0.10190525305E+01  0.10187488265E+01 0.  0.
     999903    2    3    3    0    0 -0.61291015064E-01  0.60930604371E-01  0.93968668677E-01  0.12930500214E+00  0.20507213598E-01 0.  0.
         14    1    1    2    0    0 -0.17343304516E-01  0.90158210619E-02 -0.15388737713E-01  0.24877469512E-01  0.00000000000E+00 0.  1.
     999901    1    3    3    0    0  0.78634319579E-01 -0.69946425433E-01 -0.78579930964E-01  0.88974752835E+00  0.88000000000E+00 0.  1.
        -11    1    4    4    0    0 -0.26298788800E-01  0.34305316127E-01  0.34299779716E-01  0.55183484998E-01  0.51100000000E-03 0.  1.
         11    1    4    4    0    0 -0.34992226263E-01  0.26625288243E-01  0.59668888961E-01  0.74121517144E-01  0.51100000000E-03 0. -1.
</event>
<event>
 8    1  0.9956970E+004  0.1043930E+01  0.7957747E-01            NaN
         13   -1    0    0    0    0  0.00000000000E+00  0.00000000000E+00  0.74505805969E-08  0.10566000000E+00  0.10566000000E+00 0. -1.
     999900   -1    0    0    0    0 -0.00000000000E+00 -0.00000000000E+00 -0.74505805969E-08  0.93827000000E+00  0.93827000000E+00 0.  1.
     999902    2    1    2    0    0  0.18870082420E-01  0.13254265336E-01 -0.51940819917E-02  0.10202924441E+01  0.10200185966E+01 0.  0.
     999903    2    3    3    0    0  0.44255921747E-01  0.75980639799E-01 -0.97230241530E-01  0.13290882158E+00  0.21894993770E-01 0.  0.
         14    1    1    2    0    0 -0.18870082420E-01 -0.13254265336E-01  0.51940819917E-02  0.23637555877E-01  0.00000000000E+00 0. -1.
     999901    1    3    3    0    0 -0.25385839327E-01 -0.62726374463E-01  0.92036159539E-01  0.88738362254E+00  0.88000000000E+00 0. -1.
        -11    1    4    4    0    0  0.16688328273E-01  0.18810054388E-01 -0.15951840126E-01  0.29783229694E-01  0.51100000000E-03 0.  1.
         11    1    4    4    0    0  0.27567593473E-01  0.57170585412E-01 -0.81278401405E-01  0.10312559189E+00  0.51100000000E-03 0. -1.
</event>
<event>
 8    1  0.9956970E+004  0.1043930E+01  0.7957747E-01            NaN
         13   -1    0    0    0    0  0.00000000000E+00  0.00000000000E+00  0.74505805969E-08  0.10566000000E+00  0.10566000000E+00 0.  1.
     999900   -1    0    0    0    0 -0.00000000000E+00 -0.00000000000E+00 -0.74505805969E-08  0.93827000000E+00  0.93827000000E+00 0.  1.
     999902    2    1    2    0    0 -0.16534725160E-01 -0.11840215105E-02 -0.14809660078E-01  0.10217010757E+01  0.10214592322E+01 0.  0.
     999903    2    3    3    0    0  0.53698026913E-01  0.30476851003E-01 -0.11391111969E+00  0.13279379731E+00  0.29088363213E-01 0.  0.
         14    1    1    2    0    0  0.16534725160E-01  0.11840215105E-02  0.14809660078E-01  0.22228924280E-01  0.00000000000E+00 0.  1.
     999901    1    3    3    0    0 -0.70232752072E-01 -0.31660872514E-01  0.99101459609E-01  0.88890727841E+00  0.88000000000E+00 0. -1.
        -11    1    4    4    0    0  0.19068634407E-01  0.26383403503E-01 -0.65310469699E-01  0.72975443622E-01  0.51100000000E-03 0.  1.
         11    1    4    4    0    0  0.34629392506E-01  0.40934475009E-02 -0.48600649988E-01  0.59818353689E-01  0.51100000000E-03 0. -1.
</event>
<event>
 8    1  0.9956970E+004  0.1043930E+01  0.7957747E-01            NaN
         13   -1    0    0    0    0  0.00000000000E+00  0.00000000000E+00  0.74505805969E-08  0.10566000000E+00  0.10566000000E+00 0. -1.
     999900   -1    0    0    0    0 -0.00000000000E+00 -0.00000000000E+00 -0.74505805969E-08  0.93827000000E+00  0.93827000000E+00 0. -1.
     999902    2    1    2    0    0  0.17742773258E-01  0.14270227390E-02  0.15242757920E-01  0.10204953234E+01  0.10202262107E+01 0.  0.
     999903    2    3    3    0    0  0.11810866974E+00 -0.40693739362E-01 -0.38545525140E-01  0.13215943472E+00  0.19357695832E-01 0.  0.
         14    1    1    2    0    0 -0.17742773258E-01 -0.14270227390E-02 -0.15242757920E-01  0.23434676567E-01  0.00000000000E+00 0.  1.
     999901    1    3    3    0    0 -0.10036589648E+00  0.42120762100E-01  0.53788283059E-01  0.88833588871E+00  0.88000000000E+00 0.  1.
        -11    1    4    4    0    0  0.93128618412E-01 -0.37363164325E-01 -0.24456135559E-01  0.10328266700E+00  0.51100000000E-03 0.  1.
         11    1    4    4    0    0  0.24980051324E-01 -0.33305750370E-02 -0.14089389580E-01  0.28876767721E-01  0.51100000000E-03 0. -1.
</event>
<event>
 8    1  0.9956970E+004  0.1043930E+01  0.7957747E-01            NaN
         13   -1    0    0    0    0  0.00000000000E+00  0.00000000000E+00  0.74505805969E-08  0.10566000000E+00  0.10566000000E+00 0. -1.
     999900   -1    0    0    0    0 -0.00000000000E+00 -0.00000000000E+00 -0.74505805969E-08  0.93827000000E+00  0.93827000000E+00 0. -1.
     999902    2    1    2    0    0  0.16442133727E-01 -0.13263414651E-01 -0.98413622270E-02  0.10206251863E+01  0.10203590822E+01 0.  0.
     999903    2    3    3    0    0  0.57962261761E-01  0.11362363331E-01 -0.11731399479E+00  0.13277344379E+00  0.19429022473E-01 0.  0.
         14    1    1    2    0    0 -0.16442133727E-01  0.13263414651E-01  0.98413622270E-02  0.23304813670E-01  0.00000000000E+00 0.  1.
     999901    1    3    3    0    0 -0.41520128035E-01 -0.24625777982E-01  0.10747263256E+00  0.88785174254E+00  0.88000000000E+00 0.  1.
        -11    1    4    4    0    0  0.22463148606E-01  0.40615034145E-03 -0.63664122959E-01  0.67513996153E-01  0.51100000000E-03 0. -1.
         11    1    4    4    0    0  0.35499113155E-01  0.10956212989E-01 -0.53649871832E-01  0.65259447642E-01  0.51100000000E-03 0.  1.
</event>
<event>
 8    1  0.9956970E+004  0.1043930E+01  0.7957747E-01            NaN
         13   -1    0    0    0    0  0.00000000000E+00  0.00000000000E+00  0.74505805969E-08  0.10566000000E+00  0.10566000000E+00 0.  1.
     999900   -1    0    0    0    0 -0.00000000000E+00 -0.00000000000E+00 -0.74505805969E-08  0.93827000000E+00  0.93827000000E+00 0.  1.
     999902    2    1    2    0    0  0.15215749930E-01 -0.17955723143E-01  0.52127306982E-02  0.10198239924E+01  0.10195390507E+01 0.  0.
     999903    2    3    3    0    0 -0.39675422354E-01  0.10611681793E+00 -0.54386475925E-01  0.12743444651E+00  0.21136016821E-01 0.  0.
         14    1    1    2    0    0 -0.15215749930E-01  0.17955723143E-01 -0.52127306982E-02  0.24106007568E-01  0.00000000000E+00 0. -1.
     999901    1    3    3    0    0  0.54891172284E-01 -0.12407254107E+00  0.59599206624E-01  0.89238954592E+00  0.88000000000E+00 0. -1.
        -11    1    4    4    0    0 -0.38212546729E-01  0.75792312507E-01 -0.39989819228E-01  0.93830272970E-01  0.51100000000E-03 0. -1.
         11    1    4    4    0    0 -0.14628756252E-02  0.30324505423E-01 -0.14396656697E-01  0.33604173540E-01  0.51100000000E-03 0.  1.
</event>
<event>
 8    1  0.9956970E+004  0.1043930E+01  0.7957747E-01            NaN
         13   -1    0    0    0    0  0.00000000000E+00  0.00000000000E+00  0.74505805969E-08  0.10566000000E+00  0.10566000000E+00 0.  1.
     999900   -1    0    0    0    0 -0.00000000000E+00 -0.00000000000E+00 -0.74505805969E-08  0.93827000000E+00  0.93827000000E+00 0.  1.
     999902    2    1    2    0    0  0.33418805360E-02 -0.22758963792E-01 -0.64970700147E-02  0.10200270605E+01  0.10197469557E+01 0.  0.
     999903    2    3    3    0    0  0.42518234447E-01  0.73273788694E-01 -0.95730808428E-01  0.12945435918E+00  0.20425353303E-01 0.  0.
         14    1    1    2    0    0 -0.33418805360E-02  0.22758963792E-01  0.64970700147E-02  0.23902939509E-01  0.00000000000E+00 0.  1.
     999901    1    3    3    0    0 -0.39176353911E-01 -0.96032752486E-01  0.89233738413E-01  0.89057270131E+00  0.88000000000E+00 0.  1.
        -11    1    4    4    0    0  0.24846422473E-01  0.55696430080E-01 -0.57550851043E-01  0.83855820371E-01  0.51100000000E-03 0.  1.
         11    1    4    4    0    0  0.17671811974E-01  0.17577358614E-01 -0.38179957385E-01  0.45598538806E-01  0.51100000000E-03 0. -1.
</event>
<event>
 8    1  0.9956970E+004  0.1043930E+01  0.7957747E-01            NaN
         13   -1    0    0    0    0  0.00000000000E+00  0.00000000000E+00  0.74505805969E-08  0.10566000000E+00  0.10566000000E+00 0.  1.
     999900   -1    0    0    0    0 -0.00000000000E+00 -0.00000000000E+00 -0.74505805969E-08  0.93827000000E+00  0.93827000000E+00 0.  1.
     999902    2    1    2    0    0 -0.32255392222E-02 -0.22251040912E-01  0.56778830266E-02  0.10207405351E+01  0.10204770888E+01 0.  0.
     999903    2    3    3    0    0  0.12275506818E+00  0.31722454064E-01 -0.19598621013E-01  0.12977299742E+00  0.19539807010E-01 0.  0.
         14    1    1    2    0    0  0.32255392222E-02  0.22251040912E-01 -0.56778830266E-02  0.23189464863E-01  0.00000000000E+00 0.  1.
     999901    1    3    3    0    0 -0.12598060741E+00 -0.53973494977E-01  0.25276504040E-01  0.89096753771E+00  0.88000000000E+00 0.  1.
        -11    1    4    4    0    0  0.99166152880E-01  0.32308697865E-01 -0.19849809499E-01  0.10616992933E+00  0.51100000000E-03 0. -1.
         11    1    4    4    0    0  0.23588915304E-01 -0.58624380040E-03  0.25118848569E-03  0.23603068099E-01  0.51100000000E-03 0.  1.
</event>
<event>
 8    1  0.9956970E+004  0.1043930E+01  0.7957747E-01            NaN
         13   -1    0    0    0    0  0.00000000000E+00  0.00000000000E+00  0.74505805969E-08  0.10566000000E+00  0.10566000000E+00 0. -1.
     999900   -1    0    0    0    0 -0.00000000000E+00 -0.00000000000E+00 -0.74505805969E-08  0.93827000000E+00  0.93827000000E+00 0. -1.
     999902    2    1    2    0    0  0.14815053495E-01 -0.97411690839E-02 -0.12883898571E-01  0.10220126318E+01  0.10217775925E+01 0.  0.
     999903    2    3    3    0    0  0.51447833436E-01 -0.70254764645E-01  0.97266909973E-01  0.13232894847E+00  0.21621454773E-01 0.  0.
         14    1    1    2    0    0 -0.14815053495E-01  0.97411690839E-02  0.12883898571E-01  0.21917368172E-01  0.00000000000E+00 0. -1.
     999901    1    3    3    0    0 -0.36632779941E-01  0.60513595561E-01 -0.11015080854E+00  0.88968368336E+00  0.88000000000E+00 0. -1.
        -11    1    4    4    0    0  0.47647860782E-01 -0.55366746076E-01  0.70845247242E-01  0.10176003826E+00  0.51100000000E-03 0. -1.
         11    1    4    4    0    0  0.37999726535E-02 -0.14888018569E-01  0.26421662731E-01  0.30568910212E-01  0.51100000000E-03 0.  1.
</event>
<event>
 8    1  0.9956970E+004  0.1043930E+01  0.7957747E-01            NaN
         13   -1    0    0    0    0  0.00000000000E+00  0.00000000000E+00  0.74505805969E-08  0.10566000000E+00  0.10566000000E+00 0.  1.
     999900   -1    0    0    0    0 -0.00000000000E+00 -0.00000000000E+00 -0.74505805969E-08  0.93827000000E+00  0.93827000000E+00 0. -1.
     999902    2    1    2    0    0 -0.10876257617E-01 -0.18342642263E-01 -0.83314797355E-02  0.10210354797E+01  0.10207787673E+01 0.  0.
     999903    2    3    3    0    0 -0.12068598327E+00 -0.24294343095E-01 -0.49006526005E-01  0.13325844802E+00  0.14172251536E-01 0.  0.
         14    1    1    2    0    0  0.10876257617E-01  0.18342642263E-01  0.83314797355E-02  0.22894520294E-01  0.00000000000E+00 0. -1.
     999901    1    3    3    0    0  0.10980972566E+00  0.59517008325E-02  0.40675046270E-01  0.88777703168E+00  0.88000000000E+00 0. -1.
        -11    1    4    4    0    0 -0.95375981503E-01 -0.13223083375E-01 -0.38175088688E-01  0.10358101322E+00  0.51100000000E-03 0.  1.
         11    1    4    4    0    0 -0.25310001771E-01 -0.11071259720E-01 -0.10831437317E-01  0.29677434808E-01  0.51100000000E-03 0. -1.
</event>
<event>
 8    1  0.9956970E+004  0.1043930E+01  0.7957747E-01            NaN
         13   -1    0    0    0    0  0.00000000000E+00  0.00000000000E+00  0.74505805969E-08  0.10566000000E+00  0.10566000000E+00 0. -1.
     999900   -1    0    0    0    0 -0.00000000000E+00 -0.00000000000E+00 -0.74505805969E-08  0.93827000000E+00  0.93827000000E+00 0. -1.
     999902    2    1    2    0    0  0.23044216056E-01 -0.35378561578E-02  0.66288228367E-03  0.10206063696E+01  0.10203398307E+01 0.  0.
     999903    2    3    3    0    0 -0.88900321002E-01  0.26543579373E-01  0.87006129037E-01  0.12881512255E+00  0.20382360700E-01 0.  0.
         14    1    1    2    0    0 -0.23044216056E-01  0.35378561578E-02 -0.66288228367E-03  0.23323630351E-01  0.00000000000E+00 0. -1.
     999901    1    3    3    0    0  0.11194453706E+00 -0.30081435531E-01 -0.86343246753E-01  0.89179124710E+00  0.88000000000E+00 0. -1.
        -11    1    4    4    0    0 -0.42779444553E-01  0.83461758529E-02  0.53326578099E-01  0.68874702035E-01  0.51100000000E-03 0. -1.
         11    1    4    4    0    0 -0.46120876448E-01  0.18197403520E-01  0.33679550937E-01  0.59940420515E-01  0.51100000000E-03 0.  1.
</event>
<event>
 8    1  0.9956970E+004  0.1043930E+01  0.7957747E-01            NaN
         13   -1    0    0    0    0  0.00000000000E+00  0.00000000000E+00  0.74505805969E-08  0.10566000000E+00  0.10566000000E+00 0. -1.
     999900   -1    0    0    0    0 -0.00000000000E+00 -0.00000000000E+00 -0.74505805969E-08  0.93827000000E+00  0.93827000000E+00 0. -1.
     999902    2    1    2    0    0  0.14339061676E-01 -0.40853980582E-03  0.19717480988E-01  0.10195465086E+01  0.10192548889E+01 0.  0.
     999903    2    3    3    0    0  0.36675777693E-01 -0.70087848398E-01  0.10438136730E+00  0.13246020586E+00  0.19819614901E-01 0.  0.
         14    1    1    2    0    0 -0.14339061676E-01  0.40853980582E-03 -0.19717480988E-01  0.24383491363E-01  0.00000000000E+00 0.  1.
     999901    1    3    3    0    0 -0.22336716016E-01  0.69679308592E-01 -0.84663886311E-01  0.88708630278E+00  0.88000000000E+00 0. -1.
        -11    1    4    4    0    0  0.70474150371E-02 -0.34094056791E-01  0.41275316929E-01  0.53999848850E-01  0.51100000000E-03 0.  1.
         11    1    4    4    0    0  0.29628362655E-01 -0.35993791607E-01  0.63106050371E-01  0.78460357011E-01  0.51100000000E-03 0. -1.
</event>
<event>
 8    1  0.9956970E+004  0.1043930E+01  0.7957747E-01            NaN
         13   -1    0    0    0    0  0.00000000000E+00  0.00000000000E+00  0.74505805969E-08  0.10566000000E+00  0.10566000000E+00 0.  1.
     999900   -1    0    0    0    0 -0.00000000000E+00 -0.00000000000E+00 -0.74505805969E-08  0.93827000000E+00  0.93827000000E+00 0. -1.
     999902    2    1    2    0    0 -0.72435524142E-02  0.15615678499E-02  0.22361737407E-01  0.10203725204E+01  0.10201005468E+01 0.  0.
     999903    2    3    3    0    0 -0.39473749346E-02  0.12031286899E+00 -0.43430459954E-01  0.12995612929E+00  0.22619073231E-01 0.  0.
         14    1    1    2    0    0  0.72435524142E-02 -0.15615678499E-02 -0.22361737407E-01  0.23557479610E-01  0.00000000000E+00 0. -1.
     999901    1    3    3    0    0 -0.32961774796E-02 -0.11875130114E+00  0.65792197361E-01  0.89041639110E+00  0.88000000000E+00 0. -1.
        -11    1    4    4    0    0 -0.29258360194E-02  0.83352720272E-01 -0.18716425656E-01  0.85479835070E-01  0.51100000000E-03 0. -1.
         11    1    4    4    0    0 -0.10215389152E-02  0.36960148719E-01 -0.24714034298E-01  0.44476294218E-01  0.51100000000E-03 0.  1.
</event>
<event>
 8    1  0.9956970E+004  0.1043930E+01  0.7957747E-01            NaN
         13   -1    0    0    0    0  0.00000000000E+00  0.00000000000E+00  0.74505805969E-08  0.10566000000E+00  0.10566000000E+00 0. -1.
     999900   -1    0    0    0    0 -0.00000000000E+00 -0.00000000000E+00 -0.74505805969E-08  0.93827000000E+00  0.93827000000E+00 0.  1.
     999902    2    1    2    0    0 -0.22792064220E-01  0.79711351143E-02  0.10186959176E-02  0.10197627716E+01  0.10194763634E+01 0.  0.
     999903    2    3    3    0    0  0.52867740592E-01  0.95677788089E-01 -0.66621399217E-01  0.12959871622E+00  0.20203447343E-01 0.  0.
         14    1    1    2    0    0  0.22792064220E-01 -0.79711351143E-02 -0.10186959176E-02  0.24167228384E-01  0.00000000000E+00 0. -1.
     999901    1    3    3    0    0 -0.75659804812E-01 -0.87706652975E-01  0.67640095134E-01  0.89016405539E+00  0.88000000000E+00 0. -1.
        -11    1    4    4    0    0  0.12867748680E-01  0.42519133812E-01 -0.22813063620E-01  0.49941492659E-01  0.51100000000E-03 0.  1.
         11    1    4    4    0    0  0.39999991913E-01  0.53158654277E-01 -0.43808335597E-01  0.79657223566E-01  0.51100000000E-03 0. -1.
</event>
<event>
 8    1  0.9956970E+004  0.1043930E+01  0.7957747E-01            NaN
         13   -1    0    0    0    0  0.00000000000E+00  0.00000000000E+00  0.74505805969E-08  0.10566000000E+00  0.10566000000E+00 0.  1.
     999900   -1    0    0    0    0 -0.00000000000E+00 -0.00000000000E+00 -0.74505805969E-08  0.93827000000E+00  0.93827000000E+00 0.  1.
     999902    2    1    2    0    0  0.43958377205E-02 -0.16884162683E-01  0.14826528735E-01  0.10210340551E+01  0.10207773104E+01 0.  0.
     999903    2    3    3    0    0  0.12339855584E+00 -0.12112961056E-01 -0.38354698294E-01  0.13142028823E+00  0.20646594585E-01 0.  0.
         14    1    1    2    0    0 -0.43958377205E-02  0.16884162683E-01 -0.14826528735E-01  0.22895944905E-01  0.00000000000E+00 0. -1.
     999901    1    3    3    0    0 -0.11900271812E+00 -0.47712016269E-02  0.53181227029E-01  0.88961376686E+00  0.88000000000E+00 0. -1.
        -11    1    4    4    0    0  0.30922024772E-01 -0.75060666229E-02 -0.18059695784E-02  0.31875308614E-01  0.51100000000E-03 0.  1.
         11    1    4    4    0    0  0.92476531071E-01 -0.46068944330E-02 -0.36548728716E-01  0.99544979617E-01  0.51100000000E-03 0. -1.
</event>
<event>
 8    1  0.9956970E+004  0.1043930E+01  0.7957747E-01            NaN
         13   -1    0    0    0    0  0.00000000000E+00  0.00000000000E+00  0.74505805969E-08  0.10566000000E+00  0.10566000000E+00 0. -1.
     999900   -1    0    0    0    0 -0.00000000000E+00 -0.00000000000E+00 -0.74505805969E-08  0.93827000000E+00  0.93827000000E+00 0. -1.
     999902    2    1    2    0    0  0.61472170020E-02 -0.15378151246E-01 -0.16433497871E-01  0.10205989978E+01  0.10203322883E+01 0.  0.
     999903    2    3    3    0    0 -0.12349417517E+00  0.31884895953E-01  0.94279763906E-02  0.12947077914E+00  0.20157827817E-01 0.  0.
         14    1    1    2    0    0 -0.61472170020E-02  0.15378151246E-01  0.16433497871E-01  0.23331002226E-01  0.00000000000E+00 0. -1.
     999901    1    3    3    0    0  0.12964139217E+00 -0.47263047199E-01 -0.25861474261E-01  0.89112821863E+00  0.88000000000E+00 0. -1.
        -11    1    4    4    0    0 -0.65754745982E-01  0.18528765729E-01 -0.49140556400E-02  0.68493874489E-01  0.51100000000E-03 0. -1.
         11    1    4    4    0    0 -0.57739429184E-01  0.13356130224E-01  0.14342032031E-01  0.60976904651E-01  0.51100000000E-03 0.  1.
</event>
<event>
 8    1  0.9956970E+004  0.1043930E+01  0.7957747E-01            NaN
         13   -1    0    0    0    0  0.00000000000E+00  0.00000000000E+00  0.74505805969E-08  0.10566000000E+00  0.10566000000E+00 0. -1.
     999900   -1    0    0    0    0 -0.00000000000E+00 -0.00000000000E+00 -0.74505805969E-08  0.93827000000E+00  0.93827000000E+00 0.  1.
     999902    2    1    2    0    0  0.12526298584E-01  0.47927527145E-02  0.17087152797E-01  0.10222079047E+01  0.10219770795E+01 0.  0.
     999903    2    3    3    0    0 -0.11445193058E+00 -0.57878052336E-01  0.17420493591E-01  0.13088797804E+00  0.19469870178E-01 0.  0.
         14    1    1    2    0    0 -0.12526298584E-01 -0.47927527145E-02 -0.17087152797E-01  0.21722095329E-01  0.00000000000E+00 0.  1.
     999901    1    3    3    0    0  0.12697822916E+00  0.62670805050E-01 -0.33334079455E-03  0.89131992663E+00  0.88000000000E+00 0. -1.
        -11    1    4    4    0    0 -0.45113918230E-01 -0.33538453894E-01  0.86553720589E-02  0.56879434721E-01  0.51100000000E-03 0. -1.
         11    1    4    4    0    0 -0.69338012345E-01 -0.24339598442E-01  0.87651215323E-02  0.74008543323E-01  0.51100000000E-03 0.  1.
</event>
<event>
 7    1  0.9956970E+004  0.1043930E+01  0.7957747E-01            NaN
         13   -1    0    0    0    0  0.00000000000E+00  0.00000000000E+00  0.74505805969E-08  0.10566000000E+00  0.10566000000E+00 0.  1.
     999900   -1    0    0    0    0 -0.00000000000E+00 -0.00000000000E+00 -0.74505805969E-08  0.93827000000E+00  0.93827000000E+00 0. -1.
     999902    2    1    2    0    0  0.57272526969E-02  0.13415032499E-01  0.17743542910E-01  0.10209605021E+01  0.10207020863E+01 0.  0.
         14    1    1    2    0    0 -0.57272526969E-02 -0.13415032499E-01 -0.17743542910E-01  0.22969497936E-01  0.00000000000E+00 0. -1.
     999901    1    3    3    0    0 -0.15148825790E-01 -0.36081705204E-01 -0.10486990439E+00  0.88709022834E+00  0.88000000000E+00 0. -1.
        -11    1    3    3    0    0  0.10076083697E-01  0.23463377649E-01  0.58963581603E-01  0.64257471393E-01  0.51100000000E-03 0.  1.
         11    1    3    3    0    0  0.10799994789E-01  0.26033360054E-01  0.63649865702E-01  0.69612802329E-01  0.51100000000E-03 0. -1.
</event>
<event>
 8    1  0.9956970E+004  0.1043930E+01  0.7957747E-01            NaN
         13   -1    0    0    0    0  0.00000000000E+00  0.00000000000E+00  0.74505805969E-08  0.10566000000E+00  0.10566000000E+00 0. -1.
     999900   -1    0    0    0    0 -0.00000000000E+00 -0.00000000000E+00 -0.74505805969E-08  0.93827000000E+00  0.93827000000E+00 0. -1.
     999902    2    1    2    0    0 -0.16111887478E-01  0.16031548289E-01 -0.57865812816E-02  0.10204760455E+01  0.10202064847E+01 0.  0.
     999903    2    3    3    0    0  0.44362745055E-01 -0.92111883654E-01 -0.76133576578E-01  0.12901607287E+00  0.19904103047E-01 0.  0.
         14    1    1    2    0    0  0.16111887478E-01 -0.16031548289E-01  0.57865812816E-02  0.23453954498E-01  0.00000000000E+00 0.  1.
     999901    1    3    3    0    0 -0.60474632532E-01  0.10814343194E+00  0.70346995296E-01  0.89145997263E+00  0.88000000000E+00 0.  1.
        -11    1    4    4    0    0  0.24804225262E-02 -0.24053705803E-01 -0.15913341797E-01  0.28952181730E-01  0.51100000000E-03 0.  1.
         11    1    4    4    0    0  0.41882322528E-01 -0.68058177850E-01 -0.60220234781E-01  0.10006389114E+00  0.51100000000E-03 0. -1.
</event>
<event>
 8    1  0.9956970E+004  0.1043930E+01  0.7957747E-01            NaN
         13   -1    0    0    0    0  0.00000000000E+00  0.00000000000E+00  0.74505805969E-08  0.10566000000E+00  0.10566000000E+00 0. -1.
     999900   -1    0    0    0    0 -0.00000000000E+00 -0.00000000000E+00 -0.74505805969E-08  0.93827000000E+00  0.93827000000E+00 0. -1.
     999902    2    1    2    0    0 -0.37287117865E-02  0.15629749045E-01  0.16816285920E-01  0.10206710271E+01  0.10204059809E+01 0.  0.
     999903    2    3    3    0    0 -0.12920070731E+00 -0.10153754371E-01 -0.21925843321E-02  0.13119401908E+00  0.20276629875E-01 0.  0.
         14    1    1    2    0    0  0.37287117865E-02 -0.15629749045E-01 -0.16816285920E-01  0.23258972869E-01  0.00000000000E+00 0. -1.
     999901    1    3    3    0    0  0.12547199552E+00  0.25783503416E-01  0.19008870252E-01  0.88947700805E+00  0.88000000000E+00 0. -1.
        -11    1    4    4    0    0 -0.49668658994E-01 -0.61046935342E-03 -0.10130436583E-01  0.50697487368E-01  0.51100000000E-03 0. -1.
         11    1    4    4    0    0 -0.79532048313E-01 -0.95432850178E-02  0.79378522507E-02  0.80496531708E-01  0.51100000000E-03 0.  1.
</event>
<event>
 8    1  0.9956970E+004  0.1043930E+01  0.7957747E-01            NaN
         13   -1    0    0    0    0  0.00000000000E+00  0.00000000000E+00  0.74505805969E-08  0.10566000000E+00  0.10566000000E+00 0.  1.
     999900   -1    0    0    0    0 -0.00000000000E+00 -0.00000000000E+00 -0.74505805969E-08  0.93827000000E+00  0.93827000000E+00 0. -1.
     999902    2    1    2    0    0  0.14900670064E-01  0.64793023673E-02 -0.17179678397E-01  0.10202835906E+01  0.10200095355E+01 0.  0.
     999903    2    3    3    0    0  0.74828738358E-01 -0.64033041958E-01 -0.86032584463E-01  0.13275664073E+00  0.22872462106E-01 0.  0.
         14    1    1    2    0    0 -0.14900670064E-01 -0.64793023673E-02  0.17179678397E-01  0.23646409396E-01  0.00000000000E+00 0. -1.
     999901    1    3    3    0    0 -0.59928068295E-01  0.70512344325E-01  0.68852906066E-01  0.88752694987E+00  0.88000000000E+00 0.  1.
        -11    1    4    4    0    0  0.34664736275E-01 -0.34227983769E-01 -0.56768405360E-01  0.74807163976E-01  0.51100000000E-03 0.  1.
         11    1    4    4    0    0  0.40164002083E-01 -0.29805058189E-01 -0.29264179103E-01  0.57949476758E-01  0.51100000000E-03 0. -1.
</event>
<event>
 8    1  0.9956970E+004  0.1043930E+01  0.7957747E-01            NaN
         13   -1    0    0    0    0  0.00000000000E+00  0.00000000000E+00  0.74505805969E-08  0.10566000000E+00  0.10566000000E+00 0.  1.
     999900   -1    0    0    0    0 -0.00000000000E+00 -0.00000000000E+00 -0.74505805969E-08  0.93827000000E+00  0.93827000000E+00 0. -1.
     999902    2    1    2    0    0 -0.22556630677E-01  0.13904130686E-02  0.17025953356E-03  0.10213299154E+01  0.10210798364E+01 0.  0.
     999903    2    3    3    0    0  0.29035775718E-01 -0.11381799988E+00 -0.53766901112E-01  0.13068746631E+00  0.19766659440E-01 0.  0.
         14    1    1    2    0    0  0.22556630677E-01 -0.13904130686E-02 -0.17025953356E-03  0.22600084608E-01  0.00000000000E+00 0.  1.
     999901    1    3    3    0    0 -0.51592406395E-01  0.11520841295E+00  0.53937160646E-01  0.89064244908E+00  0.88000000000E+00 0.  1.
        -11    1    4    4    0    0  0.15727048707E-01 -0.93158352486E-01 -0.41024907879E-01  0.10300059653E+00  0.51100000000E-03 0. -1.
         11    1    4    4    0    0  0.13308727011E-01 -0.20659647399E-01 -0.12741993233E-01  0.27686869773E-01  0.51100000000E-03 0.  1.
</event>
<event>
 8    1  0.9956970E+004  0.1043930E+01  0.7957747E-01            NaN
         13   -1    0    0    0    0  0.00000000000E+00  0.00000000000E+00  0.74505805969E-08  0.10566000000E+00  0.10566000000E+00 0. -1.
     999900   -1    0    0    0    0 -0.00000000000E+00 -0.00000000000E+00 -0.74505805969E-08  0.93827000000E+00  0.93827000000E+00 0.  1.
     999902    2    1    2    0    0  0.11563643665E-01  0.13291239676E-01 -0.15516134889E-01  0.10204539409E+01  0.10201838659E+01 0.  0.
     999903    2    3    3    0    0  0.77341110793E-02  0.56008611037E-02 -0.13084338091E+00  0.13288750348E+00  0.21163934747E-01 0.  0.
         14    1    1    2    0    0 -0.11563643665E-01 -0.13291239676E-01  0.15516134889E-01  0.23476059057E-01  0.00000000000E+00 0. -1.
     999901    1    3    3    0    0  0.38295325853E-02  0.76903785727E-02  0.11532724602E+00  0.88756643747E+00  0.88000000000E+00 0. -1.
        -11    1    4    4    0    0  0.66706282352E-02  0.64976988196E-02 -0.20362131727E-01  0.22396314440E-01  0.51100000000E-03 0.  1.
         11    1    4    4    0    0  0.10634828441E-02 -0.89683771592E-03 -0.11048124918E+00  0.11049118904E+00  0.51100000000E-03 0. -1.
</event>
<event>
 8    1  0.9956970E+004  0.1043930E+01  0.7957747E-01            NaN
         13   -1    0    0    0    0  0.00000000000E+00  0.00000000000E+00  0.74505805969E-08  0.10566000000E+00  0.10566000000E+00 0. -1.
     999900   -1    0    0    0    0 -0.00000000000E+00 -0.00000000000E+00 -0.74505805969E-08  0.93827000000E+00  0.93827000000E+00 0.  1.
     999902    2    1    2    0    0 -0.16300027468E-01  0.17210491640E-01  0.98909684360E-02  0.10182449231E+01  0.10179209204E+01 0.  0.
     999903    2    3    3    0    0  0.44463363449E-01  0.18152787383E-01  0.11842035088E+00  0.12949765620E+00  0.20970195010E-01 0.  0.
         14    1    1    2    0    0  0.16300027468E-01 -0.17210491640E-01 -0.98909684360E-02  0.25685076884E-01  0.00000000000E+00 0.  1.
     999901    1    3    3    0    0 -0.60763390917E-01 -0.94229574279E-03 -0.10852938245E+00  0.88874726692E+00  0.88000000000E+00 0.  1.
        -11    1    4    4    0    0  0.28956941530E-01  0.17873794670E-01  0.59271865587E-01  0.68347583496E-01  0.51100000000E-03 0. -1.
         11    1    4    4    0    0  0.15506421919E-01  0.27899271293E-03  0.59148485297E-01  0.61150072703E-01  0.51100000000E-03 0.  1.
</event>
<event>
 8    1  0.9956970E+004  0.1043930E+01  0.7957747E-01            NaN
         13   -1    0    0    0    0  0.00000000000E+00  0.00000000000E+00  0.74505805969E-08  0.10566000000E+00  0.10566000000E+00 0.  1.
     999900   -1    0    0    0    0 -0.00000000000E+00 -0.00000000000E+00 -0.74505805969E-08  0.93827000000E+00  0.93827000000E+00 0.  1.
     999902    2    1    2    0    0 -0.17198818354E-01 -0.83896229300E-02 -0.14245982265E-01  0.10200734886E+01  0.10197944837E+01 0.  0.
     999903    2    3    3    0    0  0.20728333043E-01 -0.67015775982E-01 -0.11004917847E+00  0.13212430816E+00  0.20621180935E-01 0.  0.
         14    1    1    2    0    0  0.17198818354E-01  0.83896229300E-02  0.14245982265E-01  0.23856511404E-01  0.00000000000E+00 0.  1.
     999901    1    3    3    0    0 -0.37927151397E-01  0.58626153052E-01  0.95803196207E-01  0.88794918044E+00  0.88000000000E+00 0.  1.
        -11    1    4    4    0    0  0.14257520256E-02 -0.58386944994E-02 -0.24277614816E-01  0.25015731540E-01  0.51100000000E-03 0.  1.
         11    1    4    4    0    0  0.19302581017E-01 -0.61177081482E-01 -0.85771563656E-01  0.10710857662E+00  0.51100000000E-03 0. -1.
</event>
<event>
 8    1  0.9956970E+004  0.1043930E+01  0.7957747E-01            NaN
         13   -1    0    0    0    0  0.00000000000E+00  0.00000000000E+00  0.74505805969E-08  0.10566000000E+00  0.10566000000E+00 0. -1.
     999900   -1    0    0    0    0 -0.00000000000E+00 -0.00000000000E+00 -0.74505805969E-08  0.93827000000E+00  0.93827000000E+00 0.  1.
     999902    2    1    2    0    0 -0.81173375374E-02 -0.13495617832E-01  0.16146257539E-01  0.10213750781E+01  0.10211260087E+01 0.  0.
     999903    2    3    3    0    0  0.13215486465E-01  0.12607510656E+00 -0.17468734716E-01  0.12948660739E+00  0.19800081382E-01 0.  0.
         14    1    1    2    0    0  0.81173375374E-02  0.13495617832E-01 -0.16146257539E-01  0.22554921899E-01  0.00000000000E+00 0. -1.
     999901    1    3    3    0    0 -0.21332824003E-01 -0.13957072439E+00  0.33614992255E-01  0.89188847071E+00  0.88000000000E+00 0. -1.
        -11    1    4    4    0    0 -0.44162041228E-02  0.50212302793E-01 -0.75553060195E-02  0.50971776315E-01  0.51100000000E-03 0.  1.
         11    1    4    4    0    0  0.17631690588E-01  0.75862803769E-01 -0.99134286968E-02  0.78514831072E-01  0.51100000000E-03 0. -1.
</event>
<event>
 8    1  0.9956970E+004  0.1043930E+01  0.7957747E-01            NaN
         13   -1    0    0    0    0  0.00000000000E+00  0.00000000000E+00  0.74505805969E-08  0.10566000000E+00  0.10566000000E+00 0. -1.
     999900   -1    0    0    0    0 -0.00000000000E+00 -0.00000000000E+00 -0.74505805969E-08  0.93827000000E+00  0.93827000000E+00 0.  1.
     999902    2    1    2    0    0 -0.18771468430E-01 -0.94195585356E-02  0.10751290208E-01  0.10203357984E+01  0.10200629662E+01 0.  0.
     999903    2    3    3    0    0  0.15506314702E-01  0.11632923877E+00  0.51760402289E-01  0.12979131675E+00  0.19842103515E-01 0.  0.
         14    1    1    2    0    0  0.18771468430E-01  0.94195585356E-02 -0.10751290208E-01  0.23594201643E-01  0.00000000000E+00 0.  1.
     999901    1    3    3    0    0 -0.34277783133E-01 -0.12574879730E+00 -0.41009112081E-01  0.89054448160E+00  0.88000000000E+00 0.  1.
        -11    1    4    4    0    0  0.10127122189E-01  0.53380831366E-01  0.34252085142E-01  0.64230352783E-01  0.51100000000E-03 0.  1.
         11    1    4    4    0    0  0.53791925134E-02  0.62948407401E-01  0.17508317147E-01  0.65560963971E-01  0.51100000000E-03 0. -1.
</event>
<event>
 8    1  0.9956970E+004  0.1043930E+01  0.7957747E-01            NaN
         13   -1    0    0    0    0  0.00000000000E+00  0.00000000000E+00  0.74505805969E-08  0.10566000000E+00  0.10566000000E+00 0.  1.
     999900   -1    0    0    0    0 -0.00000000000E+00 -0.00000000000E+00 -0.74505805969E-08  0.93827000000E+00  0.93827000000E+00 0. -1.
     999902    2    1    2    0    0 -0.14840703076E-01  0.12364440881E-01  0.13023900649E-01  0.10206330505E+01  0.10203671280E+01 0.  0.
     999903    2    3    3    0    0  0.10308756669E+00  0.66680011093E-01 -0.35404634847E-01  0.12978930384E+00  0.22770703504E-01 0.  0.
         14    1    1    2    0    0  0.14840703076E-01 -0.12364440881E-01 -0.13023900649E-01  0.23296949462E-01  0.00000000000E+00 0.  1.
     999901    1    3    3    0    0 -0.11792826977E+00 -0.54315570212E-01  0.48428535496E-01  0.89084374670E+00  0.88000000000E+00 0.  1.
        -11    1    4    4    0    0  0.62680688787E-01  0.38348115185E-01 -0.32506900548E-01  0.80351766560E-01  0.51100000000E-03 0. -1.
         11    1    4    4    0    0  0.40406877902E-01  0.28331895908E-01 -0.28977342998E-02  0.49437537283E-01  0.51100000000E-03 0.  1.
</event>
<event>
 8    1  0.9956970E+004  0.1043930E+01  0.7957747E-01            NaN
         13   -1    0    0    0    0  0.00000000000E+00  0.00000000000E+00  0.74505805969E-08  0.10566000000E+00  0.10566000000E+00 0.  1.
     999900   -1    0    0    0    0 -0.00000000000E+00 -0.00000000000E+00 -0.74505805969E-08  0.93827000000E+00  0.93827000000E+00 0. -1.
     999902    2    1    2    0    0  0.20525640709E-01  0.81858261515E-02 -0.10260910910E-01  0.10195661750E+01  0.10192750312E+01 0.  0.
     999903    2    3    3    0    0  0.88079311334E-01 -0.64961821194E-02 -0.96739926751E-01  0.13262892808E+00  0.20776276579E-01 0.  0.
         14    1    1    2    0    0 -0.20525640709E-01 -0.81858261515E-02  0.10260910910E-01  0.24363825008E-01  0.00000000000E+00 0. -1.
     999901    1    3    3    0    0 -0.67553670624E-01  0.14682008271E-01  0.86479015841E-01  0.88693724691E+00  0.88000000000E+00 0.  1.
        -11    1    4    4    0    0  0.48726165297E-01 -0.11041211742E-01 -0.43372050508E-01  0.66163006488E-01  0.51100000000E-03 0.  1.
         11    1    4    4    0    0  0.39353146037E-01  0.45450296223E-02 -0.53367876243E-01  0.66465921591E-01  0.51100000000E-03 0. -1.
</event>
<event>
 8    1  0.9956970E+004  0.1043930E+01  0.7957747E-01            NaN
         13   -1    0    0    0    0  0.00000000000E+00  0.00000000000E+00  0.74505805969E-08  0.10566000000E+00  0.10566000000E+00 0.  1.
     999900   -1    0    0    0    0 -0.00000000000E+00 -0.00000000000E+00 -0.74505805969E-08  0.93827000000E+00  0.93827000000E+00 0. -1.
     999902    2    1    2    0    0  0.21705968396E-01 -0.82660567747E-02  0.50311414491E-02  0.10201647072E+01  0.10198878569E+01 0.  0.
     999903    2    3    3    0    0 -0.42540375892E-02 -0.98521849052E-01  0.84689873346E-01  0.13158969992E+00  0.20465163142E-01 0.  0.
         14    1    1    2    0    0 -0.21705968396E-01  0.82660567747E-02 -0.50311414491E-02  0.23765292821E-01  0.00000000000E+00 0.  1.
     999901    1    3    3    0    0  0.25960005985E-01  0.90255792277E-01 -0.79658731897E-01  0.88857500725E+00  0.88000000000E+00 0. -1.
        -11    1    4    4    0    0  0.81353403728E-02 -0.37177413994E-01  0.29676446414E-01  0.48262785529E-01  0.51100000000E-03 0.  1.
         11    1    4    4    0    0 -0.12389377962E-01 -0.61344435058E-01  0.55013426932E-01  0.83326914395E-01  0.51100000000E-03 0. -1.
</event>
<event>
 8    1  0.9956970E+004  0.1043930E+01  0.7957747E-01            NaN
         13   -1    0    0    0    0  0.00000000000E+00  0.00000000000E+00  0.74505805969E-08  0.10566000000E+00  0.10566000000E+00 0. -1.
     999900   -1    0    0    0    0 -0.00000000000E+00 -0.00000000000E+00 -0.74505805969E-08  0.93827000000E+00  0.93827000000E+00 0.  1.
     999902    2    1    2    0    0 -0.14830859208E-01 -0.34927969845E-02  0.18594002166E-01  0.10198906379E+01  0.10196072883E+01 0.  0.
     999903    2    3    3    0    0  0.11539897522E-02 -0.67740300899E-01 -0.10732233128E+00  0.12846583442E+00  0.19882348071E-01 0.  0.
         14    1    1    2    0    0  0.14830859208E-01  0.34927969845E-02 -0.18594002166E-01  0.24039362141E-01  0.00000000000E+00 0.  1.
     999901    1    3    3    0    0 -0.15984848960E-01  0.64247503915E-01  0.12591633344E+00  0.89142480344E+00  0.88000000000E+00 0. -1.
        -11    1    4    4    0    0  0.33713231936E-02 -0.22175694600E-01 -0.52833512317E-01  0.57400073134E-01  0.51100000000E-03 0. -1.
         11    1    4    4    0    0 -0.22173334414E-02 -0.45564606299E-01 -0.54488818960E-01  0.71065761288E-01  0.51100000000E-03 0.  1.
</event>
<event>
 8    1  0.9956970E+004  0.1043930E+01  0.7957747E-01            NaN
         13   -1    0    0    0    0  0.00000000000E+00  0.00000000000E+00  0.74505805969E-08  0.10566000000E+00  0.10566000000E+00 0. -1.
     999900   -1    0    0    0    0 -0.00000000000E+00 -0.00000000000E+00 -0.74505805969E-08  0.93827000000E+00  0.93827000000E+00 0. -1.
     999902    2    1    2    0    0  0.84679375890E-02 -0.14118113144E-03 -0.22477483347E-01  0.10199099426E+01  0.10196270533E+01 0.  0.
     999903    2    3    3    0    0 -0.40271568943E-01 -0.63595529248E-01  0.10108559577E+00  0.12768248938E+00  0.20453112617E-01 0.  0.
         14    1    1    2    0    0 -0.84679375890E-02  0.14118113144E-03  0.22477483347E-01  0.24020057384E-01  0.00000000000E+00 0. -1.
     999901    1    3    3    0    0  0.48739506532E-01  0.63454348116E-01 -0.12356307912E+00  0.89222745324E+00  0.88000000000E+00 0. -1.
        -11    1    4    4    0    0 -0.38301778764E-01 -0.50362297443E-01  0.73252634237E-01  0.96796677649E-01  0.51100000000E-03 0. -1.
         11    1    4    4    0    0 -0.19697901792E-02 -0.13233231804E-01  0.27832961535E-01  0.30885811728E-01  0.51100000000E-03 0.  1.
</event>
<event>
 8    1  0.9956970E+004  0.1043930E+01  0.7957747E-01            NaN
         13   -1    0    0    0    0  0.00000000000E+00  0.00000000000E+00  0.74505805969E-08  0.10566000000E+00  0.10566000000E+00 0. -1.
     999900   -1    0    0    0    0 -0.00000000000E+00 -0.00000000000E+00 -0.74505805969E-08  0.93827000000E+00  0.93827000000E+00 0. -1.
     999902    2    1    2    0    0 -0.23001928907E-01 -0.65719323794E-02 -0.32488469482E-02  0.10197880441E+01  0.10195022417E+01 0.  0.
     999903    2    3    3    0    0 -0.10571026183E+00  0.31264746018E-01 -0.71525516693E-01  0.13246961974E+00  0.16737885588E-01 0.  0.
         14    1    1    2    0    0  0.23001928907E-01  0.65719323794E-02  0.32488469482E-02  0.24141955910E-01  0.00000000000E+00 0. -1.
     999901    1    3    3    0    0  0.82708332927E-01 -0.37836678397E-01  0.68276669745E-01  0.88731842435E+00  0.88000000000E+00 0.  1.
        -11    1    4    4    0    0 -0.64880765460E-01  0.19373176924E-01 -0.34084718735E-01  0.75808066082E-01  0.51100000000E-03 0.  1.
         11    1    4    4    0    0 -0.40829496374E-01  0.11891569094E-01 -0.37440797958E-01  0.56661553654E-01  0.51100000000E-03 0. -1.
</event>
<event>
 8    1  0.9956970E+004  0.1043930E+01  0.7957747E-01            NaN
         13   -1    0    0    0    0  0.00000000000E+00  0.00000000000E+00  0.74505805969E-08  0.10566000000E+00  0.10566000000E+00 0.  1.
     999900   -1    0    0    0    0 -0.00000000000E+00 -0.00000000000E+00 -0.74505805969E-08  0.93827000000E+00  0.93827000000E+00 0. -1.
     999902    2    1    2    0    0 -0.16578492032E-01 -0.10693263115E-02  0.16680484164E-01  0.10203879438E+01  0.10201163304E+01 0.  0.
     999903    2    3    3    0    0 -0.42464761756E-01 -0.12343329104E+00  0.37253122079E-02  0.13144988339E+00  0.15038635673E-01 0.  0.
         14    1    1    2    0    0  0.16578492032E-01  0.10693263115E-02 -0.16680484164E-01  0.23542056171E-01  0.00000000000E+00 0. -1.
     999901    1    3    3    0    0  0.25886269724E-01  0.12236396473E+00  0.12955171956E-01  0.88893806044E+00  0.88000000000E+00 0. -1.
        -11    1    4    4    0    0 -0.19596782197E-01 -0.54031220806E-01 -0.57473325159E-02  0.57764172688E-01  0.51100000000E-03 0.  1.
         11    1    4    4    0    0 -0.22867979559E-01 -0.69402070234E-01  0.94726447238E-02  0.73685710697E-01  0.51100000000E-03 0. -1.
</event>
<event>
 8    1  0.9956970E+004  0.1043930E+01  0.7957747E-01            NaN
         13   -1    0    0    0    0  0.00000000000E+00  0.00000000000E+00  0.74505805969E-08  0.10566000000E+00  0.10566000000E+00 0. -1.
     999900   -1    0    0    0    0 -0.00000000000E+00 -0.00000000000E+00 -0.74505805969E-08  0.93827000000E+00  0.93827000000E+00 0.  1.
     999902    2    1    2    0    0  0.71472757291E-02  0.17609290484E-01 -0.15603494518E-01  0.10193405774E+01  0.10190439505E+01 0.  0.
     999903    2    3    3    0    0 -0.10904764873E+00 -0.59348787396E-01  0.21206092472E-01  0.12761261895E+00  0.20533238895E-01 0.  0.
         14    1    1    2    0    0 -0.71472757291E-02 -0.17609290484E-01  0.15603494518E-01  0.24589422581E-01  0.00000000000E+00 0. -1.
     999901    1    3    3    0    0  0.11619492445E+00  0.76958077881E-01 -0.36809586990E-01  0.89172795847E+00  0.88000000000E+00 0.  1.
        -11    1    4    4    0    0 -0.39129322228E-01 -0.19635090795E-01 -0.22790767974E-02  0.43841714846E-01  0.51100000000E-03 0.  1.
         11    1    4    4    0    0 -0.69918326497E-01 -0.39713696602E-01  0.23485169269E-01  0.83770904105E-01  0.51100000000E-03 0. -1.
</event>
<event>
 8    1  0.9956970E+004  0.1043930E+01  0.7957747E-01            NaN
         13   -1    0    0    0    0  0.00000000000E+00  0.00000000000E+00  0.74505805969E-08  0.10566000000E+00  0.10566000000E+00 0.  1.
     999900   -1    0    0    0    0 -0.00000000000E+00 -0.00000000000E+00 -0.74505805969E-08  0.93827000000E+00  0.93827000000E+00 0.  1.
     999902    2    1    2    0    0 -0.13887326407E-01  0.39249016210E-02  0.17724257600E-01  0.10210736662E+01  0.10208178191E+01 0.  0.
     999903    2    3    3    0    0 -0.64429849236E-01 -0.10180335637E+00 -0.47189099890E-01  0.13093505051E+00  0.20051121236E-01 0.  0.
         14    1    1    2    0    0  0.13887326407E-01 -0.39249016210E-02 -0.17724257600E-01  0.22856333804E-01  0.00000000000E+00 0. -1.
     999901    1    3    3    0    0  0.50542522830E-01  0.10572825799E+00  0.64913357490E-01  0.89013861568E+00  0.88000000000E+00 0. -1.
        -11    1    4    4    0    0 -0.45120934672E-01 -0.64615414461E-01 -0.40126500901E-01  0.88438949153E-01  0.51100000000E-03 0.  1.
         11    1    4    4    0    0 -0.19308914564E-01 -0.37187941911E-01 -0.70625989884E-02  0.42496101359E-01  0.51100000000E-03 0. -1.
</event>
<event>
 8    1  0.9956970E+004  0.1043930E+01  0.7957747E-01            NaN
         13   -1    0    0    0    0  0.00000000000E+00  0.00000000000E+00  0.74505805969E-08  0.10566000000E+00  0.10566000000E+00 0.  1.
     999900   -1    0    0    0    0 -0.00000000000E+00 -0.00000000000E+00 -0.74505805969E-08  0.93827000000E+00  0.93827000000E+00 0.  1.
     999902    2    1    2    0    0  0.56201065351E-02 -0.47733081565E-02 -0.21464532104E-01  0.10212342690E+01  0.10209820449E+01 0.  0.
     999903    2    3    3    0    0 -0.40558485535E-02 -0.76426245458E-01  0.10265116068E+00  0.12958833436E+00  0.19961330339E-01 0.  0.
         14    1    1    2    0    0 -0.56201065351E-02  0.47733081565E-02  0.21464532104E-01  0.22695731023E-01  0.00000000000E+00 0.  1.
     999901    1    3    3    0    0  0.96759550886E-02  0.71652937302E-01 -0.12411569279E+00  0.89164593462E+00  0.88000000000E+00 0. -1.
        -11    1    4    4    0    0  0.64076811252E-02 -0.41081546912E-01  0.46098083551E-01  0.62080965699E-01  0.51100000000E-03 0.  1.
         11    1    4    4    0    0 -0.10463529679E-01 -0.35344698546E-01  0.56553077133E-01  0.67507368656E-01  0.51100000000E-03 0. -1.
</event>
<event>
 8    1  0.9956970E+004  0.1043930E+01  0.7957747E-01            NaN
         13   -1    0    0    0    0  0.00000000000E+00  0.00000000000E+00  0.74505805969E-08  0.10566000000E+00  0.10566000000E+00 0. -1.
     999900   -1    0    0    0    0 -0.00000000000E+00 -0.00000000000E+00 -0.74505805969E-08  0.93827000000E+00  0.93827000000E+00 0. -1.
     999902    2    1    2    0    0  0.19253601089E-01  0.15184156483E-01 -0.41242994757E-02  0.10190649722E+01  0.10187615756E+01 0.  0.
     999903    2    3    3    0    0  0.47725705745E-01 -0.11156553432E+00 -0.33637500019E-01  0.12903847039E+00  0.28192800442E-01 0.  0.
         14    1    1    2    0    0 -0.19253601089E-01 -0.15184156483E-01  0.41242994757E-02  0.24865027833E-01  0.00000000000E+00 0. -1.
     999901    1    3    3    0    0 -0.28472104656E-01  0.12674969080E+00  0.29513200544E-01  0.89002650178E+00  0.88000000000E+00 0. -1.
        -11    1    4    4    0    0  0.16006793844E-01 -0.67324338257E-01 -0.10963170947E-01  0.70065941863E-01  0.51100000000E-03 0. -1.
         11    1    4    4    0    0  0.31718911900E-01 -0.44241196058E-01 -0.22674329073E-01  0.58972528526E-01  0.51100000000E-03 0.  1.
</event>
<event>
 8    1  0.9956970E+004  0.1043930E+01  0.7957747E-01            NaN
         13   -1    0    0    0    0  0.00000000000E+00  0.00000000000E+00  0.74505805969E-08  0.10566000000E+00  0.10566000000E+00 0.  1.
     999900   -1    0    0    0    0 -0.00000000000E+00 -0.00000000000E+00 -0.74505805969E-08  0.93827000000E+00  0.93827000000E+00 0. -1.
     999902    2    1    2    0    0 -0.26717526556E-02 -0.13008425189E-03  0.24272529033E-01  0.10195105231E+01  0.10192180316E+01 0.  0.
     999903    2    3    3    0    0 -0.12849981495E-01 -0.88520881716E-02  0.13047812668E+00  0.13302346815E+00  0.20669302053E-01 0.  0.
         14    1    1    2    0    0  0.26717526556E-02  0.13008425189E-03 -0.24272529033E-01  0.24419476854E-01  0.00000000000E+00 0. -1.
     999901    1    3    3    0    0  0.10178228839E-01  0.87220039197E-02 -0.10620559765E+00  0.88648705499E+00  0.88000000000E+00 0. -1.
        -11    1    4    4    0    0 -0.17385045868E-01 -0.10152860950E-01  0.11731494842E+00  0.11903099869E+00  0.51100000000E-03 0. -1.
         11    1    4    4    0    0  0.45350643738E-02  0.13007727779E-02  0.13163178263E-01  0.13992469463E-01  0.51100000000E-03 0.  1.
</event>
<event>
 8    1  0.9956970E+004  0.1043930E+01  0.7957747E-01            NaN
         13   -1    0    0    0    0  0.00000000000E+00  0.00000000000E+00  0.74505805969E-08  0.10566000000E+00  0.10566000000E+00 0. -1.
     999900   -1    0    0    0    0 -0.00000000000E+00 -0.00000000000E+00 -0.74505805969E-08  0.93827000000E+00  0.93827000000E+00 0. -1.
     999902    2    1    2    0    0 -0.40658974045E-02  0.17599783143E-01  0.14974285107E-01  0.10204669844E+01  0.10201972128E+01 0.  0.
     999903    2    3    3    0    0  0.26830328415E-01  0.12860286037E+00 -0.96681863054E-03  0.13281255909E+00  0.19485350769E-01 0.  0.
         14    1    1    2    0    0  0.40658974045E-02 -0.17599783143E-01 -0.14974285107E-01  0.23463015639E-01  0.00000000000E+00 0.  1.
     999901    1    3    3    0    0 -0.30896225820E-01 -0.11100307723E+00  0.15941103738E-01  0.88765442528E+00  0.88000000000E+00 0.  1.
        -11    1    4    4    0    0  0.24523573039E-01  0.81105366683E-01 -0.62510643002E-02  0.84963657321E-01  0.51100000000E-03 0.  1.
         11    1    4    4    0    0  0.23067553767E-02  0.47497493686E-01  0.52842456697E-02  0.47848901765E-01  0.51100000000E-03 0. -1.
</event>
<event>
 8    1  0.9956970E+004  0.1043930E+01  0.7957747E-01            NaN
         13   -1    0    0    0    0  0.00000000000E+00  0.00000000000E+00  0.74505805969E-08  0.10566000000E+00  0.10566000000E+00 0.  1.
     999900   -1    0    0    0    0 -0.00000000000E+00 -0.00000000000E+00 -0.74505805969E-08  0.93827000000E+00  0.93827000000E+00 0.  1.
     999902    2    1    2    0    0  0.55484793220E-02  0.37504520621E-02 -0.22588570133E-01  0.10203695455E+01  0.10200975024E+01 0.  0.
     999903    2    3    3    0    0  0.60123092291E-01  0.15417082740E-01  0.11078987053E+00  0.12857118993E+00  0.20091859057E-01 0.  0.
         14    1    1    2    0    0 -0.55484793220E-02 -0.37504520621E-02  0.22588570133E-01  0.23560454455E-01  0.00000000000E+00 0.  1.
     999901    1    3    3    0    0 -0.54574612969E-01 -0.11666630678E-01 -0.13337844066E+00  0.89179835562E+00  0.88000000000E+00 0.  1.
        -11    1    4    4    0    0  0.18688027099E-01  0.82519848419E-02  0.20385953856E-01  0.28864958796E-01  0.51100000000E-03 0. -1.
         11    1    4    4    0    0  0.41435065192E-01  0.71650978980E-02  0.90403916672E-01  0.99706231129E-01  0.51100000000E-03 0.  1.
</event>
<event>
 8    1  0.9956970E+004  0.1043930E+01  0.7957747E-01            NaN
         13   -1    0    0    0    0  0.00000000000E+00  0.00000000000E+00  0.74505805969E-08  0.10566000000E+00  0.10566000000E+00 0. -1.
     999900   -1    0    0    0    0 -0.00000000000E+00 -0.00000000000E+00 -0.74505805969E-08  0.93827000000E+00  0.93827000000E+00 0.  1.
     999902    2    1    2    0    0  0.32286246861E-02 -0.11962414885E-01  0.20106974064E-01  0.10203119181E+01  0.10200385269E+01 0.  0.
     999903    2    3    3    0    0 -0.50448535961E-01  0.37696045114E-01  0.11454329298E+00  0.13224355442E+00  0.20053556298E-01 0.  0.
         14    1    1    2    0    0 -0.32286246861E-02  0.11962414885E-01 -0.20106974064E-01  0.23618081913E-01  0.00000000000E+00 0.  1.
     999901    1    3    3    0    0  0.53677160647E-01 -0.49658459998E-01 -0.94436318914E-01  0.88806836367E+00  0.88000000000E+00 0.  1.
        -11    1    4    4    0    0 -0.17801135498E-01  0.52237541579E-02  0.46654948402E-01  0.50210689737E-01  0.51100000000E-03 0.  1.
         11    1    4    4    0    0 -0.32647400463E-01  0.32472290956E-01  0.67888344577E-01  0.82032864678E-01  0.51100000000E-03 0. -1.
</event>
<event>
 8    1  0.9956970E+004  0.1043930E+01  0.7957747E-01            NaN
         13   -1    0    0    0    0  0.00000000000E+00  0.00000000000E+00  0.74505805969E-08  0.10566000000E+00  0.10566000000E+00 0.  1.
     999900   -1    0    0    0    0 -0.00000000000E+00 -0.00000000000E+00 -0.74505805969E-08  0.93827000000E+00  0.93827000000E+00 0. -1.
     999902    2    1    2    0    0 -0.16777456591E-01  0.54967621976E-02  0.16040358659E-01  0.10200764772E+01  0.10197975430E+01 0.  0.
     999903    2    3    3    0    0  0.43240222183E-01 -0.44259828623E-01 -0.10981829574E+00  0.12770982554E+00  0.20520531565E-01 0.  0.
         14    1    1    2    0    0  0.16777456591E-01 -0.54967621976E-02 -0.16040358659E-01  0.23853522805E-01  0.00000000000E+00 0. -1.
     999901    1    3    3    0    0 -0.60017678774E-01  0.49756590820E-01  0.12585865440E+00  0.89236665165E+00  0.88000000000E+00 0.  1.
        -11    1    4    4    0    0  0.20706360196E-01 -0.11274823632E-01 -0.27625878885E-01  0.36322517888E-01  0.51100000000E-03 0. -1.
         11    1    4    4    0    0  0.22533861987E-01 -0.32985004990E-01 -0.82192416858E-01  0.91387307653E-01  0.51100000000E-03 0.  1.
</event>
<event>
 8    1  0.9956970E+004  0.1043930E+01  0.7957747E-01            NaN
         13   -1    0    0    0    0  0.00000000000E+00  0.00000000000E+00  0.74505805969E-08  0.10566000000E+00  0.10566000000E+00 0. -1.
     999900   -1    0    0    0    0 -0.00000000000E+00 -0.00000000000E+00 -0.74505805969E-08  0.93827000000E+00  0.93827000000E+00 0. -1.
     999902    2    1    2    0    0 -0.42002036693E-02  0.36550105318E-02 -0.23373456898E-01  0.10199025303E+01  0.10196194643E+01 0.  0.
     999903    2    3    3    0    0 -0.12725998758E+00 -0.22377589007E-01  0.16485188481E-02  0.13060645703E+00  0.18959643317E-01 0.  0.
         14    1    1    2    0    0  0.42002036693E-02 -0.36550105318E-02  0.23373456898E-01  0.24027469700E-01  0.00000000000E+00 0. -1.
     999901    1    3    3    0    0  0.12305978392E+00  0.26032599539E-01 -0.25021975746E-01  0.88929607327E+00  0.88000000000E+00 0.  1.
        -11    1    4    4    0    0 -0.55678157085E-01 -0.43819670120E-02  0.84272272183E-02  0.56484848330E-01  0.51100000000E-03 0. -1.
         11    1    4    4    0    0 -0.71581830499E-01 -0.17995621995E-01 -0.67787083703E-02  0.74121608703E-01  0.51100000000E-03 0.  1.
</event>
<event>
 8    1  0.9956970E+004  0.1043930E+01  0.7957747E-01            NaN
         13   -1    0    0    0    0  0.00000000000E+00  0.00000000000E+00  0.74505805969E-08  0.10566000000E+00  0.10566000000E+00 0. -1.
     999900   -1    0    0    0    0 -0.00000000000E+00 -0.00000000000E+00 -0.74505805969E-08  0.93827000000E+00  0.93827000000E+00 0.  1.
     999902    2    1    2    0    0 -0.17618246924E-02  0.22348314817E-01  0.73277043846E-02  0.10203451224E+01  0.10200725083E+01 0.  0.
     999903    2    3    3    0    0  0.90936258914E-01  0.68864719679E-01  0.64429834493E-01  0.13241642935E+00  0.19265367540E-01 0.  0.
         14    1    1    2    0    0  0.17618246924E-02 -0.22348314817E-01 -0.73277043846E-02  0.23584877633E-01  0.00000000000E+00 0.  1.
     999901    1    3    3    0    0 -0.92698083606E-01 -0.46516404861E-01 -0.57102130108E-01  0.88792869302E+00  0.88000000000E+00 0. -1.
        -11    1    4    4    0    0  0.61202543975E-01  0.55279793407E-01  0.51658894443E-01  0.97316542500E-01  0.51100000000E-03 0. -1.
         11    1    4    4    0    0  0.29733714939E-01  0.13584926272E-01  0.12770940050E-01  0.35099886847E-01  0.51100000000E-03 0.  1.
</event>
<event>
 8    1  0.9956970E+004  0.1043930E+01  0.7957747E-01            NaN
         13   -1    0    0    0    0  0.00000000000E+00  0.00000000000E+00  0.74505805969E-08  0.10566000000E+00  0.10566000000E+00 0.  1.
     999900   -1    0    0    0    0 -0.00000000000E+00 -0.00000000000E+00 -0.74505805969E-08  0.93827000000E+00  0.93827000000E+00 0.  1.
     999902    2    1    2    0    0 -0.12597860583E-01  0.21136856233E-01 -0.61863695029E-02  0.10185578903E+01  0.10182418337E+01 0.  0.
     999903    2    3    3    0    0 -0.11600233730E+00  0.56504425182E-01 -0.16665209554E-01  0.13173594830E+00  0.20672168273E-01 0.  0.
         14    1    1    2    0    0  0.12597860583E-01 -0.21136856233E-01  0.61863695029E-02  0.25372109694E-01  0.00000000000E+00 0.  1.
     999901    1    3    3    0    0  0.10340447671E+00 -0.35367568949E-01  0.10478840051E-01  0.88682194201E+00  0.88000000000E+00 0. -1.
        -11    1    4    4    0    0 -0.82968285284E-01  0.29782143642E-01 -0.98729684079E-02  0.88704278752E-01  0.51100000000E-03 0. -1.
         11    1    4    4    0    0 -0.33034052013E-01  0.26722281540E-01 -0.67922411456E-02  0.43031669546E-01  0.51100000000E-03 0.  1.
</event>
<event>
 8    1  0.9956970E+004  0.1043930E+01  0.7957747E-01            NaN
         13   -1    0    0    0    0  0.00000000000E+00  0.00000000000E+00  0.74505805969E-08  0.10566000000E+00  0.10566000000E+00 0.  1.
     999900   -1    0    0    0    0 -0.00000000000E+00 -0.00000000000E+00 -0.74505805969E-08  0.93827000000E+00  0.93827000000E+00 0.  1.
     999902    2    1    2    0    0  0.20738400267E-01 -0.43603810223E-02 -0.10438293686E-01  0.10203068727E+01  0.10200333633E+01 0.  0.
     999903    2    3    3    0    0 -0.58086753513E-02 -0.98530702701E-01 -0.84956077883E-01  0.13175428739E+00  0.19990422486E-01 0.  0.
         14    1    1    2    0    0 -0.20738400267E-01  0.43603810223E-02  0.10438293686E-01  0.23623127299E-01  0.00000000000E+00 0. -1.
     999901    1    3    3    0    0  0.26547075618E-01  0.94170321679E-01  0.74517784197E-01  0.88855258532E+00  0.88000000000E+00 0. -1.
        -11    1    4    4    0    0  0.26197780165E-03 -0.90706948732E-01 -0.74951054613E-01  0.11766792634E+00  0.51100000000E-03 0.  1.
         11    1    4    4    0    0 -0.60706531529E-02 -0.78237539695E-02 -0.10005023270E-01  0.14086361046E-01  0.51100000000E-03 0. -1.
</event>
<event>
 8    1  0.1141381E+005  0.1043930E+01  0.7957747E-01            NaN
         13   -1    0    0    0    0  0.00000000000E+00  0.00000000000E+00  0.74505805969E-08  0.10566000000E+00  0.10566000000E+00 0. -1.
     999900   -1    0    0    0    0 -0.00000000000E+00 -0.00000000000E+00 -0.74505805969E-08  0.93827000000E+00  0.93827000000E+00 0. -1.
     999902    2    1    2    0    0  0.94002713311E-02  0.25175263111E-01 -0.70923524627E-02  0.10161368275E+01  0.10157566597E+01 0.  0.
     999903    2    3    3    0    0 -0.17865804814E-01  0.85064618737E-01  0.91967280789E-01  0.12813739915E+00  0.20150334538E-01 0.  0.
         14    1    1    2    0    0 -0.94002713311E-02 -0.25175263111E-01  0.70923524627E-02  0.27793172494E-01  0.00000000000E+00 0.  1.
     999901    1    3    3    0    0  0.27266076146E-01 -0.59889355626E-01 -0.99059633252E-01  0.88799942836E+00  0.88000000000E+00 0. -1.
        -11    1    4    4    0    0 -0.18873455051E-01  0.51449206691E-01  0.48548531988E-01  0.73215088976E-01  0.51100000000E-03 0.  1.
         11    1    4    4    0    0  0.10076502365E-02  0.33615412046E-01  0.43418748802E-01  0.54922310171E-01  0.51100000000E-03 0. -1.
</event>
<event>
 8    1  0.9956970E+004  0.1043930E+01  0.7957747E-01            NaN
         13   -1    0    0    0    0  0.00000000000E+00  0.00000000000E+00  0.74505805969E-08  0.10566000000E+00  0.10566000000E+00 0.  1.
     999900   -1    0    0    0    0 -0.00000000000E+00 -0.00000000000E+00 -0.74505805969E-08  0.93827000000E+00  0.93827000000E+00 0.  1.
     999902    2    1    2    0    0 -0.15518050760E-01  0.17233461217E-01  0.53523398804E-02  0.10201297978E+01  0.10198521239E+01 0.  0.
     999903    2    3    3    0    0 -0.14503155020E-01  0.12849635353E+00 -0.21594935786E-01  0.13271410210E+00  0.20616431994E-01 0.  0.
         14    1    1    2    0    0  0.15518050760E-01 -0.17233461217E-01 -0.53523398804E-02  0.23800202249E-01  0.00000000000E+00 0. -1.
     999901    1    3    3    0    0 -0.10148957405E-02 -0.11126289232E+00  0.26947275667E-01  0.88741569565E+00  0.88000000000E+00 0. -1.
        -11    1    4    4    0    0 -0.12500128420E-01  0.10497882771E+00 -0.93905029853E-02  0.10613788270E+00  0.51100000000E-03 0.  1.
         11    1    4    4    0    0 -0.20030265998E-02  0.23517525825E-01 -0.12204432801E-01  0.26576219398E-01  0.51100000000E-03 0. -1.
</event>
<event>
 8    1  0.9956970E+004  0.1043930E+01  0.7957747E-01            NaN
         13   -1    0    0    0    0  0.00000000000E+00  0.00000000000E+00  0.74505805969E-08  0.10566000000E+00  0.10566000000E+00 0. -1.
     999900   -1    0    0    0    0 -0.00000000000E+00 -0.00000000000E+00 -0.74505805969E-08  0.93827000000E+00  0.93827000000E+00 0.  1.
     999902    2    1    2    0    0 -0.21900879039E-01 -0.21272599518E-02 -0.87238733541E-02  0.10202597718E+01  0.10199851578E+01 0.  0.
     999903    2    3    3    0    0 -0.40559508360E-01 -0.10409153334E+00  0.65543170187E-01  0.13106887481E+00  0.20075401719E-01 0.  0.
         14    1    1    2    0    0  0.21900879039E-01  0.21272599518E-02  0.87238733541E-02  0.23670228217E-01  0.00000000000E+00 0.  1.
     999901    1    3    3    0    0  0.18658629321E-01  0.10196427339E+00 -0.74267043541E-01  0.88919089697E+00  0.88000000000E+00 0.  1.
        -11    1    4    4    0    0 -0.13850245916E-01 -0.50552533141E-01  0.40341116152E-01  0.66144196210E-01  0.51100000000E-03 0.  1.
         11    1    4    4    0    0 -0.26709262444E-01 -0.53539000204E-01  0.25202054035E-01  0.64924678603E-01  0.51100000000E-03 0. -1.
</event>
<event>
 8    1  0.9956970E+004  0.1043930E+01  0.7957747E-01            NaN
         13   -1    0    0    0    0  0.00000000000E+00  0.00000000000E+00  0.74505805969E-08  0.10566000000E+00  0.10566000000E+00 0.  1.
     999900   -1    0    0    0    0 -0.00000000000E+00 -0.00000000000E+00 -0.74505805969E-08  0.93827000000E+00  0.93827000000E+00 0. -1.
     999902    2    1    2    0    0 -0.15243536949E-01 -0.10825810623E-01  0.12865270880E-01  0.10212346527E+01  0.10209824372E+01 0.  0.
     999903    2    3    3    0    0 -0.39743798232E-01 -0.12550044432E+00  0.12316770890E-01  0.13345605684E+00  0.18135193347E-01 0.  0.
         14    1    1    2    0    0  0.15243536949E-01  0.10825810623E-01 -0.12865270880E-01  0.22695347303E-01  0.00000000000E+00 0. -1.
     999901    1    3    3    0    0  0.24500261283E-01  0.11467463370E+00  0.54849999048E-03  0.88777859586E+00  0.88000000000E+00 0.  1.
        -11    1    4    4    0    0 -0.27076274673E-01 -0.90422528977E-01  0.71076843753E-03  0.94393456921E-01  0.51100000000E-03 0.  1.
         11    1    4    4    0    0 -0.12667523559E-01 -0.35077915346E-01  0.11606002452E-01  0.39062599915E-01  0.51100000000E-03 0. -1.
</event>
<event>
 8    1  0.9956970E+004  0.1043930E+01  0.7957747E-01            NaN
         13   -1    0    0    0    0  0.00000000000E+00  0.00000000000E+00  0.74505805969E-08  0.10566000000E+00  0.10566000000E+00 0. -1.
     999900   -1    0    0    0    0 -0.00000000000E+00 -0.00000000000E+00 -0.74505805969E-08  0.93827000000E+00  0.93827000000E+00 0.  1.
     999902    2    1    2    0    0  0.19949165282E-01  0.10539413943E-01 -0.10504761448E-01  0.10190422831E+01  0.10187383257E+01 0.  0.
     999903    2    3    3    0    0 -0.24502782703E-01 -0.10913560134E+00  0.57081119802E-01  0.12726544084E+00  0.20670567377E-01 0.  0.
         14    1    1    2    0    0 -0.19949165282E-01 -0.10539413943E-01  0.10504761448E-01  0.24887716946E-01  0.00000000000E+00 0. -1.
     999901    1    3    3    0    0  0.44451947985E-01  0.11967501528E+00 -0.67585881250E-01  0.89177684221E+00  0.88000000000E+00 0.  1.
        -11    1    4    4    0    0 -0.43429836457E-02 -0.23097423693E-01  0.21969426051E-01  0.32175600852E-01  0.51100000000E-03 0. -1.
         11    1    4    4    0    0 -0.20159799057E-01 -0.86038177643E-01  0.35111693751E-01  0.95089839990E-01  0.51100000000E-03 0.  1.
</event>
<event>
 8    1  0.9956970E+004  0.1043930E+01  0.7957747E-01            NaN
         13   -1    0    0    0    0  0.00000000000E+00  0.00000000000E+00  0.74505805969E-08  0.10566000000E+00  0.10566000000E+00 0. -1.
     999900   -1    0    0    0    0 -0.00000000000E+00 -0.00000000000E+00 -0.74505805969E-08  0.93827000000E+00  0.93827000000E+00 0. -1.
     999902    2    1    2    0    0  0.78443802361E-02 -0.15443112219E-01  0.16488728703E-01  0.10200155234E+01  0.10197351449E+01 0.  0.
     999903    2    3    3    0    0 -0.11887655913E+00  0.43149969956E-02 -0.44641807696E-01  0.12862025652E+00  0.20000597053E-01 0.  0.
         14    1    1    2    0    0 -0.78443802361E-02  0.15443112219E-01 -0.16488728703E-01  0.23914476589E-01  0.00000000000E+00 0.  1.
     999901    1    3    3    0    0  0.12672093937E+00 -0.19758109214E-01  0.61130536399E-01  0.89139526689E+00  0.88000000000E+00 0.  1.
        -11    1    4    4    0    0 -0.68786254067E-01 -0.39415456555E-02 -0.33633233452E-01  0.76671637808E-01  0.51100000000E-03 0. -1.
         11    1    4    4    0    0 -0.50090305067E-01  0.82565426511E-02 -0.11008574243E-01  0.51948618712E-01  0.51100000000E-03 0.  1.
</event>
<event>
 8    1  0.1258518E+005  0.1043930E+01  0.7957747E-01            NaN
         13   -1    0    0    0    0  0.00000000000E+00  0.00000000000E+00  0.74505805969E-08  0.10566000000E+00  0.10566000000E+00 0.  1.
     999900   -1    0    0    0    0 -0.00000000000E+00 -0.00000000000E+00 -0.74505805969E-08  0.93827000000E+00  0.93827000000E+00 0.  1.
     999902    2    1    2    0    0  0.35217189869E-02 -0.24728134761E-01 -0.42775137975E-03  0.10189486845E+01  0.10186424081E+01 0.  0.
     999903    2    3    3    0    0 -0.83869895359E-01  0.67460108241E-01 -0.65249970478E-01  0.12746795756E+00  0.20136931366E-01 0.  0.
         14    1    1    2    0    0 -0.35217189869E-02  0.24728134761E-01  0.42775137975E-03  0.24981315510E-01  0.00000000000E+00 0.  1.
     999901    1    3    3    0    0  0.87391614346E-01 -0.92188243002E-01  0.64822219098E-01  0.89148072693E+00  0.88000000000E+00 0. -1.
        -11    1    4    4    0    0 -0.34941487574E-01  0.40702986149E-01 -0.34518658874E-01  0.63792159132E-01  0.51100000000E-03 0. -1.
         11    1    4    4    0    0 -0.48928407785E-01  0.26757122092E-01 -0.30731311604E-01  0.63675798424E-01  0.51100000000E-03 0.  1.
</event>
<event>
 8    1  0.9956970E+004  0.1043930E+01  0.7957747E-01            NaN
         13   -1    0    0    0    0  0.00000000000E+00  0.00000000000E+00  0.74505805969E-08  0.10566000000E+00  0.10566000000E+00 0. -1.
     999900   -1    0    0    0    0 -0.00000000000E+00 -0.00000000000E+00 -0.74505805969E-08  0.93827000000E+00  0.93827000000E+00 0. -1.
     999902    2    1    2    0    0 -0.62035130953E-02  0.27598730930E-02 -0.18984374629E-01  0.10237679824E+01  0.10235694284E+01 0.  0.
     999903    2    3    3    0    0 -0.21891456539E-01  0.47893821450E-01  0.11903606729E+00  0.13172940292E+00  0.20248364757E-01 0.  0.
         14    1    1    2    0    0  0.62035130953E-02 -0.27598730930E-02  0.18984374629E-01  0.20162017614E-01  0.00000000000E+00 0. -1.
     999901    1    3    3    0    0  0.15687943444E-01 -0.45133948357E-01 -0.13802044192E+00  0.89203857946E+00  0.88000000000E+00 0. -1.
        -11    1    4    4    0    0 -0.23319337644E-01  0.32299201752E-01  0.73964559278E-01  0.84012184188E-01  0.51100000000E-03 0.  1.
         11    1    4    4    0    0  0.14278811051E-02  0.15594619699E-01  0.45071508014E-01  0.47717218733E-01  0.51100000000E-03 0. -1.
</event>
<event>
 8    1  0.9956970E+004  0.1043930E+01  0.7957747E-01            NaN
         13   -1    0    0    0    0  0.00000000000E+00  0.00000000000E+00  0.74505805969E-08  0.10566000000E+00  0.10566000000E+00 0. -1.
     999900   -1    0    0    0    0 -0.00000000000E+00 -0.00000000000E+00 -0.74505805969E-08  0.93827000000E+00  0.93827000000E+00 0. -1.
     999902    2    1    2    0    0  0.59019304723E-02 -0.19031210475E-01 -0.10728951010E-01  0.10212997074E+01  0.10210489519E+01 0.  0.
     999903    2    3    3    0    0  0.17517945445E-01  0.53952003135E-01  0.11445706523E+00  0.12937312970E+00  0.20476568357E-01 0.  0.
         14    1    1    2    0    0 -0.59019304723E-02  0.19031210475E-01  0.10728951010E-01  0.22630292645E-01  0.00000000000E+00 0. -1.
     999901    1    3    3    0    0 -0.11616014972E-01 -0.72983213610E-01 -0.12518601624E+00  0.89192657766E+00  0.88000000000E+00 0. -1.
        -11    1    4    4    0    0  0.13135078028E-01  0.16302704314E-01  0.55087674823E-01  0.58934043482E-01  0.51100000000E-03 0.  1.
         11    1    4    4    0    0  0.43828674170E-02  0.37649298821E-01  0.59369390406E-01  0.70439086214E-01  0.51100000000E-03 0. -1.
</event>
<event>
 8    1  0.9956970E+004  0.1043930E+01  0.7957747E-01            NaN
         13   -1    0    0    0    0  0.00000000000E+00  0.00000000000E+00  0.74505805969E-08  0.10566000000E+00  0.10566000000E+00 0.  1.
     999900   -1    0    0    0    0 -0.00000000000E+00 -0.00000000000E+00 -0.74505805969E-08  0.93827000000E+00  0.93827000000E+00 0. -1.
     999902    2    1    2    0    0 -0.19984238727E-01 -0.12089104869E-01  0.11477122420E-02  0.10205455287E+01  0.10202775812E+01 0.  0.
     999903    2    3    3    0    0 -0.30462505044E-01 -0.11375476502E+00  0.56348674966E-01  0.13291224475E+00  0.24947562084E-01 0.  0.
         14    1    1    2    0    0  0.19984238727E-01  0.12089104869E-01 -0.11477122420E-02  0.23384471288E-01  0.00000000000E+00 0. -1.
     999901    1    3    3    0    0  0.10478266318E-01  0.10166566015E+00 -0.55200962724E-01  0.88763328397E+00  0.88000000000E+00 0. -1.
        -11    1    4    4    0    0 -0.16581247629E-01 -0.28193025501E-01  0.80698563498E-02  0.33692256712E-01  0.51100000000E-03 0.  1.
         11    1    4    4    0    0 -0.13881257415E-01 -0.85561739522E-01  0.48278818617E-01  0.99219988034E-01  0.51100000000E-03 0. -1.
</event>
<event>
 8    1  0.9956970E+004  0.1043930E+01  0.7957747E-01            NaN
         13   -1    0    0    0    0  0.00000000000E+00  0.00000000000E+00  0.74505805969E-08  0.10566000000E+00  0.10566000000E+00 0. -1.
     999900   -1    0    0    0    0 -0.00000000000E+00 -0.00000000000E+00 -0.74505805969E-08  0.93827000000E+00  0.93827000000E+00 0.  1.
     999902    2    1    2    0    0 -0.91623573606E-02 -0.21205504450E-01 -0.51125539426E-02  0.10202707435E+01  0.10199963870E+01 0.  0.
     999903    2    3    3    0    0  0.28067746137E-01 -0.12399077480E+00  0.32611859269E-01  0.13270439454E+00  0.19631921876E-01 0.  0.
         14    1    1    2    0    0  0.91623573606E-02  0.21205504450E-01  0.51125539426E-02  0.23659256523E-01  0.00000000000E+00 0. -1.
     999901    1    3    3    0    0 -0.37230103498E-01  0.10278527035E+00 -0.37724413212E-01  0.88756634893E+00  0.88000000000E+00 0.  1.
        -11    1    4    4    0    0  0.18663500844E-01 -0.48842778251E-01  0.19690615488E-01  0.55874186440E-01  0.51100000000E-03 0. -1.
         11    1    4    4    0    0  0.94042452935E-02 -0.75147996552E-01  0.12921243781E-01  0.76830208103E-01  0.51100000000E-03 0.  1.
</event>
<event>
 8    1  0.9956970E+004  0.1043930E+01  0.7957747E-01            NaN
         13   -1    0    0    0    0  0.00000000000E+00  0.00000000000E+00  0.74505805969E-08  0.10566000000E+00  0.10566000000E+00 0.  1.
     999900   -1    0    0    0    0 -0.00000000000E+00 -0.00000000000E+00 -0.74505805969E-08  0.93827000000E+00  0.93827000000E+00 0.  1.
     999902    2    1    2    0    0 -0.17296779295E-01  0.12411655904E-01 -0.78041833626E-02  0.10212554977E+01  0.10210037505E+01 0.  0.
     999903    2    3    3    0    0 -0.10991930727E+00 -0.10243384538E-01  0.71099868293E-01  0.13259468901E+00  0.18411388979E-01 0.  0.
         14    1    1    2    0    0  0.17296779295E-01 -0.12411655904E-01  0.78041833626E-02  0.22674502293E-01  0.00000000000E+00 0. -1.
     999901    1    3    3    0    0  0.92622527978E-01  0.22655040442E-01 -0.78904051656E-01  0.88866080870E+00  0.88000000000E+00 0.  1.
        -11    1    4    4    0    0 -0.52198237679E-01 -0.64359398548E-02  0.23185262220E-01  0.57479516733E-01  0.51100000000E-03 0. -1.
         11    1    4    4    0    0 -0.57721069594E-01 -0.38074446828E-02  0.47914606073E-01  0.75115172277E-01  0.51100000000E-03 0.  1.
</event>
<event>
 8    1  0.9956970E+004  0.1043930E+01  0.7957747E-01            NaN
         13   -1    0    0    0    0  0.00000000000E+00  0.00000000000E+00  0.74505805969E-08  0.10566000000E+00  0.10566000000E+00 0.  1.
     999900   -1    0    0    0    0 -0.00000000000E+00 -0.00000000000E+00 -0.74505805969E-08  0.93827000000E+00  0.93827000000E+00 0. -1.
     999902    2    1    2    0    0  0.24274839483E-01  0.11310079976E-02 -0.41866901278E-02  0.10192708154E+01  0.10189724823E+01 0.  0.
     999903    2    3    3    0    0 -0.12146180216E+00 -0.26663374791E-01  0.13268958365E-01  0.12668110221E+00  0.20202263781E-01 0.  0.
         14    1    1    2    0    0 -0.24274839483E-01 -0.11310079976E-02  0.41866901278E-02  0.24659184602E-01  0.00000000000E+00 0.  1.
     999901    1    3    3    0    0  0.14573664164E+00  0.27794382789E-01 -0.17455648493E-01  0.89258971319E+00  0.88000000000E+00 0. -1.
        -11    1    4    4    0    0 -0.81669838546E-01 -0.25653018239E-01  0.34251293453E-02  0.85673989664E-01  0.51100000000E-03 0. -1.
         11    1    4    4    0    0 -0.39791963609E-01 -0.10103565525E-02  0.98438290196E-02  0.41007112542E-01  0.51100000000E-03 0.  1.
</event>
<event>
 8    1  0.9956970E+004  0.1043930E+01  0.7957747E-01            NaN
         13   -1    0    0    0    0  0.00000000000E+00  0.00000000000E+00  0.74505805969E-08  0.10566000000E+00  0.10566000000E+00 0.  1.
     999900   -1    0    0    0    0 -0.00000000000E+00 -0.00000000000E+00 -0.74505805969E-08  0.93827000000E+00  0.93827000000E+00 0. -1.
     999902    2    1    2    0    0  0.13544671914E-01 -0.18976459367E-01  0.29444980901E-02  0.10204303358E+01  0.10201597111E+01 0.  0.
     999903    2    3    3    0    0 -0.11032370432E+00  0.50016980602E-01 -0.36508009631E-01  0.12820840729E+00  0.20773609427E-01 0.  0.
         14    1    1    2    0    0 -0.13544671914E-01  0.18976459367E-01 -0.29444980901E-02  0.23499664175E-01  0.00000000000E+00 0. -1.
     999901    1    3    3    0    0  0.12386837624E+00 -0.68993439968E-01  0.39452507722E-01  0.89222192853E+00  0.88000000000E+00 0. -1.
        -11    1    4    4    0    0 -0.51701888906E-01  0.15562110591E-01 -0.84722250074E-02  0.54656237706E-01  0.51100000000E-03 0. -1.
         11    1    4    4    0    0 -0.58621815417E-01  0.34454870010E-01 -0.28035784624E-01  0.73552169586E-01  0.51100000000E-03 0.  1.
</event>
<event>
 8    1  0.9956970E+004  0.1043930E+01  0.7957747E-01            NaN
         13   -1    0    0    0    0  0.00000000000E+00  0.00000000000E+00  0.74505805969E-08  0.10566000000E+00  0.10566000000E+00 0.  1.
     999900   -1    0    0    0    0 -0.00000000000E+00 -0.00000000000E+00 -0.74505805969E-08  0.93827000000E+00  0.93827000000E+00 0. -1.
     999902    2    1    2    0    0 -0.32827444986E-02  0.13258361793E-01 -0.27776818394E-01  0.10129766123E+01  0.10125035827E+01 0.  0.
     999903    2    3    3    0    0  0.75086384245E-01 -0.91493472382E-01  0.21948164859E-01  0.12191699531E+00  0.19313498317E-01 0.  0.
         14    1    1    2    0    0  0.32827444986E-02 -0.13258361793E-01  0.27776818394E-01  0.30953387682E-01  0.00000000000E+00 0.  1.
     999901    1    3    3    0    0 -0.78369128744E-01  0.10475183418E+00 -0.49724983253E-01  0.89105961701E+00  0.88000000000E+00 0. -1.
        -11    1    4    4    0    0  0.29339764262E-01 -0.21834804876E-01  0.74151169645E-02  0.37320578124E-01  0.51100000000E-03 0. -1.
         11    1    4    4    0    0  0.45746619983E-01 -0.69658667506E-01  0.14533047894E-01  0.84596417186E-01  0.51100000000E-03 0.  1.
</event>
<event>
 8    1  0.9956970E+004  0.1043930E+01  0.7957747E-01            NaN
         13   -1    0    0    0    0  0.00000000000E+00  0.00000000000E+00  0.74505805969E-08  0.10566000000E+00  0.10566000000E+00 0.  1.
     999900   -1    0    0    0    0 -0.00000000000E+00 -0.00000000000E+00 -0.74505805969E-08  0.93827000000E+00  0.93827000000E+00 0.  1.
     999902    2    1    2    0    0  0.35567778545E-02  0.11880400095E-01  0.21266674841E-01  0.10193115916E+01  0.10190142564E+01 0.  0.
     999903    2    3    3    0    0 -0.70258641049E-01  0.60191255563E-01  0.92188113127E-01  0.13206162384E+00  0.19554037948E-01 0.  0.
         14    1    1    2    0    0 -0.35567778545E-02 -0.11880400095E-01 -0.21266674841E-01  0.24618408436E-01  0.00000000000E+00 0. -1.
     999901    1    3    3    0    0  0.73815418903E-01 -0.48310855468E-01 -0.70921438286E-01  0.88724996773E+00  0.88000000000E+00 0. -1.
        -11    1    4    4    0    0 -0.56602506786E-01  0.37449165865E-01  0.69627216045E-01  0.97234223058E-01  0.51100000000E-03 0. -1.
         11    1    4    4    0    0 -0.13656134262E-01  0.22742089699E-01  0.22560897082E-01  0.34827400779E-01  0.51100000000E-03 0.  1.
</event>
<event>
 8    1  0.9956970E+004  0.1043930E+01  0.7957747E-01            NaN
         13   -1    0    0    0    0  0.00000000000E+00  0.00000000000E+00  0.74505805969E-08  0.10566000000E+00  0.10566000000E+00 0. -1.
     999900   -1    0    0    0    0 -0.00000000000E+00 -0.00000000000E+00 -0.74505805969E-08  0.93827000000E+00  0.93827000000E+00 0.  1.
     999902    2    1    2    0    0 -0.98229762728E-02 -0.10976400730E-01  0.18858429589E-01  0.10200006748E+01  0.10197199439E+01 0.  0.
     999903    2    3    3    0    0 -0.30498852286E-01  0.48978346229E-01  0.11714630382E+00  0.13226052719E+00  0.20988858109E-01 0.  0.
         14    1    1    2    0    0  0.98229762728E-02  0.10976400730E-01 -0.18858429589E-01  0.23929325156E-01  0.00000000000E+00 0.  1.
     999901    1    3    3    0    0  0.20675876014E-01 -0.59954746959E-01 -0.98287874229E-01  0.88774014765E+00  0.88000000000E+00 0.  1.
        -11    1    4    4    0    0 -0.12611183641E-01  0.38460074101E-01  0.72796933745E-01  0.83293900955E-01  0.51100000000E-03 0.  1.
         11    1    4    4    0    0 -0.17887668645E-01  0.10518272128E-01  0.44349370073E-01  0.48966626237E-01  0.51100000000E-03 0. -1.
</event>
<event>
 8    1  0.9956970E+004  0.1043930E+01  0.7957747E-01            NaN
         13   -1    0    0    0    0  0.00000000000E+00  0.00000000000E+00  0.74505805969E-08  0.10566000000E+00  0.10566000000E+00 0.  1.
     999900   -1    0    0    0    0 -0.00000000000E+00 -0.00000000000E+00 -0.74505805969E-08  0.93827000000E+00  0.93827000000E+00 0.  1.
     999902    2    1    2    0    0 -0.39191867127E-02 -0.11593626731E-01  0.21832470309E-01  0.10189014370E+01  0.10185939865E+01 0.  0.
     999903    2    3    3    0    0 -0.12505593092E+00  0.26317037438E-01  0.99493199819E-02  0.12971498946E+00  0.19885100059E-01 0.  0.
         14    1    1    2    0    0  0.39191867127E-02  0.11593626731E-01 -0.21832470309E-01  0.25028562984E-01  0.00000000000E+00 0. -1.
     999901    1    3    3    0    0  0.12113674421E+00 -0.37910664170E-01  0.11883150327E-01  0.88918644756E+00  0.88000000000E+00 0. -1.
        -11    1    4    4    0    0 -0.10889343202E+00  0.22147616493E-01  0.15315548109E-01  0.11217452290E+00  0.51100000000E-03 0.  1.
         11    1    4    4    0    0 -0.16162498903E-01  0.41694209453E-02 -0.53662281274E-02  0.17540466559E-01  0.51100000000E-03 0. -1.
</event>
<event>
 8    1  0.9956970E+004  0.1043930E+01  0.7957747E-01            NaN
         13   -1    0    0    0    0  0.00000000000E+00  0.00000000000E+00  0.74505805969E-08  0.10566000000E+00  0.10566000000E+00 0.  1.
     999900   -1    0    0    0    0 -0.00000000000E+00 -0.00000000000E+00 -0.74505805969E-08  0.93827000000E+00  0.93827000000E+00 0. -1.
     999902    2    1    2    0    0 -0.18114498435E-03 -0.13511304441E-01 -0.21356250805E-01  0.10186579283E+01  0.10183443903E+01 0.  0.
     999903    2    3    3    0    0 -0.44314446774E-01 -0.28648972425E-01 -0.11922048460E+00  0.13200449790E+00  0.20667116541E-01 0.  0.
         14    1    1    2    0    0  0.18114498435E-03  0.13511304441E-01  0.21356250805E-01  0.25272071732E-01  0.00000000000E+00 0.  1.
     999901    1    3    3    0    0  0.44133301790E-01  0.15137667984E-01  0.97864233790E-01  0.88665343036E+00  0.88000000000E+00 0.  1.
        -11    1    4    4    0    0 -0.19439883079E-01 -0.11239147989E-02 -0.44625227622E-01  0.48691316473E-01  0.51100000000E-03 0. -1.
         11    1    4    4    0    0 -0.24874563695E-01 -0.27525057626E-01 -0.74595256973E-01  0.83313181431E-01  0.51100000000E-03 0.  1.
</event>
<event>
 8    1  0.9956970E+004  0.1043930E+01  0.7957747E-01            NaN
         13   -1    0    0    0    0  0.00000000000E+00  0.00000000000E+00  0.74505805969E-08  0.10566000000E+00  0.10566000000E+00 0. -1.
     999900   -1    0    0    0    0 -0.00000000000E+00 -0.00000000000E+00 -0.74505805969E-08  0.93827000000E+00  0.93827000000E+00 0. -1.
     999902    2    1    2    0    0 -0.23255541043E-01 -0.52937245849E-03  0.63378589828E-02  0.10198204815E+01  0.10195354558E+01 0.  0.
     999903    2    3    3    0    0  0.71812971553E-01  0.85782196450E-01  0.60898937140E-01  0.12882967335E+00  0.19305856080E-01 0.  0.
         14    1    1    2    0    0  0.23255541043E-01  0.52937245849E-03 -0.63378589828E-02  0.24109518471E-01  0.00000000000E+00 0. -1.
     999901    1    3    3    0    0 -0.95068512596E-01 -0.86311568908E-01 -0.54561078157E-01  0.89099080818E+00  0.88000000000E+00 0. -1.
        -11    1    4    4    0    0  0.38176749777E-01  0.32514036063E-01  0.32226762784E-01  0.59610838991E-01  0.51100000000E-03 0.  1.
         11    1    4    4    0    0  0.33636221776E-01  0.53268160387E-01  0.28672174355E-01  0.69218834356E-01  0.51100000000E-03 0. -1.
</event>
<event>
 8    1  0.9956970E+004  0.1043930E+01  0.7957747E-01            NaN
         13   -1    0    0    0    0  0.00000000000E+00  0.00000000000E+00  0.74505805969E-08  0.10566000000E+00  0.10566000000E+00 0.  1.
     999900   -1    0    0    0    0 -0.00000000000E+00 -0.00000000000E+00 -0.74505805969E-08  0.93827000000E+00  0.93827000000E+00 0.  1.
     999902    2    1    2    0    0  0.25065715444E-02 -0.20248023111E-01 -0.12162465529E-01  0.10201772968E+01  0.10199007432E+01 0.  0.
     999903    2    3    3    0    0 -0.14042836272E-01 -0.12364346735E+00  0.40521176009E-01  0.13240476577E+00  0.20103433201E-01 0.  0.
         14    1    1    2    0    0 -0.25065715444E-02  0.20248023111E-01  0.12162465529E-01  0.23752703184E-01  0.00000000000E+00 0. -1.
     999901    1    3    3    0    0  0.16549407816E-01  0.10339544424E+00 -0.52683641538E-01  0.88777253104E+00  0.88000000000E+00 0.  1.
        -11    1    4    4    0    0 -0.13686852196E-01 -0.83468060506E-01  0.18492825760E-01  0.86582289027E-01  0.51100000000E-03 0. -1.
         11    1    4    4    0    0 -0.35598407582E-03 -0.40175406841E-01  0.22028350249E-01  0.45822476746E-01  0.51100000000E-03 0.  1.
</event>
<event>
 8    1  0.9956970E+004  0.1043930E+01  0.7957747E-01            NaN
         13   -1    0    0    0    0  0.00000000000E+00  0.00000000000E+00  0.74505805969E-08  0.10566000000E+00  0.10566000000E+00 0. -1.
     999900   -1    0    0    0    0 -0.00000000000E+00 -0.00000000000E+00 -0.74505805969E-08  0.93827000000E+00  0.93827000000E+00 0. -1.
     999902    2    1    2    0    0  0.19401546072E-01  0.36211265362E-02  0.13838017093E-01  0.10198255758E+01  0.10195406720E+01 0.  0.
     999903    2    3    3    0    0 -0.12559645527E+00 -0.10627168109E-01 -0.22755396343E-02  0.12770053919E+00  0.20367703617E-01 0.  0.
         14    1    1    2    0    0 -0.19401546072E-01 -0.36211265362E-02 -0.13838017093E-01  0.24104424167E-01  0.00000000000E+00 0.  1.
     999901    1    3    3    0    0  0.14499800134E+00  0.14248294646E-01  0.16113556727E-01  0.89212503664E+00  0.88000000000E+00 0. -1.
        -11    1    4    4    0    0 -0.96319669652E-01 -0.11575689500E-01  0.61723202428E-02  0.97210256698E-01  0.51100000000E-03 0.  1.
         11    1    4    4    0    0 -0.29276785618E-01  0.94852139031E-03 -0.84478598771E-02  0.30490282492E-01  0.51100000000E-03 0. -1.
</event>
<event>
 8    1  0.9956970E+004  0.1043930E+01  0.7957747E-01            NaN
         13   -1    0    0    0    0  0.00000000000E+00  0.00000000000E+00  0.74505805969E-08  0.10566000000E+00  0.10566000000E+00 0.  1.
     999900   -1    0    0    0    0 -0.00000000000E+00 -0.00000000000E+00 -0.74505805969E-08  0.93827000000E+00  0.93827000000E+00 0.  1.
     999902    2    1    2    0    0 -0.30864322488E-02  0.66985035895E-02 -0.21590587595E-01  0.10211144464E+01  0.10208595217E+01 0.  0.
     999903    2    3    3    0    0  0.27986680002E-01  0.12519103904E+00 -0.27032460391E-01  0.13261254247E+00  0.19982041741E-01 0.  0.
         14    1    1    2    0    0  0.30864322488E-02 -0.66985035895E-02  0.21590587595E-01  0.22815553621E-01  0.00000000000E+00 0.  1.
     999901    1    3    3    0    0 -0.31073112251E-01 -0.11849253545E+00  0.54418727967E-02  0.88850190391E+00  0.88000000000E+00 0.  1.
        -11    1    4    4    0    0  0.28225501747E-01  0.10329409457E+00 -0.16637903870E-01  0.10836710704E+00  0.51100000000E-03 0.  1.
         11    1    4    4    0    0 -0.23882174516E-03  0.21896944469E-01 -0.10394556521E-01  0.24245435430E-01  0.51100000000E-03 0. -1.
</event>
<event>
 8    1  0.9956970E+004  0.1043930E+01  0.7957747E-01            NaN
         13   -1    0    0    0    0  0.00000000000E+00  0.00000000000E+00  0.74505805969E-08  0.10566000000E+00  0.10566000000E+00 0.  1.
     999900   -1    0    0    0    0 -0.00000000000E+00 -0.00000000000E+00 -0.74505805969E-08  0.93827000000E+00  0.93827000000E+00 0. -1.
     999902    2    1    2    0    0 -0.19984221093E-02 -0.26467331726E-02 -0.26366530859E-01  0.10173557110E+01  0.10170085790E+01 0.  0.
     999903    2    3    3    0    0  0.50961590490E-01 -0.10050045242E+00 -0.60960926240E-01  0.12967508964E+00  0.20049182149E-01 0.  0.
         14    1    1    2    0    0  0.19984221093E-02  0.26467331726E-02  0.26366530859E-01  0.26574289020E-01  0.00000000000E+00 0.  1.
     999901    1    3    3    0    0 -0.52960012599E-01  0.97853719243E-01  0.34594395381E-01  0.88768062134E+00  0.88000000000E+00 0.  1.
        -11    1    4    4    0    0  0.96946186528E-02 -0.24386173358E-01 -0.23883167747E-01  0.35487151259E-01  0.51100000000E-03 0. -1.
         11    1    4    4    0    0  0.41266971837E-01 -0.76114279058E-01 -0.37077758493E-01  0.94187938384E-01  0.51100000000E-03 0.  1.
</event>
<event>
 8    1  0.9956970E+004  0.1043930E+01  0.7957747E-01            NaN
         13   -1    0    0    0    0  0.00000000000E+00  0.00000000000E+00  0.74505805969E-08  0.10566000000E+00  0.10566000000E+00 0. -1.
     999900   -1    0    0    0    0 -0.00000000000E+00 -0.00000000000E+00 -0.74505805969E-08  0.93827000000E+00  0.93827000000E+00 0. -1.
     999902    2    1    2    0    0 -0.86461915726E-02 -0.78403660799E-02 -0.16991493857E-01  0.10233159555E+01  0.10231083060E+01 0.  0.
     999903    2    3    3    0    0  0.18456981465E-01 -0.44445127660E-01  0.12065795356E+00  0.13145169396E+00  0.20128997727E-01 0.  0.
         14    1    1    2    0    0  0.86461915726E-02  0.78403660799E-02  0.16991493857E-01  0.20614044544E-01  0.00000000000E+00 0. -1.
     999901    1    3    3    0    0 -0.27103173037E-01  0.36604761581E-01 -0.13764944742E+00  0.89186426150E+00  0.88000000000E+00 0. -1.
        -11    1    4    4    0    0  0.10949239561E-01 -0.91144641425E-02  0.51387785564E-01  0.53328462661E-01  0.51100000000E-03 0. -1.
         11    1    4    4    0    0  0.75077419038E-02 -0.35330663518E-01  0.69270167998E-01  0.78123231299E-01  0.51100000000E-03 0.  1.
</event>
<event>
 8    1  0.9956970E+004  0.1043930E+01  0.7957747E-01            NaN
         13   -1    0    0    0    0  0.00000000000E+00  0.00000000000E+00  0.74505805969E-08  0.10566000000E+00  0.10566000000E+00 0. -1.
     999900   -1    0    0    0    0 -0.00000000000E+00 -0.00000000000E+00 -0.74505805969E-08  0.93827000000E+00  0.93827000000E+00 0.  1.
     999902    2    1    2    0    0 -0.88388193346E-02 -0.12949363427E-01 -0.17961761152E-01  0.10200881124E+01  0.10198094535E+01 0.  0.
     999903    2    3    3    0    0  0.83524028373E-01 -0.97946863836E-01 -0.16355228786E-01  0.13117976412E+00  0.19255792736E-01 0.  0.
         14    1    1    2    0    0  0.88388193346E-02  0.12949363427E-01  0.17961761152E-01  0.23841887595E-01  0.00000000000E+00 0. -1.
     999901    1    3    3    0    0 -0.92362847708E-01  0.84997500409E-01 -0.16065323660E-02  0.88890834829E+00  0.88000000000E+00 0. -1.
        -11    1    4    4    0    0  0.45042027050E-01 -0.38194360002E-01 -0.86854620741E-02  0.59693313773E-01  0.51100000000E-03 0.  1.
         11    1    4    4    0    0  0.38482001323E-01 -0.59752503834E-01 -0.76697667118E-02  0.71486450343E-01  0.51100000000E-03 0. -1.
</event>
<event>
 8    1  0.9956970E+004  0.1043930E+01  0.7957747E-01            NaN
         13   -1    0    0    0    0  0.00000000000E+00  0.00000000000E+00  0.74505805969E-08  0.10566000000E+00  0.10566000000E+00 0. -1.
     999900   -1    0    0    0    0 -0.00000000000E+00 -0.00000000000E+00 -0.74505805969E-08  0.93827000000E+00  0.93827000000E+00 0.  1.
     999902    2    1    2    0    0 -0.17584710662E-01  0.35682300122E-02  0.15690922155E-01  0.10200939065E+01  0.10198153846E+01 0.  0.
     999903    2    3    3    0    0  0.55833492485E-01  0.73285435724E-01  0.91100505006E-01  0.13108472405E+00  0.19893941147E-01 0.  0.
         14    1    1    2    0    0  0.17584710662E-01 -0.35682300122E-02 -0.15690922155E-01  0.23836093484E-01  0.00000000000E+00 0.  1.
     999901    1    3    3    0    0 -0.73418203147E-01 -0.69717205711E-01 -0.75409582851E-01  0.88900918247E+00  0.88000000000E+00 0.  1.
        -11    1    4    4    0    0  0.85888449873E-02  0.24410485838E-01  0.30644366535E-01  0.40112072976E-01  0.51100000000E-03 0.  1.
         11    1    4    4    0    0  0.47244647497E-01  0.48874949886E-01  0.60456138471E-01  0.90972651073E-01  0.51100000000E-03 0. -1.
</event>
<event>
 8    1  0.9956970E+004  0.1043930E+01  0.7957747E-01            NaN
         13   -1    0    0    0    0  0.00000000000E+00  0.00000000000E+00  0.74505805969E-08  0.10566000000E+00  0.10566000000E+00 0.  1.
     999900   -1    0    0    0    0 -0.00000000000E+00 -0.00000000000E+00 -0.74505805969E-08  0.93827000000E+00  0.93827000000E+00 0.  1.
     999902    2    1    2    0    0  0.24285866563E-02 -0.10253957436E-01 -0.21547169228E-01  0.10199441254E+01  0.10196620503E+01 0.  0.
     999903    2    3    3    0    0  0.25099304409E-01 -0.12717871795E+00 -0.13657031586E-01  0.13188578540E+00  0.20073477476E-01 0.  0.
         14    1    1    2    0    0 -0.24285866563E-02  0.10253957436E-01  0.21547169228E-01  0.23985874551E-01  0.00000000000E+00 0.  1.
     999901    1    3    3    0    0 -0.22670717753E-01  0.11692476051E+00 -0.78901376420E-02  0.88805834005E+00  0.88000000000E+00 0. -1.
        -11    1    4    4    0    0  0.11543414428E-01 -0.32219872410E-01  0.36177962055E-02  0.34419764165E-01  0.51100000000E-03 0.  1.
         11    1    4    4    0    0  0.13555889981E-01 -0.94958845535E-01 -0.17274827792E-01  0.97466021232E-01  0.51100000000E-03 0. -1.
</event>
<event>
 8    1  0.1090984E+005  0.1043930E+01  0.7957747E-01            NaN
         13   -1    0    0    0    0  0.00000000000E+00  0.00000000000E+00  0.74505805969E-08  0.10566000000E+00  0.10566000000E+00 0.  1.
     999900   -1    0    0    0    0 -0.00000000000E+00 -0.00000000000E+00 -0.74505805969E-08  0.93827000000E+00  0.93827000000E+00 0. -1.
     999902    2    1    2    0    0  0.22009341646E-01 -0.65731425344E-02 -0.46490513895E-02  0.10204943220E+01  0.10202251861E+01 0.  0.
     999903    2    3    3    0    0 -0.39914951163E-01  0.59984776399E-02 -0.12176541985E+00  0.13048931788E+00  0.23905220144E-01 0.  0.
         14    1    1    2    0    0 -0.22009341646E-01  0.65731425344E-02  0.46490513895E-02  0.23435677957E-01  0.00000000000E+00 0. -1.
     999901    1    3    3    0    0  0.61924292809E-01 -0.12571620174E-01  0.11711636846E+00  0.89000500416E+00  0.88000000000E+00 0.  1.
        -11    1    4    4    0    0 -0.81678018111E-02 -0.50395764011E-03 -0.61657880978E-01  0.62200662114E-01  0.51100000000E-03 0. -1.
         11    1    4    4    0    0 -0.31747149352E-01  0.65024352800E-02 -0.60107538869E-01  0.68288655766E-01  0.51100000000E-03 0.  1.
</event>
<event>
 8    1  0.9956970E+004  0.1043930E+01  0.7957747E-01            NaN
         13   -1    0    0    0    0  0.00000000000E+00  0.00000000000E+00  0.74505805969E-08  0.10566000000E+00  0.10566000000E+00 0.  1.
     999900   -1    0    0    0    0 -0.00000000000E+00 -0.00000000000E+00 -0.74505805969E-08  0.93827000000E+00  0.93827000000E+00 0.  1.
     999902    2    1    2    0    0  0.70489576257E-02 -0.19286241693E-01  0.59417219255E-02  0.10225535882E+01  0.10223301276E+01 0.  0.
     999903    2    3    3    0    0 -0.62522874627E-01 -0.87365702933E-01 -0.76529955320E-01  0.13335359357E+00  0.19607930973E-01 0.  0.
         14    1    1    2    0    0 -0.70489576257E-02  0.19286241693E-01 -0.59417219255E-02  0.21376411806E-01  0.00000000000E+00 0.  1.
     999901    1    3    3    0    0  0.69571832253E-01  0.68079461240E-01  0.82471677245E-01  0.88919999462E+00  0.88000000000E+00 0. -1.
        -11    1    4    4    0    0 -0.62667070718E-01 -0.80700072381E-01 -0.74187576321E-01  0.12626844830E+00  0.51100000000E-03 0. -1.
         11    1    4    4    0    0  0.14419609095E-03 -0.66656305523E-02 -0.23423789985E-02  0.70851452734E-02  0.51100000000E-03 0.  1.
</event>
<event>
 8    1  0.9956970E+004  0.1043930E+01  0.7957747E-01            NaN
         13   -1    0    0    0    0  0.00000000000E+00  0.00000000000E+00  0.74505805969E-08  0.10566000000E+00  0.10566000000E+00 0. -1.
     999900   -1    0    0    0    0 -0.00000000000E+00 -0.00000000000E+00 -0.74505805969E-08  0.93827000000E+00  0.93827000000E+00 0. -1.
     999902    2    1    2    0    0  0.20994899387E-01  0.42949978785E-02 -0.10110971675E-01  0.10202347567E+01  0.10199595552E+01 0.  0.
     999903    2    3    3    0    0  0.35005375608E-01  0.91383322134E-01 -0.86911517387E-01  0.13249662330E+00  0.20626571336E-01 0.  0.
         14    1    1    2    0    0 -0.20994899387E-01 -0.42949978785E-02  0.10110971675E-01  0.23695243304E-01  0.00000000000E+00 0. -1.
     999901    1    3    3    0    0 -0.14010476221E-01 -0.87088324256E-01  0.76800545713E-01  0.88773813340E+00  0.88000000000E+00 0.  1.
        -11    1    4    4    0    0  0.13821514111E-01  0.34316092777E-01 -0.20078180720E-01  0.42095402811E-01  0.51100000000E-03 0.  1.
         11    1    4    4    0    0  0.21183861497E-01  0.57067229357E-01 -0.66833336668E-01  0.90401220487E-01  0.51100000000E-03 0. -1.
</event>
<event>
 8    1  0.9956970E+004  0.1043930E+01  0.7957747E-01            NaN
         13   -1    0    0    0    0  0.00000000000E+00  0.00000000000E+00  0.74505805969E-08  0.10566000000E+00  0.10566000000E+00 0.  1.
     999900   -1    0    0    0    0 -0.00000000000E+00 -0.00000000000E+00 -0.74505805969E-08  0.93827000000E+00  0.93827000000E+00 0.  1.
     999902    2    1    2    0    0  0.16370424644E-01 -0.17609903494E-01  0.34466968711E-02  0.10196405121E+01  0.10193511636E+01 0.  0.
     999903    2    3    3    0    0  0.34057736506E-01  0.10976206019E+00 -0.53910533421E-01  0.12844675649E+00  0.19610822668E-01 0.  0.
         14    1    1    2    0    0 -0.16370424644E-01  0.17609903494E-01 -0.34466968711E-02  0.24289487920E-01  0.00000000000E+00 0.  1.
     999901    1    3    3    0    0 -0.17687311861E-01 -0.12737196369E+00  0.57357230292E-01  0.89119375559E+00  0.88000000000E+00 0. -1.
        -11    1    4    4    0    0  0.94492731819E-02  0.17172192629E-01 -0.16392969536E-01  0.25557064279E-01  0.51100000000E-03 0. -1.
         11    1    4    4    0    0  0.24608463324E-01  0.92589867563E-01 -0.37517563884E-01  0.10288969221E+00  0.51100000000E-03 0.  1.
</event>
<event>
 8    1  0.9956970E+004  0.1043930E+01  0.7957747E-01            NaN
         13   -1    0    0    0    0  0.00000000000E+00  0.00000000000E+00  0.74505805969E-08  0.10566000000E+00  0.10566000000E+00 0. -1.
     999900   -1    0    0    0    0 -0.00000000000E+00 -0.00000000000E+00 -0.74505805969E-08  0.93827000000E+00  0.93827000000E+00 0.  1.
     999902    2    1    2    0    0  0.27271525764E-02 -0.63318169552E-02  0.22382888431E-01  0.10205094329E+01  0.10202406480E+01 0.  0.
     999903    2    3    3    0    0  0.85228439793E-01 -0.16217041159E-03 -0.94572264271E-01  0.12892486898E+00  0.20341962159E-01 0.  0.
         14    1    1    2    0    0 -0.27271525764E-02  0.63318169552E-02 -0.22382888431E-01  0.23420567065E-01  0.00000000000E+00 0.  1.
     999901    1    3    3    0    0 -0.82501287217E-01 -0.61696465436E-02  0.11695515270E+00  0.89158456395E+00  0.88000000000E+00 0. -1.
        -11    1    4    4    0    0  0.60074102421E-01  0.34798898489E-03 -0.51926976774E-01  0.79408380640E-01  0.51100000000E-03 0.  1.
         11    1    4    4    0    0  0.25154337372E-01 -0.51015939647E-03 -0.42645287497E-01  0.49516488344E-01  0.51100000000E-03 0. -1.
</event>
<event>
 8    1  0.9956970E+004  0.1043930E+01  0.7957747E-01            NaN
         13   -1    0    0    0    0  0.00000000000E+00  0.00000000000E+00  0.74505805969E-08  0.10566000000E+00  0.10566000000E+00 0.  1.
     999900   -1    0    0    0    0 -0.00000000000E+00 -0.00000000000E+00 -0.74505805969E-08  0.93827000000E+00  0.93827000000E+00 0.  1.
     999902    2    1    2    0    0  0.18125706359E-01  0.29033247187E-02  0.14541079644E-01  0.10205117694E+01  0.10202430387E+01 0.  0.
     999903    2    3    3    0    0  0.73620365099E-01  0.92405338712E-01  0.57804846009E-01  0.13317754766E+00  0.20884305090E-01 0.  0.
         14    1    1    2    0    0 -0.18125706359E-01 -0.29033247187E-02 -0.14541079644E-01  0.23418230561E-01  0.00000000000E+00 0.  1.
     999901    1    3    3    0    0 -0.55494658740E-01 -0.89502013993E-01 -0.43263766365E-01  0.88733422178E+00  0.88000000000E+00 0. -1.
        -11    1    4    4    0    0  0.49646918849E-01  0.72169121433E-01  0.34739707980E-01  0.94235381207E-01  0.51100000000E-03 0.  1.
         11    1    4    4    0    0  0.23973446250E-01  0.20236217279E-01  0.23065138029E-01  0.38942166454E-01  0.51100000000E-03 0. -1.
</event>
<event>
 8    1  0.9956970E+004  0.1043930E+01  0.7957747E-01            NaN
         13   -1    0    0    0    0  0.00000000000E+00  0.00000000000E+00  0.74505805969E-08  0.10566000000E+00  0.10566000000E+00 0. -1.
     999900   -1    0    0    0    0 -0.00000000000E+00 -0.00000000000E+00 -0.74505805969E-08  0.93827000000E+00  0.93827000000E+00 0. -1.
     999902    2    1    2    0    0 -0.70964458681E-02  0.15160384312E-01 -0.16897090437E-01  0.10201453734E+01  0.10198680672E+01 0.  0.
     999903    2    3    3    0    0  0.44870297100E-03  0.10412969182E+00 -0.81076021787E-01  0.13330186852E+00  0.18784908522E-01 0.  0.
         14    1    1    2    0    0  0.70964458681E-02 -0.15160384312E-01  0.16897090437E-01  0.23784626583E-01  0.00000000000E+00 0. -1.
     999901    1    3    3    0    0 -0.75451488391E-02 -0.88969307512E-01  0.64178931349E-01  0.88684350490E+00  0.88000000000E+00 0.  1.
        -11    1    4    4    0    0  0.36006677325E-02  0.10150545408E+00 -0.79002383134E-01  0.12867773575E+00  0.51100000000E-03 0. -1.
         11    1    4    4    0    0 -0.31519647615E-02  0.26242377440E-02 -0.20736386522E-02  0.46241327679E-02  0.51100000000E-03 0.  1.
</event>
<event>
 8    1  0.9956970E+004  0.1043930E+01  0.7957747E-01            NaN
         13   -1    0    0    0    0  0.00000000000E+00  0.00000000000E+00  0.74505805969E-08  0.10566000000E+00  0.10566000000E+00 0. -1.
     999900   -1    0    0    0    0 -0.00000000000E+00 -0.00000000000E+00 -0.74505805969E-08  0.93827000000E+00  0.93827000000E+00 0.  1.
     999902    2    1    2    0    0  0.22053080758E-01  0.75620783568E-02  0.49341351303E-02  0.10200999960E+01  0.10198216181E+01 0.  0.
     999903    2    3    3    0    0  0.69785879805E-01  0.49304238499E-01 -0.99313193153E-01  0.13168098818E+00  0.13258784287E-01 0.  0.
         14    1    1    2    0    0 -0.22053080758E-01 -0.75620783568E-02 -0.49341351303E-02  0.23830003975E-01  0.00000000000E+00 0.  1.
     999901    1    3    3    0    0 -0.47732799048E-01 -0.41742160142E-01  0.10424732828E+00  0.88841900784E+00  0.88000000000E+00 0. -1.
        -11    1    4    4    0    0  0.63518149924E-02  0.98505954902E-02 -0.12279364955E-01  0.16983041833E-01  0.51100000000E-03 0. -1.
         11    1    4    4    0    0  0.63434064813E-01  0.39453643009E-01 -0.87033828198E-01  0.11469794635E+00  0.51100000000E-03 0.  1.
</event>
<event>
 8    1  0.9956970E+004  0.1043930E+01  0.7957747E-01            NaN
         13   -1    0    0    0    0  0.00000000000E+00  0.00000000000E+00  0.74505805969E-08  0.10566000000E+00  0.10566000000E+00 0. -1.
     999900   -1    0    0    0    0 -0.00000000000E+00 -0.00000000000E+00 -0.74505805969E-08  0.93827000000E+00  0.93827000000E+00 0.  1.
     999902    2    1    2    0    0 -0.30398988332E-02  0.16235488814E-01  0.17751097867E-01  0.10196826588E+01  0.10193943256E+01 0.  0.
     999903    2    3    3    0    0  0.11406686252E+00 -0.94294851246E-02  0.59944548171E-01  0.13055220056E+00  0.18718010050E-01 0.  0.
         14    1    1    2    0    0  0.30398988332E-02 -0.16235488814E-01 -0.17751097867E-01  0.24247341244E-01  0.00000000000E+00 0.  1.
     999901    1    3    3    0    0 -0.11710676136E+00  0.25664973938E-01 -0.42193450304E-01  0.88913045820E+00  0.88000000000E+00 0.  1.
        -11    1    4    4    0    0  0.26900873898E-01  0.55365176091E-02  0.16068108066E-01  0.31823815949E-01  0.51100000000E-03 0.  1.
         11    1    4    4    0    0  0.87165988624E-01 -0.14966002734E-01  0.43876440105E-01  0.98728384611E-01  0.51100000000E-03 0. -1.
</event>
<event>
 8    1  0.9956970E+004  0.1043930E+01  0.7957747E-01            NaN
         13   -1    0    0    0    0  0.00000000000E+00  0.00000000000E+00  0.74505805969E-08  0.10566000000E+00  0.10566000000E+00 0. -1.
     999900   -1    0    0    0    0 -0.00000000000E+00 -0.00000000000E+00 -0.74505805969E-08  0.93827000000E+00  0.93827000000E+00 0.  1.
     999902    2    1    2    0    0  0.24387505336E-01  0.78179389609E-02 -0.10391014720E-02  0.10182989579E+01  0.10179763344E+01 0.  0.
     999903    2    3    3    0    0  0.12896677402E+00 -0.34359674216E-02 -0.17793174634E-01  0.13187683906E+00  0.20752564723E-01 0.  0.
         14    1    1    2    0    0 -0.24387505336E-01 -0.78179389609E-02  0.10391014720E-02  0.25631042077E-01  0.00000000000E+00 0. -1.
     999901    1    3    3    0    0 -0.10457926868E+00  0.11253906383E-01  0.16754073162E-01  0.88642211887E+00  0.88000000000E+00 0. -1.
        -11    1    4    4    0    0  0.50262886823E-01 -0.11420441162E-01 -0.60459909262E-02  0.51899897836E-01  0.51100000000E-03 0.  1.
         11    1    4    4    0    0  0.78703887198E-01  0.79844737403E-02 -0.11747183707E-01  0.79976941221E-01  0.51100000000E-03 0. -1.
</event>
<event>
 8    1  0.9956970E+004  0.1043930E+01  0.7957747E-01            NaN
         13   -1    0    0    0    0  0.00000000000E+00  0.00000000000E+00  0.74505805969E-08  0.10566000000E+00  0.10566000000E+00 0.  1.
     999900   -1    0    0    0    0 -0.00000000000E+00 -0.00000000000E+00 -0.74505805969E-08  0.93827000000E+00  0.93827000000E+00 0.  1.
     999902    2    1    2    0    0 -0.14903783771E-01 -0.12700156039E-02 -0.18227568882E-01  0.10203507723E+01  0.10200782904E+01 0.  0.
     999903    2    3    3    0    0 -0.53608432597E-01  0.11782002151E+00  0.67074288175E-02  0.13113637698E+00  0.19908245838E-01 0.  0.
         14    1    1    2    0    0  0.14903783771E-01  0.12700156039E-02  0.18227568882E-01  0.23579227673E-01  0.00000000000E+00 0. -1.
     999901    1    3    3    0    0  0.38704648826E-01 -0.11909003711E+00 -0.24934997699E-01  0.88921439535E+00  0.88000000000E+00 0. -1.
        -11    1    4    4    0    0 -0.44701674164E-01  0.11018485400E+00  0.34838613897E-02  0.11895940541E+00  0.51100000000E-03 0. -1.
         11    1    4    4    0    0 -0.89067584330E-02  0.76351675066E-02  0.32235674278E-02  0.12176971569E-01  0.51100000000E-03 0.  1.
</event>
<event>
 8    1  0.9956970E+004  0.1043930E+01  0.7957747E-01            NaN
         13   -1    0    0    0    0  0.00000000000E+00  0.00000000000E+00  0.74505805969E-08  0.10566000000E+00  0.10566000000E+00 0. -1.
     999900   -1    0    0    0    0 -0.00000000000E+00 -0.00000000000E+00 -0.74505805969E-08  0.93827000000E+00  0.93827000000E+00 0.  1.
     999902    2    1    2    0    0  0.28296528066E-02  0.58872818570E-02 -0.19271527960E-01  0.10235815649E+01  0.10233792851E+01 0.  0.
     999903    2    3    3    0    0  0.93338747980E-02  0.96788105994E-01 -0.92809224689E-01  0.13582424579E+00  0.19483707944E-01 0.  0.
         14    1    1    2    0    0 -0.28296528066E-02 -0.58872818570E-02  0.19271527960E-01  0.20348435138E-01  0.00000000000E+00 0. -1.
     999901    1    3    3    0    0 -0.65042219915E-02 -0.90900824137E-01  0.73537696729E-01  0.88775731908E+00  0.88000000000E+00 0. -1.
        -11    1    4    4    0    0  0.15156319683E-01  0.58387154921E-01 -0.56907344073E-01  0.82930578296E-01  0.51100000000E-03 0.  1.
         11    1    4    4    0    0 -0.58224448845E-02  0.38400951073E-01 -0.35901880616E-01  0.52893667490E-01  0.51100000000E-03 0. -1.
</event>
<event>
 7    1  0.1217137E+005  0.1043930E+01  0.7957747E-01            NaN
         13   -1    0    0    0    0  0.00000000000E+00  0.00000000000E+00  0.74505805969E-08  0.10566000000E+00  0.10566000000E+00 0. -1.
     999900   -1    0    0    0    0 -0.00000000000E+00 -0.00000000000E+00 -0.74505805969E-08  0.93827000000E+00  0.93827000000E+00 0. -1.
     999903    2    1    2    0    0 -0.54814190559E-01 -0.55620565847E-01 -0.59337788041E-01  0.10006223357E+00  0.19830145394E-01 0.  0.
         14    1    1    2    0    0  0.44808074786E-01  0.26747569561E-01  0.35313240665E-01  0.63009689808E-01  0.00000000000E+00 0. -1.
     999901    1    1    2    0    0  0.10006115773E-01  0.28872996286E-01  0.24024547376E-01  0.88085807662E+00  0.88000000000E+00 0.  1.
        -11    1    3    3    0    0 -0.18557299365E-01 -0.31646962580E-01 -0.22158943816E-01  0.42862378752E-01  0.51100000000E-03 0.  1.
         11    1    3    3    0    0 -0.36256891194E-01 -0.23973603267E-01 -0.37178844225E-01  0.57199854821E-01  0.51100000000E-03 0. -1.
</event>
<event>
 8    1  0.9956970E+004  0.1043930E+01  0.7957747E-01            NaN
         13   -1    0    0    0    0  0.00000000000E+00  0.00000000000E+00  0.74505805969E-08  0.10566000000E+00  0.10566000000E+00 0. -1.
     999900   -1    0    0    0    0 -0.00000000000E+00 -0.00000000000E+00 -0.74505805969E-08  0.93827000000E+00  0.93827000000E+00 0. -1.
     999902    2    1    2    0    0 -0.15717314943E-01 -0.11460971286E-01  0.63133570282E-02  0.10234789284E+01  0.10232745822E+01 0.  0.
     999903    2    3    3    0    0  0.23529780379E-01  0.23936473066E-01  0.12753017035E+00  0.13359869525E+00  0.21402376352E-01 0.  0.
         14    1    1    2    0    0  0.15717314943E-01  0.11460971286E-01 -0.63133570282E-02  0.20451071580E-01  0.00000000000E+00 0. -1.
     999901    1    3    3    0    0 -0.39247095321E-01 -0.35397444352E-01 -0.12121681333E+00  0.88988023317E+00  0.88000000000E+00 0.  1.
        -11    1    4    4    0    0  0.95680079880E-02  0.23387003172E-01  0.70968781152E-01  0.75334770945E-01  0.51100000000E-03 0. -1.
         11    1    4    4    0    0  0.13961772391E-01  0.54946989382E-03  0.56561389203E-01  0.58263924302E-01  0.51100000000E-03 0.  1.
</event>
<event>
 8    1  0.9956970E+004  0.1043930E+01  0.7957747E-01            NaN
         13   -1    0    0    0    0  0.00000000000E+00  0.00000000000E+00  0.74505805969E-08  0.10566000000E+00  0.10566000000E+00 0. -1.
     999900   -1    0    0    0    0 -0.00000000000E+00 -0.00000000000E+00 -0.74505805969E-08  0.93827000000E+00  0.93827000000E+00 0.  1.
     999902    2    1    2    0    0 -0.21778081557E-01 -0.13093708526E-01  0.26759244331E-02  0.10183782758E+01  0.10180576712E+01 0.  0.
     999903    2    3    3    0    0 -0.12231553125E+00  0.41888097951E-01  0.27131933842E-02  0.13094896635E+00  0.20605058522E-01 0.  0.
         14    1    1    2    0    0  0.21778081557E-01  0.13093708526E-01 -0.26759244331E-02  0.25551724224E-01  0.00000000000E+00 0. -1.
     999901    1    3    3    0    0  0.10053744969E+00 -0.54981806477E-01 -0.37268951076E-04  0.88742930942E+00  0.88000000000E+00 0.  1.
        -11    1    4    4    0    0 -0.47014935691E-01  0.69385976538E-02 -0.37856400979E-02  0.47677463307E-01  0.51100000000E-03 0.  1.
         11    1    4    4    0    0 -0.75300595555E-01  0.34949500298E-01  0.64988334821E-02  0.83271503046E-01  0.51100000000E-03 0. -1.
</event>
<event>
 8    1  0.9956970E+004  0.1043930E+01  0.7957747E-01            NaN
         13   -1    0    0    0    0  0.00000000000E+00  0.00000000000E+00  0.74505805969E-08  0.10566000000E+00  0.10566000000E+00 0.  1.
     999900   -1    0    0    0    0 -0.00000000000E+00 -0.00000000000E+00 -0.74505805969E-08  0.93827000000E+00  0.93827000000E+00 0.  1.
     999902    2    1    2    0    0 -0.23450134656E-01 -0.43776222551E-02 -0.76899924013E-02  0.10188659146E+01  0.10185575799E+01 0.  0.
     999903    2    3    3    0    0 -0.11277405780E+00 -0.63564598187E-01 -0.17447522401E-01  0.13231243584E+00  0.21064624025E-01 0.  0.
         14    1    1    2    0    0  0.23450134656E-01  0.43776222551E-02  0.76899924013E-02  0.25064085364E-01  0.00000000000E+00 0. -1.
     999901    1    3    3    0    0  0.89323923146E-01  0.59186975932E-01  0.97575299994E-02  0.88655347879E+00  0.88000000000E+00 0.  1.
        -11    1    4    4    0    0 -0.86895287353E-01 -0.47774614992E-01 -0.22210480937E-01  0.10162072321E+00  0.51100000000E-03 0.  1.
         11    1    4    4    0    0 -0.25878770449E-01 -0.15789983196E-01  0.47629585363E-02  0.30691712632E-01  0.51100000000E-03 0. -1.
</event>
<event>
 8    1  0.9956970E+004  0.1043930E+01  0.7957747E-01            NaN
         13   -1    0    0    0    0  0.00000000000E+00  0.00000000000E+00  0.74505805969E-08  0.10566000000E+00  0.10566000000E+00 0. -1.
     999900   -1    0    0    0    0 -0.00000000000E+00 -0.00000000000E+00 -0.74505805969E-08  0.93827000000E+00  0.93827000000E+00 0. -1.
     999902    2    1    2    0    0 -0.62248621659E-02  0.15704096732E-01  0.24205027234E-01  0.10144130404E+01  0.10139835134E+01 0.  0.
     999903    2    3    3    0    0 -0.68828638811E-01  0.82480900658E-01  0.67829096054E-01  0.12859057859E+00  0.19856236717E-01 0.  0.
         14    1    1    2    0    0  0.62248621659E-02 -0.15704096732E-01 -0.24205027234E-01  0.29516959642E-01  0.00000000000E+00 0.  1.
     999901    1    3    3    0    0  0.62603776645E-01 -0.66776803926E-01 -0.43624068820E-01  0.88582246177E+00  0.88000000000E+00 0. -1.
        -11    1    4    4    0    0 -0.45257752350E-01  0.66419198626E-01  0.45469606436E-01  0.92344573876E-01  0.51100000000E-03 0. -1.
         11    1    4    4    0    0 -0.23570886461E-01  0.16061702032E-01  0.22359489617E-01  0.36246004713E-01  0.51100000000E-03 0.  1.
</event>
<event>
 8    1  0.9956970E+004  0.1043930E+01  0.7957747E-01            NaN
         13   -1    0    0    0    0  0.00000000000E+00  0.00000000000E+00  0.74505805969E-08  0.10566000000E+00  0.10566000000E+00 0.  1.
     999900   -1    0    0    0    0 -0.00000000000E+00 -0.00000000000E+00 -0.74505805969E-08  0.93827000000E+00  0.93827000000E+00 0.  1.
     999902    2    1    2    0    0  0.21163116396E-02  0.13498446705E-01  0.19540609939E-01  0.10200862949E+01  0.10198075930E+01 0.  0.
     999903    2    3    3    0    0 -0.10040657280E+00  0.79557749037E-02 -0.77336001062E-01  0.12883619482E+00  0.21751639501E-01 0.  0.
         14    1    1    2    0    0 -0.21163116396E-02 -0.13498446705E-01 -0.19540609939E-01  0.23843705148E-01  0.00000000000E+00 0. -1.
     999901    1    3    3    0    0  0.10252288444E+00  0.55426718014E-02  0.96876611001E-01  0.89125010003E+00  0.88000000000E+00 0. -1.
        -11    1    4    4    0    0 -0.35302772529E-01  0.12937370675E-01 -0.25000103976E-01  0.45154486245E-01  0.51100000000E-03 0.  1.
         11    1    4    4    0    0 -0.65103800268E-01 -0.49815957709E-02 -0.52335897085E-01  0.83681708577E-01  0.51100000000E-03 0. -1.
</event>
<event>
 8    1  0.9956970E+004  0.1043930E+01  0.7957747E-01            NaN
         13   -1    0    0    0    0  0.00000000000E+00  0.00000000000E+00  0.74505805969E-08  0.10566000000E+00  0.10566000000E+00 0.  1.
     999900   -1    0    0    0    0 -0.00000000000E+00 -0.00000000000E+00 -0.74505805969E-08  0.93827000000E+00  0.93827000000E+00 0.  1.
     999902    2    1    2    0    0  0.15355962718E-01 -0.17550767212E-01 -0.13720512366E-02  0.10205694019E+01  0.10203020075E+01 0.  0.
     999903    2    3    3    0    0  0.85288200083E-01  0.56266497754E-01  0.79454547924E-01  0.13103444158E+00  0.20420672177E-01 0.  0.
         14    1    1    2    0    0 -0.15355962718E-01  0.17550767212E-01  0.13720512366E-02  0.23360598137E-01  0.00000000000E+00 0. -1.
     999901    1    3    3    0    0 -0.69932237364E-01 -0.73817264965E-01 -0.80826599161E-01  0.88953496028E+00  0.88000000000E+00 0. -1.
        -11    1    4    4    0    0  0.38828344374E-01  0.13698719639E-01  0.32062974090E-01  0.52188031914E-01  0.51100000000E-03 0. -1.
         11    1    4    4    0    0  0.46459855708E-01  0.42567778114E-01  0.47391573834E-01  0.78846409668E-01  0.51100000000E-03 0.  1.
</event>
<event>
 8    1  0.9956970E+004  0.1043930E+01  0.7957747E-01            NaN
         13   -1    0    0    0    0  0.00000000000E+00  0.00000000000E+00  0.74505805969E-08  0.10566000000E+00  0.10566000000E+00 0.  1.
     999900   -1    0    0    0    0 -0.00000000000E+00 -0.00000000000E+00 -0.74505805969E-08  0.93827000000E+00  0.93827000000E+00 0.  1.
     999902    2    1    2    0    0  0.10456279309E-01  0.12394074283E-01 -0.16408637969E-01  0.10208607509E+01  0.10206000600E+01 0.  0.
     999903    2    3    3    0    0  0.83137329434E-01 -0.49416214605E-01 -0.88588138812E-01  0.13276563932E+00  0.20617440063E-01 0.  0.
         14    1    1    2    0    0 -0.10456279309E-01 -0.12394074283E-01  0.16408637969E-01  0.23069249106E-01  0.00000000000E+00 0.  1.
     999901    1    3    3    0    0 -0.72681050125E-01  0.61810288888E-01  0.72179500843E-01  0.88809511157E+00  0.88000000000E+00 0. -1.
        -11    1    4    4    0    0  0.53676139549E-01 -0.29431107207E-01 -0.68567696523E-01  0.91919030433E-01  0.51100000000E-03 0.  1.
         11    1    4    4    0    0  0.29461189885E-01 -0.19985107398E-01 -0.20020442289E-01  0.40846608887E-01  0.51100000000E-03 0. -1.
</event>
<event>
 8    1  0.9956970E+004  0.1043930E+01  0.7957747E-01            NaN
         13   -1    0    0    0    0  0.00000000000E+00  0.00000000000E+00  0.74505805969E-08  0.10566000000E+00  0.10566000000E+00 0.  1.
     999900   -1    0    0    0    0 -0.00000000000E+00 -0.00000000000E+00 -0.74505805969E-08  0.93827000000E+00  0.93827000000E+00 0.  1.
     999902    2    1    2    0    0 -0.17569392827E-01  0.17585472164E-01  0.20579835200E-02  0.10189867105E+01  0.10186813773E+01 0.  0.
     999903    2    3    3    0    0  0.47429859072E-01  0.32967620588E-01  0.11404344110E+00  0.12937878789E+00  0.19912527698E-01 0.  0.
         14    1    1    2    0    0  0.17569392827E-01 -0.17585472164E-01 -0.20579835200E-02  0.24943289513E-01  0.00000000000E+00 0.  1.
     999901    1    3    3    0    0 -0.64999251900E-01 -0.15382148424E-01 -0.11198545758E+00  0.88960792260E+00  0.88000000000E+00 0.  1.
        -11    1    4    4    0    0  0.13490231663E-01  0.19375563318E-01  0.34192033166E-01  0.41554242350E-01  0.51100000000E-03 0. -1.
         11    1    4    4    0    0  0.33939627409E-01  0.13592057270E-01  0.79851407934E-01  0.87824545541E-01  0.51100000000E-03 0.  1.
</event>
<event>
 8    1  0.9956970E+004  0.1043930E+01  0.7957747E-01            NaN
         13   -1    0    0    0    0  0.00000000000E+00  0.00000000000E+00  0.74505805969E-08  0.10566000000E+00  0.10566000000E+00 0. -1.
     999900   -1    0    0    0    0 -0.00000000000E+00 -0.00000000000E+00 -0.74505805969E-08  0.93827000000E+00  0.93827000000E+00 0. -1.
     999902    2    1    2    0    0  0.85280608448E-02 -0.19364924906E-01  0.89384761588E-02  0.10209599218E+01  0.10207014928E+01 0.  0.
     999903    2    3    3    0    0  0.27755079273E-01  0.73037832657E-01 -0.10065669878E+00  0.12915330022E+00  0.21069753765E-01 0.  0.
         14    1    1    2    0    0 -0.85280608448E-02  0.19364924906E-01 -0.89384761588E-02  0.22970078242E-01  0.00000000000E+00 0.  1.
     999901    1    3    3    0    0 -0.19227018428E-01 -0.92402757564E-01  0.10959517494E+00  0.89180662154E+00  0.88000000000E+00 0.  1.
        -11    1    4    4    0    0  0.12559696013E-01  0.10847953349E-01 -0.25445634057E-01  0.30383638185E-01  0.51100000000E-03 0. -1.
         11    1    4    4    0    0  0.15195383261E-01  0.62189879308E-01 -0.75211064727E-01  0.98769662038E-01  0.51100000000E-03 0.  1.
</event>
<event>
 8    1  0.9956970E+004  0.1043930E+01  0.7957747E-01            NaN
         13   -1    0    0    0    0  0.00000000000E+00  0.00000000000E+00  0.74505805969E-08  0.10566000000E+00  0.10566000000E+00 0.  1.
     999900   -1    0    0    0    0 -0.00000000000E+00 -0.00000000000E+00 -0.74505805969E-08  0.93827000000E+00  0.93827000000E+00 0. -1.
     999902    2    1    2    0    0  0.17050264272E-01  0.43275816859E-02 -0.13412667709E-01  0.10218089889E+01  0.10215695134E+01 0.  0.
     999903    2    3    3    0    0 -0.34055283272E-01 -0.67063532176E-01 -0.10671364994E+00  0.13253201218E+00  0.22795865880E-01 0.  0.
         14    1    1    2    0    0 -0.17050264272E-01 -0.43275816859E-02  0.13412667709E-01  0.22121011055E-01  0.00000000000E+00 0.  1.
     999901    1    3    3    0    0  0.51105547544E-01  0.71391113862E-01  0.93300982230E-01  0.88927697677E+00  0.88000000000E+00 0.  1.
        -11    1    4    4    0    0  0.33281385339E-02 -0.41189288205E-02 -0.59696809560E-02  0.79962674071E-02  0.51100000000E-03 0.  1.
         11    1    4    4    0    0 -0.37383421806E-01 -0.62944603356E-01 -0.10074396898E+00  0.12453574477E+00  0.51100000000E-03 0. -1.
</event>
<event>
 8    1  0.9956970E+004  0.1043930E+01  0.7957747E-01            NaN
         13   -1    0    0    0    0  0.00000000000E+00  0.00000000000E+00  0.74505805969E-08  0.10566000000E+00  0.10566000000E+00 0.  1.
     999900   -1    0    0    0    0 -0.00000000000E+00 -0.00000000000E+00 -0.74505805969E-08  0.93827000000E+00  0.93827000000E+00 0. -1.
     999902    2    1    2    0    0 -0.62744165217E-02 -0.52466383569E-02 -0.19969300456E-01  0.10223506470E+01  0.10221228776E+01 0.  0.
     999903    2    3    3    0    0 -0.52354279348E-01  0.11557614162E+00  0.28653796102E-01  0.13157250206E+00  0.19785555072E-01 0.  0.
         14    1    1    2    0    0  0.62744165217E-02  0.52466383569E-02  0.19969300456E-01  0.21579353036E-01  0.00000000000E+00 0.  1.
     999901    1    3    3    0    0  0.46079862826E-01 -0.12082277998E+00 -0.48623096558E-01  0.89077814490E+00  0.88000000000E+00 0.  1.
        -11    1    4    4    0    0 -0.37191815796E-02  0.25681782627E-01  0.25280054302E-02  0.26077542120E-01  0.51100000000E-03 0.  1.
         11    1    4    4    0    0 -0.48635097768E-01  0.89894358993E-01  0.26125790671E-01  0.10549495994E+00  0.51100000000E-03 0. -1.
</event>
<event>
 8    1  0.9956970E+004  0.1043930E+01  0.7957747E-01            NaN
         13   -1    0    0    0    0  0.00000000000E+00  0.00000000000E+00  0.74505805969E-08  0.10566000000E+00  0.10566000000E+00 0.  1.
     999900   -1    0    0    0    0 -0.00000000000E+00 -0.00000000000E+00 -0.74505805969E-08  0.93827000000E+00  0.93827000000E+00 0. -1.
     999902    2    1    2    0    0 -0.16877454767E-01 -0.71500239496E-02  0.12375454858E-01  0.10218138700E+01  0.10215745013E+01 0.  0.
     999903    2    3    3    0    0 -0.99686922346E-01  0.81389898405E-01  0.28377735118E-01  0.13335858205E+00  0.20430797983E-01 0.  0.
         14    1    1    2    0    0  0.16877454767E-01  0.71500239496E-02 -0.12375454858E-01  0.22116129970E-01  0.00000000000E+00 0. -1.
     999901    1    3    3    0    0  0.82809467578E-01 -0.88539922354E-01 -0.16002280260E-01  0.88845528798E+00  0.88000000000E+00 0. -1.
        -11    1    4    4    0    0 -0.79734835700E-01  0.74167362252E-01  0.26324121021E-01  0.11203420065E+00  0.51100000000E-03 0.  1.
         11    1    4    4    0    0 -0.19952086645E-01  0.72225361532E-02  0.20536140969E-02  0.21324381394E-01  0.51100000000E-03 0. -1.
</event>
<event>
 8    1  0.9956970E+004  0.1043930E+01  0.7957747E-01            NaN
         13   -1    0    0    0    0  0.00000000000E+00  0.00000000000E+00  0.74505805969E-08  0.10566000000E+00  0.10566000000E+00 0. -1.
     999900   -1    0    0    0    0 -0.00000000000E+00 -0.00000000000E+00 -0.74505805969E-08  0.93827000000E+00  0.93827000000E+00 0. -1.
     999902    2    1    2    0    0  0.12938916244E-01  0.19487857174E-01 -0.36512046835E-02  0.10202546240E+01  0.10199798892E+01 0.  0.
     999903    2    3    3    0    0  0.11935634180E+00 -0.30050573679E-01 -0.43246683302E-01  0.13157778373E+00  0.17130798265E-01 0.  0.
         14    1    1    2    0    0 -0.12938916244E-01 -0.19487857174E-01  0.36512046835E-02  0.23675375952E-01  0.00000000000E+00 0. -1.
     999901    1    3    3    0    0 -0.10641742555E+00  0.49538430853E-01  0.39595478619E-01  0.88867684032E+00  0.88000000000E+00 0.  1.
        -11    1    4    4    0    0  0.25257173973E-01 -0.26746564391E-02 -0.15357507796E-01  0.29684891626E-01  0.51100000000E-03 0. -1.
         11    1    4    4    0    0  0.94099167823E-01 -0.27375917240E-01 -0.27889175506E-01  0.10189289210E+00  0.51100000000E-03 0.  1.
</event>
<event>
 8    1  0.9956970E+004  0.1043930E+01  0.7957747E-01            NaN
         13   -1    0    0    0    0  0.00000000000E+00  0.00000000000E+00  0.74505805969E-08  0.10566000000E+00  0.10566000000E+00 0. -1.
     999900   -1    0    0    0    0 -0.00000000000E+00 -0.00000000000E+00 -0.74505805969E-08  0.93827000000E+00  0.93827000000E+00 0. -1.
     999902    2    1    2    0    0  0.23579994677E-01 -0.16782323064E-01 -0.15130872018E-01  0.10112710685E+01  0.10107435720E+01 0.  0.
     999903    2    3    3    0    0  0.98011957655E-01  0.68128870865E-01 -0.28854147492E-01  0.12395018168E+00  0.16828512157E-01 0.  0.
         14    1    1    2    0    0 -0.23579994677E-01  0.16782323064E-01  0.15130872018E-01  0.32658931465E-01  0.00000000000E+00 0. -1.
     999901    1    3    3    0    0 -0.74431962977E-01 -0.84911193928E-01  0.13723275474E-01  0.88732088686E+00  0.88000000000E+00 0. -1.
        -11    1    4    4    0    0  0.59539068368E-01  0.38734121241E-01 -0.89277473350E-02  0.71590492413E-01  0.51100000000E-03 0.  1.
         11    1    4    4    0    0  0.38472889287E-01  0.29394749623E-01 -0.19926400157E-01  0.52359689263E-01  0.51100000000E-03 0. -1.
</event>
<event>
 8    1  0.9956970E+004  0.1043930E+01  0.7957747E-01            NaN
         13   -1    0    0    0    0  0.00000000000E+00  0.00000000000E+00  0.74505805969E-08  0.10566000000E+00  0.10566000000E+00 0. -1.
     999900   -1    0    0    0    0 -0.00000000000E+00 -0.00000000000E+00 -0.74505805969E-08  0.93827000000E+00  0.93827000000E+00 0.  1.
     999902    2    1    2    0    0 -0.52610256640E-02 -0.89760735736E-02  0.21764977427E-01  0.10198061004E+01  0.10195207305E+01 0.  0.
     999903    2    3    3    0    0  0.60855479722E-01 -0.10717924389E+00 -0.35950425507E-01  0.13000481774E+00  0.20446021850E-01 0.  0.
         14    1    1    2    0    0  0.52610256640E-02  0.89760735736E-02 -0.21764977427E-01  0.24123899565E-01  0.00000000000E+00 0.  1.
     999901    1    3    3    0    0 -0.66116505386E-01  0.98203170315E-01  0.57715402934E-01  0.88980128269E+00  0.88000000000E+00 0.  1.
        -11    1    4    4    0    0  0.42985486234E-01 -0.89859500545E-01 -0.33012811755E-01  0.10494088205E+00  0.51100000000E-03 0.  1.
         11    1    4    4    0    0  0.17869993488E-01 -0.17319743344E-01 -0.29376137521E-02  0.25063935691E-01  0.51100000000E-03 0. -1.
</event>
<event>
 8    1  0.9956970E+004  0.1043930E+01  0.7957747E-01            NaN
         13   -1    0    0    0    0  0.00000000000E+00  0.00000000000E+00  0.74505805969E-08  0.10566000000E+00  0.10566000000E+00 0.  1.
     999900   -1    0    0    0    0 -0.00000000000E+00 -0.00000000000E+00 -0.74505805969E-08  0.93827000000E+00  0.93827000000E+00 0. -1.
     999902    2    1    2    0    0  0.15654342427E-01 -0.21062907522E-01  0.10188107192E-01  0.10157785873E+01  0.10153884165E+01 0.  0.
     999903    2    3    3    0    0  0.67229561731E-02 -0.75545503022E-02  0.12616936039E+00  0.12802079572E+00  0.19192375205E-01 0.  0.
         14    1    1    2    0    0 -0.15654342427E-01  0.21062907522E-01 -0.10188107192E-01  0.28151412722E-01  0.00000000000E+00 0.  1.
     999901    1    3    3    0    0  0.89313862536E-02 -0.13508357220E-01 -0.11598125320E+00  0.88775779156E+00  0.88000000000E+00 0. -1.
        -11    1    4    4    0    0  0.13500936786E-01 -0.51417285271E-02  0.87020259677E-01  0.88212807356E-01  0.51100000000E-03 0.  1.
         11    1    4    4    0    0 -0.67779806127E-02 -0.24128217750E-02  0.39149100713E-01  0.39807988366E-01  0.51100000000E-03 0. -1.
</event>
<event>
 8    1  0.9956970E+004  0.1043930E+01  0.7957747E-01            NaN
         13   -1    0    0    0    0  0.00000000000E+00  0.00000000000E+00  0.74505805969E-08  0.10566000000E+00  0.10566000000E+00 0. -1.
     999900   -1    0    0    0    0 -0.00000000000E+00 -0.00000000000E+00 -0.74505805969E-08  0.93827000000E+00  0.93827000000E+00 0.  1.
     999902    2    1    2    0    0  0.70208840052E-02  0.17822318665E-01  0.13485907213E-01  0.10205035716E+01  0.10202346505E+01 0.  0.
     999903    2    3    3    0    0 -0.58662507767E-01  0.11380748597E+00 -0.25643112601E-01  0.13198877684E+00  0.19236275793E-01 0.  0.
         14    1    1    2    0    0 -0.70208840052E-02 -0.17822318665E-01 -0.13485907213E-01  0.23426428413E-01  0.00000000000E+00 0.  1.
     999901    1    3    3    0    0  0.65683391772E-01 -0.95985167307E-01  0.39129019814E-01  0.88851479475E+00  0.88000000000E+00 0. -1.
        -11    1    4    4    0    0 -0.39782869913E-01  0.56327006241E-01 -0.14421111000E-01  0.70453090309E-01  0.51100000000E-03 0.  1.
         11    1    4    4    0    0 -0.18879637854E-01  0.57480479731E-01 -0.11222001601E-01  0.61535686528E-01  0.51100000000E-03 0. -1.
</event>
<event>
 8    1  0.9956970E+004  0.1043930E+01  0.7957747E-01            NaN
         13   -1    0    0    0    0  0.00000000000E+00  0.00000000000E+00  0.74505805969E-08  0.10566000000E+00  0.10566000000E+00 0.  1.
     999900   -1    0    0    0    0 -0.00000000000E+00 -0.00000000000E+00 -0.74505805969E-08  0.93827000000E+00  0.93827000000E+00 0. -1.
     999902    2    1    2    0    0  0.19213693545E-01  0.16589401476E-02 -0.13996190521E-01  0.10201012054E+01  0.10198228561E+01 0.  0.
     999903    2    3    3    0    0 -0.76218853926E-01 -0.10966674828E-01  0.99907584300E-01  0.12755381330E+00  0.18943817855E-01 0.  0.
         14    1    1    2    0    0 -0.19213693545E-01 -0.16589401476E-02  0.13996190521E-01  0.23828794580E-01  0.00000000000E+00 0.  1.
     999901    1    3    3    0    0  0.95432547470E-01  0.12625614975E-01 -0.11390377482E+00  0.89254739212E+00  0.88000000000E+00 0.  1.
        -11    1    4    4    0    0 -0.15476359679E-01 -0.92784568206E-02  0.29110114430E-01  0.34252990424E-01  0.51100000000E-03 0.  1.
         11    1    4    4    0    0 -0.60742494246E-01 -0.16882180070E-02  0.70797469870E-01  0.93300822871E-01  0.51100000000E-03 0. -1.
</event>
<event>
 8    1  0.9956970E+004  0.1043930E+01  0.7957747E-01            NaN
         13   -1    0    0    0    0  0.00000000000E+00  0.00000000000E+00  0.74505805969E-08  0.10566000000E+00  0.10566000000E+00 0. -1.
     999900   -1    0    0    0    0 -0.00000000000E+00 -0.00000000000E+00 -0.74505805969E-08  0.93827000000E+00  0.93827000000E+00 0.  1.
     999902    2    1    2    0    0  0.11226018760E-02  0.65639908143E-02 -0.22303493504E-01  0.10206535735E+01  0.10203881247E+01 0.  0.
     999903    2    3    3    0    0  0.91324282554E-01 -0.81309370116E-01  0.38214372960E-01  0.12963141721E+00  0.19814837202E-01 0.  0.
         14    1    1    2    0    0 -0.11226018760E-02 -0.65639908143E-02  0.22303493504E-01  0.23276426549E-01  0.00000000000E+00 0. -1.
     999901    1    3    3    0    0 -0.90201680678E-01  0.87873360930E-01 -0.60517866465E-01  0.89102215625E+00  0.88000000000E+00 0.  1.
        -11    1    4    4    0    0  0.78786044435E-01 -0.65083867840E-01  0.38257822115E-01  0.10911953411E+00  0.51100000000E-03 0. -1.
         11    1    4    4    0    0  0.12538238120E-01 -0.16225502276E-01 -0.43449155033E-04  0.20511883094E-01  0.51100000000E-03 0.  1.
</event>
<event>
 8    1  0.9956970E+004  0.1043930E+01  0.7957747E-01            NaN
         13   -1    0    0    0    0  0.00000000000E+00  0.00000000000E+00  0.74505805969E-08  0.10566000000E+00  0.10566000000E+00 0. -1.
     999900   -1    0    0    0    0 -0.00000000000E+00 -0.00000000000E+00 -0.74505805969E-08  0.93827000000E+00  0.93827000000E+00 0. -1.
     999902    2    1    2    0    0 -0.10712515103E-02 -0.14300364465E-01  0.17769269574E-01  0.10210959258E+01  0.10208405824E+01 0.  0.
     999903    2    3    3    0    0 -0.66442980522E-01  0.70558707311E-01 -0.82724430261E-01  0.12892245123E+00  0.19607810432E-01 0.  0.
         14    1    1    2    0    0  0.10712515103E-02  0.14300364465E-01 -0.17769269574E-01  0.22834074206E-01  0.00000000000E+00 0.  1.
     999901    1    3    3    0    0  0.65371729012E-01 -0.84859071777E-01  0.10049369983E+00  0.89217347457E+00  0.88000000000E+00 0.  1.
        -11    1    4    4    0    0 -0.46524525132E-01  0.50217071245E-01 -0.46108870393E-01  0.82538322815E-01  0.51100000000E-03 0.  1.
         11    1    4    4    0    0 -0.19918455390E-01  0.20341636066E-01 -0.36615559868E-01  0.46384128411E-01  0.51100000000E-03 0. -1.
</event>
<event>
 8    1  0.9956970E+004  0.1043930E+01  0.7957747E-01            NaN
         13   -1    0    0    0    0  0.00000000000E+00  0.00000000000E+00  0.74505805969E-08  0.10566000000E+00  0.10566000000E+00 0. -1.
     999900   -1    0    0    0    0 -0.00000000000E+00 -0.00000000000E+00 -0.74505805969E-08  0.93827000000E+00  0.93827000000E+00 0.  1.
     999902    2    1    2    0    0 -0.16294216521E-01 -0.15691969059E-01  0.10955381337E-01  0.10187951683E+01  0.10184850687E+01 0.  0.
     999903    2    3    3    0    0  0.53574332153E-01 -0.85891508212E-01 -0.77121674974E-01  0.12886980218E+00  0.20300564393E-01 0.  0.
         14    1    1    2    0    0  0.16294216521E-01  0.15691969059E-01 -0.10955381337E-01  0.25134831712E-01  0.00000000000E+00 0.  1.
     999901    1    3    3    0    0 -0.69868548674E-01  0.70199539154E-01  0.88077056312E-01  0.88992536611E+00  0.88000000000E+00 0.  1.
        -11    1    4    4    0    0  0.20182248069E-01 -0.42394016585E-01 -0.46390903365E-01  0.66007217903E-01  0.51100000000E-03 0.  1.
         11    1    4    4    0    0  0.33392084084E-01 -0.43497491628E-01 -0.30730771610E-01  0.62862584278E-01  0.51100000000E-03 0. -1.
</event>
<event>
 8    1  0.9956970E+004  0.1043930E+01  0.7957747E-01            NaN
         13   -1    0    0    0    0  0.00000000000E+00  0.00000000000E+00  0.74505805969E-08  0.10566000000E+00  0.10566000000E+00 0. -1.
     999900   -1    0    0    0    0 -0.00000000000E+00 -0.00000000000E+00 -0.74505805969E-08  0.93827000000E+00  0.93827000000E+00 0. -1.
     999902    2    1    2    0    0  0.47557248018E-02  0.62674376808E-02  0.21446947453E-01  0.10210855423E+01  0.10208299640E+01 0.  0.
     999903    2    3    3    0    0 -0.32507777371E-01 -0.11215276282E+00  0.57219542189E-01  0.13165224460E+00  0.20572790359E-01 0.  0.
         14    1    1    2    0    0 -0.47557248018E-02 -0.62674376808E-02 -0.21446947453E-01  0.22844457720E-01  0.00000000000E+00 0.  1.
     999901    1    3    3    0    0  0.37263502172E-01  0.11842020050E+00 -0.35772594736E-01  0.88943329768E+00  0.88000000000E+00 0. -1.
        -11    1    4    4    0    0 -0.32173794220E-01 -0.77639647526E-01  0.39993326991E-01  0.93074138338E-01  0.51100000000E-03 0. -1.
         11    1    4    4    0    0 -0.33398315061E-03 -0.34513115294E-01  0.17226215198E-01  0.38578106266E-01  0.51100000000E-03 0.  1.
</event>
<event>
 8    1  0.2427303E+005  0.1043930E+01  0.7957747E-01            NaN
         13   -1    0    0    0    0  0.00000000000E+00  0.00000000000E+00  0.74505805969E-08  0.10566000000E+00  0.10566000000E+00 0. -1.
     999900   -1    0    0    0    0 -0.00000000000E+00 -0.00000000000E+00 -0.74505805969E-08  0.93827000000E+00  0.93827000000E+00 0.  1.
     999902    2    1    2    0    0  0.13656823350E-01 -0.62974331538E-02 -0.19448017418E-01  0.10193456174E+01  0.10190491135E+01 0.  0.
     999903    2    3    3    0    0 -0.94803227459E-02  0.69635423853E-02 -0.13000888793E+00  0.13202668536E+00  0.19757714035E-01 0.  0.
         14    1    1    2    0    0 -0.13656823350E-01  0.62974331538E-02  0.19448017418E-01  0.24584382641E-01  0.00000000000E+00 0. -1.
     999901    1    3    3    0    0  0.23137146096E-01 -0.13260975539E-01  0.11056087051E+00  0.88731893200E+00  0.88000000000E+00 0. -1.
        -11    1    4    4    0    0  0.43256759802E-02  0.49044100925E-03 -0.68999447065E-01  0.69138533550E-01  0.51100000000E-03 0.  1.
         11    1    4    4    0    0 -0.13805998726E-01  0.64731013761E-02 -0.61009440863E-01  0.62888151807E-01  0.51100000000E-03 0. -1.
</event>
<event>
 8    1  0.9956970E+004  0.1043930E+01  0.7957747E-01            NaN
         13   -1    0    0    0    0  0.00000000000E+00  0.00000000000E+00  0.74505805969E-08  0.10566000000E+00  0.10566000000E+00 0. -1.
     999900   -1    0    0    0    0 -0.00000000000E+00 -0.00000000000E+00 -0.74505805969E-08  0.93827000000E+00  0.93827000000E+00 0.  1.
     999902    2    1    2    0    0 -0.55034110943E-03 -0.22210194670E-01  0.20426597316E-02  0.10216192833E+01  0.10213756370E+01 0.  0.
     999903    2    3    3    0    0 -0.92035874089E-01 -0.84191704699E-01 -0.43001691543E-01  0.13356505974E+00  0.20775814032E-01 0.  0.
         14    1    1    2    0    0  0.55034110943E-03  0.22210194670E-01 -0.20426597316E-02  0.22310716739E-01  0.00000000000E+00 0. -1.
     999901    1    3    3    0    0  0.91485532980E-01  0.61981510028E-01  0.45044351274E-01  0.88805422352E+00  0.88000000000E+00 0. -1.
        -11    1    4    4    0    0 -0.89542455206E-01 -0.75420191328E-01 -0.41987861490E-01  0.12437563338E+00  0.51100000000E-03 0.  1.
         11    1    4    4    0    0 -0.24934188829E-02 -0.87715133701E-02 -0.10138300530E-02  0.91894263642E-02  0.51100000000E-03 0. -1.
</event>
<event>
 8    1  0.9956970E+004  0.1043930E+01  0.7957747E-01            NaN
         13   -1    0    0    0    0  0.00000000000E+00  0.00000000000E+00  0.74505805969E-08  0.10566000000E+00  0.10566000000E+00 0. -1.
     999900   -1    0    0    0    0 -0.00000000000E+00 -0.00000000000E+00 -0.74505805969E-08  0.93827000000E+00  0.93827000000E+00 0. -1.
     999902    2    1    2    0    0  0.75911655145E-02 -0.20279186891E-01  0.97018644539E-02  0.10202024340E+01  0.10199264723E+01 0.  0.
     999903    2    3    3    0    0 -0.80737561481E-01  0.66155071151E-01 -0.71049115404E-01  0.12790564159E+00  0.20416392399E-01 0.  0.
         14    1    1    2    0    0 -0.75911655145E-02  0.20279186891E-01 -0.97018644539E-02  0.23727566009E-01  0.00000000000E+00 0.  1.
     999901    1    3    3    0    0  0.88328726996E-01 -0.86434258042E-01  0.80750979858E-01  0.89229679240E+00  0.88000000000E+00 0. -1.
        -11    1    4    4    0    0 -0.19953633524E-01  0.28221966499E-01 -0.20089329869E-01  0.39980860164E-01  0.51100000000E-03 0.  1.
         11    1    4    4    0    0 -0.60783927957E-01  0.37933104652E-01 -0.50959785535E-01  0.87924781428E-01  0.51100000000E-03 0. -1.
</event>
<event>
 8    1  0.9956970E+004  0.1043930E+01  0.7957747E-01            NaN
         13   -1    0    0    0    0  0.00000000000E+00  0.00000000000E+00  0.74505805969E-08  0.10566000000E+00  0.10566000000E+00 0. -1.
     999900   -1    0    0    0    0 -0.00000000000E+00 -0.00000000000E+00 -0.74505805969E-08  0.93827000000E+00  0.93827000000E+00 0.  1.
     999902    2    1    2    0    0  0.14552061382E-01 -0.13024702522E-01  0.93372227299E-02  0.10222830812E+01  0.10220538679E+01 0.  0.
     999903    2    3    3    0    0  0.48715398866E-01 -0.12259808268E+00  0.18859335984E-01  0.13477864180E+00  0.20152611952E-01 0.  0.
         14    1    1    2    0    0 -0.14552061382E-01  0.13024702522E-01 -0.93372227299E-02  0.21646918824E-01  0.00000000000E+00 0.  1.
     999901    1    3    3    0    0 -0.34163337484E-01  0.10957338016E+00 -0.95221132537E-02  0.88750443937E+00  0.88000000000E+00 0.  1.
        -11    1    4    4    0    0  0.42442786395E-01 -0.81686948248E-01  0.13475423316E-01  0.93037604148E-01  0.51100000000E-03 0.  1.
         11    1    4    4    0    0  0.62726124708E-02 -0.40911134434E-01  0.53839126676E-02  0.41741037655E-01  0.51100000000E-03 0. -1.
</event>
<event>
 8    1  0.9956970E+004  0.1043930E+01  0.7957747E-01            NaN
         13   -1    0    0    0    0  0.00000000000E+00  0.00000000000E+00  0.74505805969E-08  0.10566000000E+00  0.10566000000E+00 0. -1.
     999900   -1    0    0    0    0 -0.00000000000E+00 -0.00000000000E+00 -0.74505805969E-08  0.93827000000E+00  0.93827000000E+00 0. -1.
     999902    2    1    2    0    0  0.91297406967E-02 -0.13271704024E-01 -0.18289407022E-01  0.10195580345E+01  0.10192666938E+01 0.  0.
     999903    2    3    3    0    0  0.15403343996E-01 -0.40056344047E-02  0.12510779454E+00  0.12788097662E+00  0.21172524963E-01 0.  0.
         14    1    1    2    0    0 -0.91297406967E-02  0.13271704024E-01  0.18289407022E-01  0.24371965495E-01  0.00000000000E+00 0. -1.
     999901    1    3    3    0    0 -0.62736032992E-02 -0.92660696194E-02 -0.14339720156E+00  0.89167705789E+00  0.88000000000E+00 0. -1.
        -11    1    4    4    0    0 -0.50330224525E-02  0.12700396134E-02  0.30832880125E-01  0.31270943917E-01  0.51100000000E-03 0.  1.
         11    1    4    4    0    0  0.20436366448E-01 -0.52756740181E-02  0.94274914414E-01  0.96610032702E-01  0.51100000000E-03 0. -1.
</event>
<event>
 8    1  0.9956970E+004  0.1043930E+01  0.7957747E-01            NaN
         13   -1    0    0    0    0  0.00000000000E+00  0.00000000000E+00  0.74505805969E-08  0.10566000000E+00  0.10566000000E+00 0. -1.
     999900   -1    0    0    0    0 -0.00000000000E+00 -0.00000000000E+00 -0.74505805969E-08  0.93827000000E+00  0.93827000000E+00 0. -1.
     999902    2    1    2    0    0  0.17440523405E-01  0.80345158435E-02  0.31813659659E-02  0.10244660233E+01  0.10242811071E+01 0.  0.
     999903    2    3    3    0    0  0.73759454006E-01 -0.80110584709E-01 -0.76654509240E-01  0.13468225870E+00  0.20130429276E-01 0.  0.
         14    1    1    2    0    0 -0.17440523405E-01 -0.80345158435E-02 -0.31813659659E-02  0.19463976749E-01  0.00000000000E+00 0. -1.
     999901    1    3    3    0    0 -0.56318930601E-01  0.88145100553E-01  0.79835875206E-01  0.88978376455E+00  0.88000000000E+00 0.  1.
        -11    1    4    4    0    0  0.38347117283E-01 -0.47512556535E-01 -0.53877078405E-01  0.81430615440E-01  0.51100000000E-03 0.  1.
         11    1    4    4    0    0  0.35412336723E-01 -0.32598028174E-01 -0.22777430835E-01  0.53251643256E-01  0.51100000000E-03 0. -1.
</event>
<event>
 8    1  0.9956970E+004  0.1043930E+01  0.7957747E-01            NaN
         13   -1    0    0    0    0  0.00000000000E+00  0.00000000000E+00  0.74505805969E-08  0.10566000000E+00  0.10566000000E+00 0. -1.
     999900   -1    0    0    0    0 -0.00000000000E+00 -0.00000000000E+00 -0.74505805969E-08  0.93827000000E+00  0.93827000000E+00 0.  1.
     999902    2    1    2    0    0  0.10955354732E-01  0.48095078245E-02  0.19943596021E-01  0.10206727821E+01  0.10204077763E+01 0.  0.
     999903    2    3    3    0    0 -0.11109227851E+00 -0.52085506769E-01 -0.29705123439E-01  0.12904636771E+00  0.26761470464E-01 0.  0.
         14    1    1    2    0    0 -0.10955354732E-01 -0.48095078245E-02 -0.19943596021E-01  0.23257217913E-01  0.00000000000E+00 0. -1.
     999901    1    3    3    0    0  0.12204763324E+00  0.56895014593E-01  0.49648719460E-01  0.89162641437E+00  0.88000000000E+00 0.  1.
        -11    1    4    4    0    0 -0.46251494333E-01 -0.84747771916E-02 -0.16247478944E-01  0.49752027792E-01  0.51100000000E-03 0. -1.
         11    1    4    4    0    0 -0.64840784178E-01 -0.43610729577E-01 -0.13457644495E-01  0.79294339920E-01  0.51100000000E-03 0.  1.
</event>
<event>
 8    1  0.9956970E+004  0.1043930E+01  0.7957747E-01            NaN
         13   -1    0    0    0    0  0.00000000000E+00  0.00000000000E+00  0.74505805969E-08  0.10566000000E+00  0.10566000000E+00 0. -1.
     999900   -1    0    0    0    0 -0.00000000000E+00 -0.00000000000E+00 -0.74505805969E-08  0.93827000000E+00  0.93827000000E+00 0. -1.
     999902    2    1    2    0    0  0.19636495737E-02  0.24098129370E-01  0.42370927460E-02  0.10193835397E+01  0.10190879610E+01 0.  0.
     999903    2    3    3    0    0  0.11373632037E+00  0.12661466748E-01  0.59649148817E-01  0.13051098238E+00  0.19463613604E-01 0.  0.
         14    1    1    2    0    0 -0.19636495737E-02 -0.24098129370E-01 -0.42370927460E-02  0.24546460309E-01  0.00000000000E+00 0.  1.
     999901    1    3    3    0    0 -0.11177267080E+00  0.11436662622E-01 -0.55412056071E-01  0.88887255731E+00  0.88000000000E+00 0.  1.
        -11    1    4    4    0    0  0.82524396647E-01  0.48661762279E-02  0.34100154870E-01  0.89426156108E-01  0.51100000000E-03 0. -1.
         11    1    4    4    0    0  0.31211923724E-01  0.77952905196E-02  0.25548993946E-01  0.41084826268E-01  0.51100000000E-03 0.  1.
</event>
<event>
 8    1  0.9956970E+004  0.1043930E+01  0.7957747E-01            NaN
         13   -1    0    0    0    0  0.00000000000E+00  0.00000000000E+00  0.74505805969E-08  0.10566000000E+00  0.10566000000E+00 0.  1.
     999900   -1    0    0    0    0 -0.00000000000E+00 -0.00000000000E+00 -0.74505805969E-08  0.93827000000E+00  0.93827000000E+00 0.  1.
     999902    2    1    2    0    0 -0.11581311984E-01  0.19491508525E-01  0.69416037111E-02  0.10202185776E+01  0.10199429957E+01 0.  0.
     999903    2    3    3    0    0 -0.46070652558E-01 -0.56643949672E-01 -0.10499621431E+00  0.12919882598E+00  0.18359998737E-01 0.  0.
         14    1    1    2    0    0  0.11581311984E-01 -0.19491508525E-01 -0.69416037111E-02  0.23711422436E-01  0.00000000000E+00 0. -1.
     999901    1    3    3    0    0  0.34489340573E-01  0.76135458197E-01  0.11193781802E+00  0.89101975158E+00  0.88000000000E+00 0.  1.
        -11    1    4    4    0    0 -0.46409752089E-01 -0.48548781357E-01 -0.94073683489E-01  0.11558965484E+00  0.51100000000E-03 0.  1.
         11    1    4    4    0    0  0.33909953109E-03 -0.80951683147E-02 -0.10922530822E-01  0.13609171139E-01  0.51100000000E-03 0. -1.
</event>
<event>
 8    1  0.9956970E+004  0.1043930E+01  0.7957747E-01            NaN
         13   -1    0    0    0    0  0.00000000000E+00  0.00000000000E+00  0.74505805969E-08  0.10566000000E+00  0.10566000000E+00 0. -1.
     999900   -1    0    0    0    0 -0.00000000000E+00 -0.00000000000E+00 -0.74505805969E-08  0.93827000000E+00  0.93827000000E+00 0. -1.
     999902    2    1    2    0    0  0.22184979174E-01  0.10596273897E-01 -0.49071096688E-02  0.10188594187E+01  0.10185509222E+01 0.  0.
     999903    2    3    3    0    0 -0.77158593499E-01  0.12792938557E-01 -0.99848495654E-01  0.12819234423E+00  0.18613092371E-01 0.  0.
         14    1    1    2    0    0 -0.22184979174E-01 -0.10596273897E-01  0.49071096688E-02  0.25070581301E-01  0.00000000000E+00 0.  1.
     999901    1    3    3    0    0  0.99343572673E-01 -0.21966646604E-02  0.94941385985E-01  0.89066707447E+00  0.88000000000E+00 0.  1.
        -11    1    4    4    0    0 -0.73430455803E-01  0.78171819163E-02 -0.88699489138E-01  0.11541663947E+00  0.51100000000E-03 0. -1.
         11    1    4    4    0    0 -0.37281376961E-02  0.49757566407E-02 -0.11149006517E-01  0.12775704761E-01  0.51100000000E-03 0.  1.
</event>
<event>
 8    1  0.9956970E+004  0.1043930E+01  0.7957747E-01            NaN
         13   -1    0    0    0    0  0.00000000000E+00  0.00000000000E+00  0.74505805969E-08  0.10566000000E+00  0.10566000000E+00 0.  1.
     999900   -1    0    0    0    0 -0.00000000000E+00 -0.00000000000E+00 -0.74505805969E-08  0.93827000000E+00  0.93827000000E+00 0.  1.
     999902    2    1    2    0    0 -0.13761988144E-01 -0.20188159313E-01  0.26802885611E-02  0.10193507803E+01  0.10190544025E+01 0.  0.
     999903    2    3    3    0    0  0.12428783568E+00 -0.46224532034E-02 -0.24813430645E-01  0.12802819579E+00  0.17512264441E-01 0.  0.
         14    1    1    2    0    0  0.13761988144E-01  0.20188159313E-01 -0.26802885611E-02  0.24579219697E-01  0.00000000000E+00 0.  1.
     999901    1    3    3    0    0 -0.13804982382E+00 -0.15565706110E-01  0.27493719206E-01  0.89132258451E+00  0.88000000000E+00 0.  1.
        -11    1    4    4    0    0  0.52060351306E-01 -0.89138632855E-02 -0.15671949636E-01  0.55096354354E-01  0.51100000000E-03 0.  1.
         11    1    4    4    0    0  0.72227484374E-01  0.42914100821E-02 -0.91414810096E-02  0.72931841438E-01  0.51100000000E-03 0. -1.
</event>
<event>
 8    1  0.9956970E+004  0.1043930E+01  0.7957747E-01            NaN
         13   -1    0    0    0    0  0.00000000000E+00  0.00000000000E+00  0.74505805969E-08  0.10566000000E+00  0.10566000000E+00 0.  1.
     999900   -1    0    0    0    0 -0.00000000000E+00 -0.00000000000E+00 -0.74505805969E-08  0.93827000000E+00  0.93827000000E+00 0. -1.
     999902    2    1    2    0    0 -0.21630536001E-01  0.80794217388E-02 -0.95302019659E-03  0.10208201452E+01  0.10205585252E+01 0.  0.
     999903    2    3    3    0    0  0.67085526648E-01 -0.49764775196E-01 -0.96678850576E-01  0.12931584035E+00  0.19969618934E-01 0.  0.
         14    1    1    2    0    0  0.21630536001E-01 -0.80794217388E-02  0.95302019659E-03  0.23109854842E-01  0.00000000000E+00 0.  1.
     999901    1    3    3    0    0 -0.88716062650E-01  0.57844196935E-01  0.95725830380E-01  0.89150430481E+00  0.88000000000E+00 0. -1.
        -11    1    4    4    0    0  0.54893101128E-01 -0.37706005838E-01 -0.63780462998E-01  0.92212819114E-01  0.51100000000E-03 0.  1.
         11    1    4    4    0    0  0.12192425520E-01 -0.12058769358E-01 -0.32898387578E-01  0.37103021234E-01  0.51100000000E-03 0. -1.
</event>
<event>
 8    1  0.9956970E+004  0.1043930E+01  0.7957747E-01            NaN
         13   -1    0    0    0    0  0.00000000000E+00  0.00000000000E+00  0.74505805969E-08  0.10566000000E+00  0.10566000000E+00 0. -1.
     999900   -1    0    0    0    0 -0.00000000000E+00 -0.00000000000E+00 -0.74505805969E-08  0.93827000000E+00  0.93827000000E+00 0. -1.
     999902    2    1    2    0    0 -0.15003107054E-01 -0.15838206550E-01 -0.10282030162E-01  0.10198123270E+01  0.10195271061E+01 0.  0.
     999903    2    3    3    0    0 -0.58600728946E-01 -0.39757363062E-01 -0.11024721178E+00  0.13275769719E+00  0.21341628506E-01 0.  0.
         14    1    1    2    0    0  0.15003107054E-01  0.15838206550E-01  0.10282030162E-01  0.24117673027E-01  0.00000000000E+00 0. -1.
     999901    1    3    3    0    0  0.43597621892E-01  0.23919156512E-01  0.99965181619E-01  0.88705462978E+00  0.88000000000E+00 0. -1.
        -11    1    4    4    0    0 -0.23851891312E-01 -0.21631574582E-01 -0.67332056142E-01  0.74637153238E-01  0.51100000000E-03 0.  1.
         11    1    4    4    0    0 -0.34748837634E-01 -0.18125788479E-01 -0.42915155638E-01  0.58120543952E-01  0.51100000000E-03 0. -1.
</event>
<event>
 8    1  0.9956970E+004  0.1043930E+01  0.7957747E-01            NaN
         13   -1    0    0    0    0  0.00000000000E+00  0.00000000000E+00  0.74505805969E-08  0.10566000000E+00  0.10566000000E+00 0.  1.
     999900   -1    0    0    0    0 -0.00000000000E+00 -0.00000000000E+00 -0.74505805969E-08  0.93827000000E+00  0.93827000000E+00 0. -1.
     999902    2    1    2    0    0 -0.95710585018E-02  0.21291460230E-01  0.30399725566E-02  0.10203891234E+01  0.10201175374E+01 0.  0.
     999903    2    3    3    0    0 -0.10069274342E+00  0.77438724914E-01 -0.34247273560E-01  0.13312027149E+00  0.20306310353E-01 0.  0.
         14    1    1    2    0    0  0.95710585018E-02 -0.21291460230E-01 -0.30399725566E-02  0.23540876635E-01  0.00000000000E+00 0. -1.
     999901    1    3    3    0    0  0.91121684919E-01 -0.56147264684E-01  0.37287246116E-01  0.88726885188E+00  0.88000000000E+00 0.  1.
        -11    1    4    4    0    0 -0.76935373883E-01  0.65547849086E-01 -0.20230991144E-01  0.10307825376E+00  0.51100000000E-03 0.  1.
         11    1    4    4    0    0 -0.23757369537E-01  0.11890875828E-01 -0.14016282416E-01  0.30042017726E-01  0.51100000000E-03 0. -1.
</event>
<event>
 8    1  0.9956970E+004  0.1043930E+01  0.7957747E-01            NaN
         13   -1    0    0    0    0  0.00000000000E+00  0.00000000000E+00  0.74505805969E-08  0.10566000000E+00  0.10566000000E+00 0. -1.
     999900   -1    0    0    0    0 -0.00000000000E+00 -0.00000000000E+00 -0.74505805969E-08  0.93827000000E+00  0.93827000000E+00 0.  1.
     999902    2    1    2    0    0 -0.27444151372E-02  0.22483878488E-01  0.68241718631E-02  0.10202735859E+01  0.10199992962E+01 0.  0.
     999903    2    3    3    0    0  0.98780461548E-01  0.17722572865E-01 -0.80390794169E-01  0.13014077507E+00  0.20056728964E-01 0.  0.
         14    1    1    2    0    0  0.27444151372E-02 -0.22483878488E-01 -0.68241718631E-02  0.23656414097E-01  0.00000000000E+00 0.  1.
     999901    1    3    3    0    0 -0.10152487669E+00  0.47613056224E-02  0.87214966032E-01  0.89013281083E+00  0.88000000000E+00 0.  1.
        -11    1    4    4    0    0  0.43390220796E-01  0.28915443396E-02 -0.45865181346E-01  0.63205603156E-01  0.51100000000E-03 0. -1.
         11    1    4    4    0    0  0.55390240752E-01  0.14831028526E-01 -0.34525612823E-01  0.66935171917E-01  0.51100000000E-03 0.  1.
</event>
<event>
 8    1  0.9956970E+004  0.1043930E+01  0.7957747E-01            NaN
         13   -1    0    0    0    0  0.00000000000E+00  0.00000000000E+00  0.74505805969E-08  0.10566000000E+00  0.10566000000E+00 0.  1.
     999900   -1    0    0    0    0 -0.00000000000E+00 -0.00000000000E+00 -0.74505805969E-08  0.93827000000E+00  0.93827000000E+00 0.  1.
     999902    2    1    2    0    0  0.20092580847E-01 -0.55396402209E-02 -0.10810711915E-01  0.10204508409E+01  0.10201806937E+01 0.  0.
     999903    2    3    3    0    0 -0.33670841409E-01  0.57079075785E-01 -0.11079502544E+00  0.13095184029E+00  0.21934000119E-01 0.  0.
         14    1    1    2    0    0 -0.20092580847E-01  0.55396402209E-02  0.10810711915E-01  0.23479159078E-01  0.00000000000E+00 0.  1.
     999901    1    3    3    0    0  0.53763422256E-01 -0.62618716006E-01  0.99984313522E-01  0.88949900063E+00  0.88000000000E+00 0. -1.
        -11    1    4    4    0    0 -0.31716820285E-01  0.51253049704E-01 -0.83580676101E-01  0.10304767019E+00  0.51100000000E-03 0. -1.
         11    1    4    4    0    0 -0.19540211234E-02  0.58260260806E-02 -0.27214349336E-01  0.27904170105E-01  0.51100000000E-03 0.  1.
</event>
<event>
 8    1  0.9956970E+004  0.1043930E+01  0.7957747E-01            NaN
         13   -1    0    0    0    0  0.00000000000E+00  0.00000000000E+00  0.74505805969E-08  0.10566000000E+00  0.10566000000E+00 0.  1.
     999900   -1    0    0    0    0 -0.00000000000E+00 -0.00000000000E+00 -0.74505805969E-08  0.93827000000E+00  0.93827000000E+00 0.  1.
     999902    2    1    2    0    0  0.20588973456E-01 -0.12121052644E-01 -0.49052041222E-03  0.10200330053E+01  0.10197530415E+01 0.  0.
     999903    2    3    3    0    0 -0.96613734410E-01  0.73945255123E-01 -0.32481912941E-01  0.12752679622E+00  0.20146827376E-01 0.  0.
         14    1    1    2    0    0 -0.20588973456E-01  0.12121052644E-01  0.49052041222E-03  0.23896994695E-01  0.00000000000E+00 0. -1.
     999901    1    3    3    0    0  0.11720270787E+00 -0.86066307767E-01  0.31991392529E-01  0.89250620909E+00  0.88000000000E+00 0.  1.
        -11    1    4    4    0    0 -0.54832588963E-01  0.29410443933E-01 -0.17770956274E-01  0.64712093404E-01  0.51100000000E-03 0. -1.
         11    1    4    4    0    0 -0.41781145447E-01  0.44534811189E-01 -0.14710956667E-01  0.62814702814E-01  0.51100000000E-03 0.  1.
</event>
<event>
 8    1  0.9956970E+004  0.1043930E+01  0.7957747E-01            NaN
         13   -1    0    0    0    0  0.00000000000E+00  0.00000000000E+00  0.74505805969E-08  0.10566000000E+00  0.10566000000E+00 0.  1.
     999900   -1    0    0    0    0 -0.00000000000E+00 -0.00000000000E+00 -0.74505805969E-08  0.93827000000E+00  0.93827000000E+00 0. -1.
     999902    2    1    2    0    0 -0.11971121349E-01 -0.16623948464E-01 -0.12351110336E-01  0.10200090189E+01  0.10197284861E+01 0.  0.
     999903    2    3    3    0    0  0.36710983044E-01  0.10921990410E+00 -0.54492172971E-01  0.12872764266E+00  0.18020137132E-01 0.  0.
         14    1    1    2    0    0  0.11971121349E-01  0.16623948464E-01  0.12351110336E-01  0.23920981072E-01  0.00000000000E+00 0.  1.
     999901    1    3    3    0    0 -0.48682104394E-01 -0.12584385257E+00  0.42141062635E-01  0.89128137627E+00  0.88000000000E+00 0.  1.
        -11    1    4    4    0    0  0.21130180066E-01  0.36601068981E-01 -0.17395033435E-01  0.45705263038E-01  0.51100000000E-03 0.  1.
         11    1    4    4    0    0  0.15580802978E-01  0.72618835121E-01 -0.37097139536E-01  0.83022379625E-01  0.51100000000E-03 0. -1.
</event>
<event>
 8    1  0.9956970E+004  0.1043930E+01  0.7957747E-01            NaN
         13   -1    0    0    0    0  0.00000000000E+00  0.00000000000E+00  0.74505805969E-08  0.10566000000E+00  0.10566000000E+00 0. -1.
     999900   -1    0    0    0    0 -0.00000000000E+00 -0.00000000000E+00 -0.74505805969E-08  0.93827000000E+00  0.93827000000E+00 0. -1.
     999902    2    1    2    0    0  0.36020671444E-03 -0.18856848911E-01  0.14867025390E-01  0.10199146103E+01  0.10196318322E+01 0.  0.
     999903    2    3    3    0    0  0.11697085920E+00 -0.26769742902E-01  0.49933886999E-01  0.13149447152E+00  0.19965017713E-01 0.  0.
         14    1    1    2    0    0 -0.36020671444E-03  0.18856848911E-01 -0.14867025390E-01  0.24015389726E-01  0.00000000000E+00 0.  1.
     999901    1    3    3    0    0 -0.11661065248E+00  0.79128939910E-02 -0.35066861609E-01  0.88842013876E+00  0.88000000000E+00 0. -1.
        -11    1    4    4    0    0  0.64581260992E-01 -0.60561709145E-02  0.21138748353E-01  0.68224074053E-01  0.51100000000E-03 0.  1.
         11    1    4    4    0    0  0.52389598207E-01 -0.20713571987E-01  0.28795138646E-01  0.63270397465E-01  0.51100000000E-03 0. -1.
</event>
<event>
 8    1  0.9956970E+004  0.1043930E+01  0.7957747E-01            NaN
         13   -1    0    0    0    0  0.00000000000E+00  0.00000000000E+00  0.74505805969E-08  0.10566000000E+00  0.10566000000E+00 0. -1.
     999900   -1    0    0    0    0 -0.00000000000E+00 -0.00000000000E+00 -0.74505805969E-08  0.93827000000E+00  0.93827000000E+00 0.  1.
     999902    2    1    2    0    0  0.21299082819E-01 -0.10544635731E-01 -0.57102733100E-02  0.10194872609E+01  0.10191942051E+01 0.  0.
     999903    2    3    3    0    0  0.38692342377E-01 -0.12427968792E+00  0.63782762827E-02  0.13191511142E+00  0.20454242186E-01 0.  0.
         14    1    1    2    0    0 -0.21299082819E-01  0.10544635731E-01  0.57102733100E-02  0.24442739063E-01  0.00000000000E+00 0.  1.
     999901    1    3    3    0    0 -0.17393259558E-01  0.11373505219E+00 -0.12088549593E-01  0.88757214952E+00  0.88000000000E+00 0. -1.
        -11    1    4    4    0    0  0.87995609401E-02 -0.47572390119E-01  0.10407790703E-01  0.49488865442E-01  0.51100000000E-03 0. -1.
         11    1    4    4    0    0  0.29892781437E-01 -0.76707297801E-01 -0.40295144198E-02  0.82426245974E-01  0.51100000000E-03 0.  1.
</event>
<event>
 8    1  0.9956970E+004  0.1043930E+01  0.7957747E-01            NaN
         13   -1    0    0    0    0  0.00000000000E+00  0.00000000000E+00  0.74505805969E-08  0.10566000000E+00  0.10566000000E+00 0.  1.
     999900   -1    0    0    0    0 -0.00000000000E+00 -0.00000000000E+00 -0.74505805969E-08  0.93827000000E+00  0.93827000000E+00 0.  1.
     999902    2    1    2    0    0  0.89707556522E-02  0.12666390352E-01  0.19581182571E-01  0.10189433113E+01  0.10186369015E+01 0.  0.
     999903    2    3    3    0    0  0.91471030053E-01 -0.24141989301E-01 -0.84479625930E-01  0.12821899707E+00  0.18802101630E-01 0.  0.
         14    1    1    2    0    0 -0.89707556522E-02 -0.12666390352E-01 -0.19581182571E-01  0.24986688704E-01  0.00000000000E+00 0. -1.
     999901    1    3    3    0    0 -0.82500274401E-01  0.36808379654E-01  0.10406080850E+00  0.89072431423E+00  0.88000000000E+00 0. -1.
        -11    1    4    4    0    0  0.64666654461E-02 -0.47223079763E-02 -0.13850351909E-01  0.16006602501E-01  0.51100000000E-03 0. -1.
         11    1    4    4    0    0  0.85004364607E-01 -0.19419681325E-01 -0.70629274021E-01  0.11221239457E+00  0.51100000000E-03 0.  1.
</event>
<event>
 8    1  0.9956970E+004  0.1043930E+01  0.7957747E-01            NaN
         13   -1    0    0    0    0  0.00000000000E+00  0.00000000000E+00  0.74505805969E-08  0.10566000000E+00  0.10566000000E+00 0.  1.
     999900   -1    0    0    0    0 -0.00000000000E+00 -0.00000000000E+00 -0.74505805969E-08  0.93827000000E+00  0.93827000000E+00 0.  1.
     999902    2    1    2    0    0 -0.20938772908E-01 -0.88635771000E-02  0.67682762004E-02  0.10202064932E+01  0.10199306271E+01 0.  0.
     999903    2    3    3    0    0 -0.11305418894E+00  0.43349431672E-02 -0.67044759635E-01  0.13222686788E+00  0.13744214246E-01 0.  0.
         14    1    1    2    0    0  0.20938772908E-01  0.88635771000E-02 -0.67682762004E-02  0.23723506753E-01  0.00000000000E+00 0. -1.
     999901    1    3    3    0    0  0.92115416034E-01 -0.13198520267E-01  0.73813035835E-01  0.88797962537E+00  0.88000000000E+00 0. -1.
        -11    1    4    4    0    0 -0.18982097965E-01 -0.23257277192E-02 -0.67295415432E-02  0.20279963091E-01  0.51100000000E-03 0. -1.
         11    1    4    4    0    0 -0.94072090977E-01  0.66606708864E-02 -0.60315218092E-01  0.11194690479E+00  0.51100000000E-03 0.  1.
</event>
<event>
 8    1  0.9956970E+004  0.1043930E+01  0.7957747E-01            NaN
         13   -1    0    0    0    0  0.00000000000E+00  0.00000000000E+00  0.74505805969E-08  0.10566000000E+00  0.10566000000E+00 0.  1.
     999900   -1    0    0    0    0 -0.00000000000E+00 -0.00000000000E+00 -0.74505805969E-08  0.93827000000E+00  0.93827000000E+00 0.  1.
     999902    2    1    2    0    0  0.24396195768E-01 -0.52897983240E-02 -0.31557685107E-02  0.10187682193E+01  0.10184574460E+01 0.  0.
     999903    2    3    3    0    0 -0.53089123014E-01  0.83377707054E-01  0.77394125477E-01  0.12727835026E+00  0.20967373963E-01 0.  0.
         14    1    1    2    0    0 -0.24396195768E-01  0.52897983240E-02  0.31557685107E-02  0.25161780723E-01  0.00000000000E+00 0.  1.
     999901    1    3    3    0    0  0.77485318782E-01 -0.88667505378E-01 -0.80549893988E-01  0.89148986902E+00  0.88000000000E+00 0.  1.
        -11    1    4    4    0    0 -0.11416398130E-01  0.29176563905E-01  0.15096898415E-01  0.34781942015E-01  0.51100000000E-03 0. -1.
         11    1    4    4    0    0 -0.41672724884E-01  0.54201143149E-01  0.62297227062E-01  0.92496408246E-01  0.51100000000E-03 0.  1.
</event>
<event>
 8    1  0.9956970E+004  0.1043930E+01  0.7957747E-01            NaN
         13   -1    0    0    0    0  0.00000000000E+00  0.00000000000E+00  0.74505805969E-08  0.10566000000E+00  0.10566000000E+00 0.  1.
     999900   -1    0    0    0    0 -0.00000000000E+00 -0.00000000000E+00 -0.74505805969E-08  0.93827000000E+00  0.93827000000E+00 0. -1.
     999902    2    1    2    0    0 -0.70521949777E-02 -0.20048670951E-02  0.22693530648E-01  0.10200815351E+01  0.10198027206E+01 0.  0.
     999903    2    3    3    0    0 -0.55557449907E-01  0.86396708884E-01  0.80934023262E-01  0.13241067638E+00  0.20766548876E-01 0.  0.
         14    1    1    2    0    0  0.70521949777E-02  0.20048670951E-02 -0.22693530648E-01  0.23848464926E-01  0.00000000000E+00 0. -1.
     999901    1    3    3    0    0  0.48505254930E-01 -0.88401575979E-01 -0.58240492614E-01  0.88767085869E+00  0.88000000000E+00 0. -1.
        -11    1    4    4    0    0 -0.44809920345E-01  0.62655049665E-01  0.70202257744E-01  0.10422188985E+00  0.51100000000E-03 0. -1.
         11    1    4    4    0    0 -0.10747529562E-01  0.23741659219E-01  0.10731765518E-01  0.28188786534E-01  0.51100000000E-03 0.  1.
</event>
<event>
 8    1  0.9956970E+004  0.1043930E+01  0.7957747E-01            NaN
         13   -1    0    0    0    0  0.00000000000E+00  0.00000000000E+00  0.74505805969E-08  0.10566000000E+00  0.10566000000E+00 0.  1.
     999900   -1    0    0    0    0 -0.00000000000E+00 -0.00000000000E+00 -0.74505805969E-08  0.93827000000E+00  0.93827000000E+00 0.  1.
     999902    2    1    2    0    0  0.23708342665E-01 -0.97174806970E-02 -0.59124672700E-02  0.10176341408E+01  0.10172943391E+01 0.  0.
     999903    2    3    3    0    0 -0.73507242995E-01 -0.63803594359E-01 -0.79973985764E-01  0.12754353510E+00  0.19932423887E-01 0.  0.
         14    1    1    2    0    0 -0.23708342665E-01  0.97174806970E-02  0.59124672700E-02  0.26295859222E-01  0.00000000000E+00 0.  1.
     999901    1    3    3    0    0  0.97215585660E-01  0.54086113663E-01  0.74061518494E-01  0.89009060567E+00  0.88000000000E+00 0.  1.
        -11    1    4    4    0    0 -0.42042846883E-01 -0.48982441157E-01 -0.50808986170E-01  0.82150439514E-01  0.51100000000E-03 0. -1.
         11    1    4    4    0    0 -0.31464396113E-01 -0.14821153203E-01 -0.29164999594E-01  0.45393095590E-01  0.51100000000E-03 0.  1.
</event>
<event>
 7    1  0.9956970E+004  0.1043930E+01  0.7957747E-01            NaN
         13   -1    0    0    0    0  0.00000000000E+00  0.00000000000E+00  0.74505805969E-08  0.10566000000E+00  0.10566000000E+00 0. -1.
     999900   -1    0    0    0    0 -0.00000000000E+00 -0.00000000000E+00 -0.74505805969E-08  0.93827000000E+00  0.93827000000E+00 0.  1.
     999902    2    1    2    0    0 -0.28298307594E-02 -0.57033649642E-02 -0.21946297739E-01  0.10210788228E+01  0.10208230925E+01 0.  0.
         14    1    1    2    0    0  0.28298307594E-02  0.57033649642E-02  0.21946297739E-01  0.22851177179E-01  0.00000000000E+00 0. -1.
     999901    1    3    3    0    0 -0.21811571631E-01  0.58851890910E-01 -0.10916884686E+00  0.88896407512E+00  0.88000000000E+00 0.  1.
        -11    1    3    3    0    0 -0.15386388986E-01 -0.46035473473E-01  0.16389210191E-01  0.51233515550E-01  0.51100000000E-03 0. -1.
         11    1    3    3    0    0  0.34368129858E-01 -0.18519782401E-01  0.70833338930E-01  0.80881232156E-01  0.51100000000E-03 0.  1.
</event>
<event>
 8    1  0.9956970E+004  0.1043930E+01  0.7957747E-01            NaN
         13   -1    0    0    0    0  0.00000000000E+00  0.00000000000E+00  0.74505805969E-08  0.10566000000E+00  0.10566000000E+00 0.  1.
     999900   -1    0    0    0    0 -0.00000000000E+00 -0.00000000000E+00 -0.74505805969E-08  0.93827000000E+00  0.93827000000E+00 0.  1.
     999902    2    1    2    0    0  0.44658864998E-02 -0.22406440192E-01  0.13269009990E-02  0.10210443414E+01  0.10207878299E+01 0.  0.
     999903    2    3    3    0    0 -0.84702373203E-01  0.92179323962E-01 -0.23738625032E-01  0.12879484909E+00  0.18790184738E-01 0.  0.
         14    1    1    2    0    0 -0.44658864998E-02  0.22406440192E-01 -0.13269009990E-02  0.22885658622E-01  0.00000000000E+00 0.  1.
     999901    1    3    3    0    0  0.89168259703E-01 -0.11458576415E+00  0.25065526031E-01  0.89224949228E+00  0.88000000000E+00 0. -1.
        -11    1    4    4    0    0 -0.13809939997E-01  0.10535414621E-01 -0.92923644728E-02  0.19705800224E-01  0.51100000000E-03 0. -1.
         11    1    4    4    0    0 -0.70892433206E-01  0.81643909341E-01 -0.14446260560E-01  0.10908904887E+00  0.51100000000E-03 0.  1.
</event>
<event>
 8    1  0.9956970E+004  0.1043930E+01  0.7957747E-01            NaN
         13   -1    0    0    0    0  0.00000000000E+00  0.00000000000E+00  0.74505805969E-08  0.10566000000E+00  0.10566000000E+00 0. -1.
     999900   -1    0    0    0    0 -0.00000000000E+00 -0.00000000000E+00 -0.74505805969E-08  0.93827000000E+00  0.93827000000E+00 0. -1.
     999902    2    1    2    0    0  0.89030040682E-02 -0.18023107945E-01 -0.95430111932E-02  0.10216776976E+01  0.10214353395E+01 0.  0.
     999903    2    3    3    0    0 -0.37805870331E-01 -0.59971693003E-01 -0.11149648533E+00  0.13356964466E+00  0.19583052366E-01 0.  0.
         14    1    1    2    0    0 -0.89030040682E-02  0.18023107945E-01  0.95430111932E-02  0.22252302444E-01  0.00000000000E+00 0. -1.
     999901    1    3    3    0    0  0.46708874399E-01  0.41948585058E-01  0.10195347414E+00  0.88810805290E+00  0.88000000000E+00 0.  1.
        -11    1    4    4    0    0 -0.13103687904E-01 -0.16998088184E-01 -0.19189457081E-01  0.28794756861E-01  0.51100000000E-03 0. -1.
         11    1    4    4    0    0 -0.24702182426E-01 -0.42973604819E-01 -0.92307028248E-01  0.10477488780E+00  0.51100000000E-03 0.  1.
</event>
<event>
 8    1  0.9956970E+004  0.1043930E+01  0.7957747E-01            NaN
         13   -1    0    0    0    0  0.00000000000E+00  0.00000000000E+00  0.74505805969E-08  0.10566000000E+00  0.10566000000E+00 0. -1.
     999900   -1    0    0    0    0 -0.00000000000E+00 -0.00000000000E+00 -0.74505805969E-08  0.93827000000E+00  0.93827000000E+00 0. -1.
     999902    2    1    2    0    0  0.24055244640E-01 -0.42120929249E-02 -0.16368820193E-01  0.10145304286E+01  0.10141043614E+01 0.  0.
     999903    2    3    3    0    0  0.17838095320E-01 -0.33699149245E-01 -0.12041748751E+00  0.12788829982E+00  0.20030367668E-01 0.  0.
         14    1    1    2    0    0 -0.24055244640E-01  0.42120929249E-02  0.16368820193E-01  0.29399571357E-01  0.00000000000E+00 0. -1.
     999901    1    3    3    0    0  0.62171493203E-02  0.29487056320E-01  0.10404866731E+00  0.88664212882E+00  0.88000000000E+00 0.  1.
        -11    1    4    4    0    0  0.79893924804E-02 -0.15896371217E-01 -0.86672989893E-01  0.88481598698E-01  0.51100000000E-03 0. -1.
         11    1    4    4    0    0  0.98487028391E-02 -0.17802778028E-01 -0.33744497612E-01  0.39406701121E-01  0.51100000000E-03 0.  1.
</event>
<event>
 8    1  0.9956970E+004  0.1043930E+01  0.7957747E-01            NaN
         13   -1    0    0    0    0  0.00000000000E+00  0.00000000000E+00  0.74505805969E-08  0.10566000000E+00  0.10566000000E+00 0. -1.
     999900   -1    0    0    0    0 -0.00000000000E+00 -0.00000000000E+00 -0.74505805969E-08  0.93827000000E+00  0.93827000000E+00 0.  1.
     999902    2    1    2    0    0  0.10500555575E-01  0.21210749030E-01  0.33473130290E-02  0.10200268193E+01  0.10197467088E+01 0.  0.
     999903    2    3    3    0    0 -0.63106326154E-01  0.87937584257E-01 -0.71492393691E-01  0.13127970947E+00  0.20193381026E-01 0.  0.
         14    1    1    2    0    0 -0.10500555575E-01 -0.21210749030E-01 -0.33473130290E-02  0.23903180673E-01  0.00000000000E+00 0.  1.
     999901    1    3    3    0    0  0.73606881728E-01 -0.66726835227E-01  0.74839706720E-01  0.88874710986E+00  0.88000000000E+00 0. -1.
        -11    1    4    4    0    0 -0.24658171687E-01  0.46738540676E-01 -0.43004904191E-01  0.68133688590E-01  0.51100000000E-03 0.  1.
         11    1    4    4    0    0 -0.38448154467E-01  0.41199043581E-01 -0.28487489500E-01  0.63146020880E-01  0.51100000000E-03 0. -1.
</event>
<event>
 7    1  0.9956970E+004  0.1043930E+01  0.7957747E-01            NaN
         13   -1    0    0    0    0  0.00000000000E+00  0.00000000000E+00  0.74505805969E-08  0.10566000000E+00  0.10566000000E+00 0.  1.
     999900   -1    0    0    0    0 -0.00000000000E+00 -0.00000000000E+00 -0.74505805969E-08  0.93827000000E+00  0.93827000000E+00 0.  1.
     999903    2    1    2    0    0  0.13270816902E-01  0.25788997576E-01  0.38948144297E-01  0.51997115096E-01  0.18589111246E-01 0.  0.
         14    1    1    2    0    0  0.78393902888E-01 -0.26328543092E-01  0.59260043773E-01  0.10173764780E+00  0.00000000000E+00 0.  1.
     999901    1    1    2    0    0 -0.91664719789E-01  0.53954551634E-03 -0.98208188071E-01  0.89019523711E+00  0.88000000000E+00 0.  1.
        -11    1    3    3    0    0  0.37611860431E-02  0.24552930451E-01  0.27887690559E-01  0.37349395174E-01  0.51100000000E-03 0.  1.
         11    1    3    3    0    0  0.95096308587E-02  0.12360671249E-02  0.11060453739E-01  0.14647719922E-01  0.51100000000E-03 0. -1.
</event>
<event>
 8    1  0.9956970E+004  0.1043930E+01  0.7957747E-01            NaN
         13   -1    0    0    0    0  0.00000000000E+00  0.00000000000E+00  0.74505805969E-08  0.10566000000E+00  0.10566000000E+00 0.  1.
     999900   -1    0    0    0    0 -0.00000000000E+00 -0.00000000000E+00 -0.74505805969E-08  0.93827000000E+00  0.93827000000E+00 0.  1.
     999902    2    1    2    0    0 -0.33703426602E-03  0.23984975415E-01 -0.39520191372E-02  0.10196192803E+01  0.10193294196E+01 0.  0.
     999903    2    3    3    0    0  0.67844671125E-01 -0.73679617763E-01 -0.78044650765E-01  0.12850939044E+00  0.19801778846E-01 0.  0.
         14    1    1    2    0    0  0.33703426602E-03 -0.23984975415E-01  0.39520191372E-02  0.24310719714E-01  0.00000000000E+00 0. -1.
     999901    1    3    3    0    0 -0.68181705391E-01  0.97664593179E-01  0.74092631628E-01  0.89110988984E+00  0.88000000000E+00 0. -1.
        -11    1    4    4    0    0  0.51756070735E-01 -0.60318740405E-01 -0.51480598828E-01  0.94697172496E-01  0.51100000000E-03 0.  1.
         11    1    4    4    0    0  0.16088600391E-01 -0.13360877359E-01 -0.26564051937E-01  0.33812217949E-01  0.51100000000E-03 0. -1.
</event>
<event>
 8    1  0.9956970E+004  0.1043930E+01  0.7957747E-01            NaN
         13   -1    0    0    0    0  0.00000000000E+00  0.00000000000E+00  0.74505805969E-08  0.10566000000E+00  0.10566000000E+00 0. -1.
     999900   -1    0    0    0    0 -0.00000000000E+00 -0.00000000000E+00 -0.74505805969E-08  0.93827000000E+00  0.93827000000E+00 0.  1.
     999902    2    1    2    0    0 -0.34781579194E-02  0.22411017216E-01  0.38543024621E-02  0.10209255021E+01  0.10206662892E+01 0.  0.
     999903    2    3    3    0    0 -0.86098945031E-01 -0.82066801190E-02  0.97157129592E-01  0.13161731291E+00  0.20080619822E-01 0.  0.
         14    1    1    2    0    0  0.34781579194E-02 -0.22411017216E-01 -0.38543024621E-02  0.23004497878E-01  0.00000000000E+00 0. -1.
     999901    1    3    3    0    0  0.82620787112E-01  0.30617697335E-01 -0.93302827130E-01  0.88930818921E+00  0.88000000000E+00 0.  1.
        -11    1    4    4    0    0 -0.46349636481E-01 -0.96086287351E-02  0.39962873014E-01  0.61950842517E-01  0.51100000000E-03 0.  1.
         11    1    4    4    0    0 -0.39749308550E-01  0.14019486160E-02  0.57194256578E-01  0.69666470390E-01  0.51100000000E-03 0. -1.
</event>
<event>
 8    1  0.9956970E+004  0.1043930E+01  0.7957747E-01            NaN
         13   -1    0    0    0    0  0.00000000000E+00  0.00000000000E+00  0.74505805969E-08  0.10566000000E+00  0.10566000000E+00 0.  1.
     999900   -1    0    0    0    0 -0.00000000000E+00 -0.00000000000E+00 -0.74505805969E-08  0.93827000000E+00  0.93827000000E+00 0. -1.
     999902    2    1    2    0    0  0.12393098806E-01  0.53831918782E-02 -0.19325952269E-01  0.10203490737E+01  0.10200765521E+01 0.  0.
     999903    2    3    3    0    0 -0.10431912607E-01 -0.12146233038E+00 -0.42820433214E-01  0.13065094610E+00  0.19343156789E-01 0.  0.
         14    1    1    2    0    0 -0.12393098806E-01 -0.53831918782E-02  0.19325952269E-01  0.23580926273E-01  0.00000000000E+00 0.  1.
     999901    1    3    3    0    0  0.22825011412E-01  0.12684552226E+00  0.23494480945E-01  0.88969812762E+00  0.88000000000E+00 0.  1.
        -11    1    4    4    0    0  0.34077117900E-02 -0.57525294591E-01 -0.25217452845E-01  0.62904316755E-01  0.51100000000E-03 0.  1.
         11    1    4    4    0    0 -0.13839624397E-01 -0.63937035790E-01 -0.17602980369E-01  0.67746629348E-01  0.51100000000E-03 0. -1.
</event>
<event>
 8    1  0.9956970E+004  0.1043930E+01  0.7957747E-01            NaN
         13   -1    0    0    0    0  0.00000000000E+00  0.00000000000E+00  0.74505805969E-08  0.10566000000E+00  0.10566000000E+00 0.  1.
     999900   -1    0    0    0    0 -0.00000000000E+00 -0.00000000000E+00 -0.74505805969E-08  0.93827000000E+00  0.93827000000E+00 0.  1.
     999902    2    1    2    0    0 -0.18014822682E-01 -0.13828693181E-01 -0.43970669445E-02  0.10207977543E+01  0.10205356214E+01 0.  0.
     999903    2    3    3    0    0 -0.49419956007E-02  0.12761842518E+00  0.77773708419E-02  0.12932346810E+00  0.18793247125E-01 0.  0.
         14    1    1    2    0    0  0.18014822682E-01  0.13828693181E-01  0.43970669445E-02  0.23132245656E-01  0.00000000000E+00 0. -1.
     999901    1    3    3    0    0 -0.13072827081E-01 -0.14144711836E+00 -0.12174437786E-01  0.89147428625E+00  0.88000000000E+00 0. -1.
        -11    1    4    4    0    0 -0.96634027828E-02  0.10962497369E+00  0.29181712892E-02  0.11008993167E+00  0.51100000000E-03 0.  1.
         11    1    4    4    0    0  0.47214071821E-02  0.17993451494E-01  0.48591995527E-02  0.19233536434E-01  0.51100000000E-03 0. -1.
</event>
<event>
 7    1  0.9956970E+004  0.1043930E+01  0.7957747E-01            NaN
         13   -1    0    0    0    0  0.00000000000E+00  0.00000000000E+00  0.74505805969E-08  0.10566000000E+00  0.10566000000E+00 0.  1.
     999900   -1    0    0    0    0 -0.00000000000E+00 -0.00000000000E+00 -0.74505805969E-08  0.93827000000E+00  0.93827000000E+00 0.  1.
     999903    2    1    2    0    0 -0.30399704227E-01 -0.10506040244E+00  0.31503379582E-01  0.11507081517E+00  0.16941056712E-01 0.  0.
         14    1    1    2    0    0 -0.10734499232E-01  0.24382501107E-01 -0.35273778896E-01  0.44203792955E-01  0.00000000000E+00 0. -1.
     999901    1    1    2    0    0  0.41134203460E-01  0.80677901328E-01  0.37703993142E-02  0.88465539187E+00  0.88000000000E+00 0. -1.
        -11    1    3    3    0    0 -0.12216809775E-01 -0.22114714062E-01  0.11844334829E-01  0.27908070655E-01  0.51100000000E-03 0.  1.
         11    1    3    3    0    0 -0.18182894453E-01 -0.82945688373E-01  0.19659044753E-01  0.87162744518E-01  0.51100000000E-03 0. -1.
</event>
<event>
 8    1  0.9956970E+004  0.1043930E+01  0.7957747E-01            NaN
         13   -1    0    0    0    0  0.00000000000E+00  0.00000000000E+00  0.74505805969E-08  0.10566000000E+00  0.10566000000E+00 0.  1.
     999900   -1    0    0    0    0 -0.00000000000E+00 -0.00000000000E+00 -0.74505805969E-08  0.93827000000E+00  0.93827000000E+00 0. -1.
     999902    2    1    2    0    0 -0.12107953480E-01  0.68657534793E-02 -0.18637566527E-01  0.10206684439E+01  0.10204033380E+01 0.  0.
     999903    2    3    3    0    0  0.79638277673E-01 -0.95542661976E-01  0.24739363827E-01  0.12893618999E+00  0.23277659664E-01 0.  0.
         14    1    1    2    0    0  0.12107953480E-01 -0.68657534793E-02  0.18637566527E-01  0.23261556147E-01  0.00000000000E+00 0.  1.
     999901    1    3    3    0    0 -0.91746231153E-01  0.10240841545E+00 -0.43376930354E-01  0.89173225386E+00  0.88000000000E+00 0. -1.
        -11    1    4    4    0    0  0.42679098510E-01 -0.65292225985E-01  0.84042579438E-02  0.78456821860E-01  0.51100000000E-03 0. -1.
         11    1    4    4    0    0  0.36959179162E-01 -0.30250435990E-01  0.16335105883E-01  0.50479368134E-01  0.51100000000E-03 0.  1.
</event>
<event>
 8    1  0.9956970E+004  0.1043930E+01  0.7957747E-01            NaN
         13   -1    0    0    0    0  0.00000000000E+00  0.00000000000E+00  0.74505805969E-08  0.10566000000E+00  0.10566000000E+00 0.  1.
     999900   -1    0    0    0    0 -0.00000000000E+00 -0.00000000000E+00 -0.74505805969E-08  0.93827000000E+00  0.93827000000E+00 0. -1.
     999902    2    1    2    0    0  0.68756759968E-02  0.22419359012E-01  0.21925602148E-02  0.10203777199E+01  0.10201058677E+01 0.  0.
     999903    2    3    3    0    0  0.24012132455E-01 -0.10493604435E-02  0.12721710893E+00  0.13106586416E+00  0.20405496316E-01 0.  0.
         14    1    1    2    0    0 -0.68756759968E-02 -0.22419359012E-01 -0.21925602148E-02  0.23552280127E-01  0.00000000000E+00 0.  1.
     999901    1    3    3    0    0 -0.17136456458E-01  0.23468719455E-01 -0.12502454872E+00  0.88931185571E+00  0.88000000000E+00 0. -1.
        -11    1    4    4    0    0  0.17486743315E-02  0.73395022886E-02  0.25211803946E-01  0.26321518478E-01  0.51100000000E-03 0. -1.
         11    1    4    4    0    0  0.22263458123E-01 -0.83888627321E-02  0.10200530499E+00  0.10474434568E+00  0.51100000000E-03 0.  1.
</event>
<event>
 8    1  0.9956970E+004  0.1043930E+01  0.7957747E-01            NaN
         13   -1    0    0    0    0  0.00000000000E+00  0.00000000000E+00  0.74505805969E-08  0.10566000000E+00  0.10566000000E+00 0.  1.
     999900   -1    0    0    0    0 -0.00000000000E+00 -0.00000000000E+00 -0.74505805969E-08  0.93827000000E+00  0.93827000000E+00 0. -1.
     999902    2    1    2    0    0  0.17657208181E-01  0.43000822404E-02  0.15340055331E-01  0.10201479689E+01  0.10198707238E+01 0.  0.
     999903    2    3    3    0    0  0.24477362420E-01 -0.24190993213E-01  0.12651866837E+00  0.13266898888E+00  0.20242078489E-01 0.  0.
         14    1    1    2    0    0 -0.17657208181E-01 -0.43000822404E-02 -0.15340055331E-01  0.23782031149E-01  0.00000000000E+00 0. -1.
     999901    1    3    3    0    0 -0.68201542385E-02  0.28491075454E-01 -0.11117861304E+00  0.88747897997E+00  0.88000000000E+00 0. -1.
        -11    1    4    4    0    0  0.22697993999E-01 -0.27171120471E-01  0.10360926350E+00  0.10949250807E+00  0.51100000000E-03 0. -1.
         11    1    4    4    0    0  0.17793684211E-02  0.29801272576E-02  0.22909404870E-01  0.23176480814E-01  0.51100000000E-03 0.  1.
</event>
<event>
 8    1  0.9956970E+004  0.1043930E+01  0.7957747E-01            NaN
         13   -1    0    0    0    0  0.00000000000E+00  0.00000000000E+00  0.74505805969E-08  0.10566000000E+00  0.10566000000E+00 0. -1.
     999900   -1    0    0    0    0 -0.00000000000E+00 -0.00000000000E+00 -0.74505805969E-08  0.93827000000E+00  0.93827000000E+00 0.  1.
     999902    2    1    2    0    0 -0.92735399937E-02  0.20310031945E-01  0.49541923623E-02  0.10210599330E+01  0.10208037749E+01 0.  0.
     999903    2    3    3    0    0 -0.11174753968E+00  0.61563095433E-01 -0.32770422136E-01  0.13335171384E+00  0.20766599944E-01 0.  0.
         14    1    1    2    0    0  0.92735399937E-02 -0.20310031945E-01 -0.49541923623E-02  0.22870066978E-01  0.00000000000E+00 0.  1.
     999901    1    3    3    0    0  0.10247399969E+00 -0.41253063488E-01  0.37724614499E-01  0.88770821918E+00  0.88000000000E+00 0. -1.
        -11    1    4    4    0    0 -0.90649501447E-01  0.44350658473E-01 -0.32810409700E-01  0.10611831663E+00  0.51100000000E-03 0.  1.
         11    1    4    4    0    0 -0.21098038236E-01  0.17212436960E-01  0.39987563339E-04  0.27233397208E-01  0.51100000000E-03 0. -1.
</event>
<event>
 8    1  0.9956970E+004  0.1043930E+01  0.7957747E-01            NaN
         13   -1    0    0    0    0  0.00000000000E+00  0.00000000000E+00  0.74505805969E-08  0.10566000000E+00  0.10566000000E+00 0.  1.
     999900   -1    0    0    0    0 -0.00000000000E+00 -0.00000000000E+00 -0.74505805969E-08  0.93827000000E+00  0.93827000000E+00 0.  1.
     999902    2    1    2    0    0 -0.12695176263E-01 -0.44367759521E-02  0.20416340032E-01  0.10194825171E+01  0.10191893461E+01 0.  0.
     999903    2    3    3    0    0  0.23060835433E-01 -0.10640532440E+00 -0.65505634491E-01  0.12871955031E+00  0.20587357530E-01 0.  0.
         14    1    1    2    0    0  0.12695176263E-01  0.44367759521E-02 -0.20416340032E-01  0.24447482928E-01  0.00000000000E+00 0. -1.
     999901    1    3    3    0    0 -0.35756011696E-01  0.10196854845E+00  0.85921974523E-01  0.89076296676E+00  0.88000000000E+00 0.  1.
        -11    1    4    4    0    0  0.76657169090E-02 -0.89470937833E-02 -0.40080339392E-02  0.12455487142E-01  0.51100000000E-03 0.  1.
         11    1    4    4    0    0  0.15395118524E-01 -0.97458230621E-01 -0.61497600552E-01  0.11626406317E+00  0.51100000000E-03 0. -1.
</event>
<event>
 8    1  0.9956970E+004  0.1043930E+01  0.7957747E-01            NaN
         13   -1    0    0    0    0  0.00000000000E+00  0.00000000000E+00  0.74505805969E-08  0.10566000000E+00  0.10566000000E+00 0.  1.
     999900   -1    0    0    0    0 -0.00000000000E+00 -0.00000000000E+00 -0.74505805969E-08  0.93827000000E+00  0.93827000000E+00 0.  1.
     999902    2    1    2    0    0 -0.49737631657E-02  0.18183220674E-01  0.14383098368E-01  0.10202183709E+01  0.10199427842E+01 0.  0.
     999903    2    3    3    0    0  0.86363167502E-01 -0.11186253991E-01 -0.92386349226E-01  0.12858800140E+00  0.20393812809E-01 0.  0.
         14    1    1    2    0    0  0.49737631657E-02 -0.18183220674E-01 -0.14383098368E-01  0.23711629062E-01  0.00000000000E+00 0. -1.
     999901    1    3    3    0    0 -0.91336930668E-01  0.29369474666E-01  0.10676944759E+00  0.89163036954E+00  0.88000000000E+00 0.  1.
        -11    1    4    4    0    0  0.36219605401E-01  0.29996350098E-02 -0.47479395434E-01  0.59794746737E-01  0.51100000000E-03 0.  1.
         11    1    4    4    0    0  0.50143562101E-01 -0.14185889001E-01 -0.44906953791E-01  0.68793254661E-01  0.51100000000E-03 0. -1.
</event>
<event>
 8    1  0.9956970E+004  0.1043930E+01  0.7957747E-01            NaN
         13   -1    0    0    0    0  0.00000000000E+00  0.00000000000E+00  0.74505805969E-08  0.10566000000E+00  0.10566000000E+00 0. -1.
     999900   -1    0    0    0    0 -0.00000000000E+00 -0.00000000000E+00 -0.74505805969E-08  0.93827000000E+00  0.93827000000E+00 0. -1.
     999902    2    1    2    0    0 -0.27866282151E-02 -0.23697046959E-01 -0.45537331086E-02  0.10196390178E+01  0.10193496332E+01 0.  0.
     999903    2    3    3    0    0 -0.55050505783E-01  0.10025246777E+00  0.52953302262E-01  0.12756163650E+00  0.19667318161E-01 0.  0.
         14    1    1    2    0    0  0.27866282151E-02  0.23697046959E-01  0.45537331086E-02  0.24290982208E-01  0.00000000000E+00 0. -1.
     999901    1    3    3    0    0  0.52263877568E-01 -0.12394951473E+00 -0.57507035371E-01  0.89207738130E+00  0.88000000000E+00 0. -1.
        -11    1    4    4    0    0 -0.35684644046E-01  0.45754686616E-01  0.22913582409E-01  0.62387326820E-01  0.51100000000E-03 0. -1.
         11    1    4    4    0    0 -0.19365861737E-01  0.54497781158E-01  0.30039719853E-01  0.65174309677E-01  0.51100000000E-03 0.  1.
</event>
<event>
 8    1  0.9956970E+004  0.1043930E+01  0.7957747E-01            NaN
         13   -1    0    0    0    0  0.00000000000E+00  0.00000000000E+00  0.74505805969E-08  0.10566000000E+00  0.10566000000E+00 0. -1.
     999900   -1    0    0    0    0 -0.00000000000E+00 -0.00000000000E+00 -0.74505805969E-08  0.93827000000E+00  0.93827000000E+00 0. -1.
     999902    2    1    2    0    0  0.15180561087E-01 -0.91791381922E-02 -0.16077796974E-01  0.10199883716E+01  0.10197073486E+01 0.  0.
     999903    2    3    3    0    0 -0.18618604105E-01  0.13780394879E-01 -0.12833725182E+00  0.13191646637E+00  0.19873404190E-01 0.  0.
         14    1    1    2    0    0 -0.15180561087E-01  0.91791381922E-02  0.16077796974E-01  0.23941628357E-01  0.00000000000E+00 0. -1.
     999901    1    3    3    0    0  0.33799165192E-01 -0.22959533071E-01  0.11225945485E+00  0.88807190527E+00  0.88000000000E+00 0.  1.
        -11    1    4    4    0    0 -0.62259015727E-02 -0.49939138441E-02 -0.31519603981E-01  0.32518419119E-01  0.51100000000E-03 0.  1.
         11    1    4    4    0    0 -0.12392702532E-01  0.18774308723E-01 -0.96817647838E-01  0.99398047255E-01  0.51100000000E-03 0. -1.
</event>
<event>
 8    1  0.9956970E+004  0.1043930E+01  0.7957747E-01            NaN
         13   -1    0    0    0    0  0.00000000000E+00  0.00000000000E+00  0.74505805969E-08  0.10566000000E+00  0.10566000000E+00 0.  1.
     999900   -1    0    0    0    0 -0.00000000000E+00 -0.00000000000E+00 -0.74505805969E-08  0.93827000000E+00  0.93827000000E+00 0. -1.
     999902    2    1    2    0    0  0.11654847736E-01  0.16594469166E-01 -0.12131455540E-01  0.10202998477E+01  0.10200261738E+01 0.  0.
     999903    2    3    3    0    0  0.67122773857E-01 -0.69648424291E-01 -0.86571865485E-01  0.13122397800E+00  0.19200904497E-01 0.  0.
         14    1    1    2    0    0 -0.11654847736E-01 -0.16594469166E-01  0.12131455540E-01  0.23630152267E-01  0.00000000000E+00 0.  1.
     999901    1    3    3    0    0 -0.55467926120E-01  0.86242893456E-01  0.74440409944E-01  0.88907586973E+00  0.88000000000E+00 0.  1.
        -11    1    4    4    0    0  0.17797188869E-01 -0.30229635934E-01 -0.25437766827E-01  0.43334881129E-01  0.51100000000E-03 0.  1.
         11    1    4    4    0    0  0.49325584988E-01 -0.39418788357E-01 -0.61134098658E-01  0.87889096876E-01  0.51100000000E-03 0. -1.
</event>
<event>
 8    1  0.9956970E+004  0.1043930E+01  0.7957747E-01            NaN
         13   -1    0    0    0    0  0.00000000000E+00  0.00000000000E+00  0.74505805969E-08  0.10566000000E+00  0.10566000000E+00 0.  1.
     999900   -1    0    0    0    0 -0.00000000000E+00 -0.00000000000E+00 -0.74505805969E-08  0.93827000000E+00  0.93827000000E+00 0.  1.
     999902    2    1    2    0    0 -0.17483561530E-01  0.17345724484E-02  0.23735861418E-01  0.10143990877E+01  0.10139691486E+01 0.  0.
     999903    2    3    3    0    0 -0.22834654228E-01 -0.51346673823E-01  0.11349399070E+00  0.12822598118E+00  0.20077698562E-01 0.  0.
         14    1    1    2    0    0  0.17483561530E-01 -0.17345724484E-02 -0.23735861418E-01  0.29530912323E-01  0.00000000000E+00 0.  1.
     999901    1    3    3    0    0  0.53510926975E-02  0.53081246271E-01 -0.89758129281E-01  0.88617310649E+00  0.88000000000E+00 0.  1.
        -11    1    4    4    0    0  0.25503997742E-02 -0.10765107927E-01  0.30052796536E-01  0.32028484016E-01  0.51100000000E-03 0.  1.
         11    1    4    4    0    0 -0.25385054002E-01 -0.40581565896E-01  0.83441194163E-01  0.96197497169E-01  0.51100000000E-03 0. -1.
</event>
<event>
 8    1  0.9956970E+004  0.1043930E+01  0.7957747E-01            NaN
         13   -1    0    0    0    0  0.00000000000E+00  0.00000000000E+00  0.74505805969E-08  0.10566000000E+00  0.10566000000E+00 0.  1.
     999900   -1    0    0    0    0 -0.00000000000E+00 -0.00000000000E+00 -0.74505805969E-08  0.93827000000E+00  0.93827000000E+00 0.  1.
     999902    2    1    2    0    0  0.22702086114E-01 -0.72405115700E-02  0.72211903071E-02  0.10190310982E+01  0.10187268642E+01 0.  0.
     999903    2    3    3    0    0  0.72557662025E-01 -0.77968974520E-01 -0.73343160863E-01  0.13112417255E+00  0.21692258439E-01 0.  0.
         14    1    1    2    0    0 -0.22702086114E-01  0.72405115700E-02 -0.72211903071E-02  0.24898901807E-01  0.00000000000E+00 0.  1.
     999901    1    3    3    0    0 -0.49855575911E-01  0.70728462950E-01  0.80564351170E-01  0.88790692564E+00  0.88000000000E+00 0. -1.
        -11    1    4    4    0    0  0.56196302653E-01 -0.47568519096E-01 -0.43716097336E-01  0.85627955296E-01  0.51100000000E-03 0. -1.
         11    1    4    4    0    0  0.16361359372E-01 -0.30400455424E-01 -0.29627063527E-01  0.45496217258E-01  0.51100000000E-03 0.  1.
</event>
<event>
 8    1  0.9956970E+004  0.1043930E+01  0.7957747E-01            NaN
         13   -1    0    0    0    0  0.00000000000E+00  0.00000000000E+00  0.74505805969E-08  0.10566000000E+00  0.10566000000E+00 0. -1.
     999900   -1    0    0    0    0 -0.00000000000E+00 -0.00000000000E+00 -0.74505805969E-08  0.93827000000E+00  0.93827000000E+00 0. -1.
     999902    2    1    2    0    0 -0.18928394047E-01 -0.11484469368E-01 -0.81803907963E-02  0.10203271203E+01  0.10200540851E+01 0.  0.
     999903    2    3    3    0    0 -0.14635584835E-01  0.80219198488E-01 -0.10021601613E+00  0.13077748858E+00  0.20252937601E-01 0.  0.
         14    1    1    2    0    0  0.18928394047E-01  0.11484469368E-01  0.81803907963E-02  0.23602879728E-01  0.00000000000E+00 0.  1.
     999901    1    3    3    0    0 -0.42928092116E-02 -0.91703667856E-01  0.92035625334E-01  0.88954963169E+00  0.88000000000E+00 0.  1.
        -11    1    4    4    0    0 -0.51504433203E-02  0.47530792200E-01 -0.72669162123E-01  0.86987191690E-01  0.51100000000E-03 0.  1.
         11    1    4    4    0    0 -0.94851415150E-02  0.32688406288E-01 -0.27546854007E-01  0.43790296892E-01  0.51100000000E-03 0. -1.
</event>
<event>
 8    1  0.9956970E+004  0.1043930E+01  0.7957747E-01            NaN
         13   -1    0    0    0    0  0.00000000000E+00  0.00000000000E+00  0.74505805969E-08  0.10566000000E+00  0.10566000000E+00 0. -1.
     999900   -1    0    0    0    0 -0.00000000000E+00 -0.00000000000E+00 -0.74505805969E-08  0.93827000000E+00  0.93827000000E+00 0.  1.
     999902    2    1    2    0    0 -0.21020516609E-01 -0.53808452719E-02 -0.81257718656E-02  0.10207601104E+01  0.10204971138E+01 0.  0.
     999903    2    3    3    0    0 -0.13164248591E+00 -0.13416453980E-01 -0.15849664371E-02  0.13377387985E+00  0.19575328263E-01 0.  0.
         14    1    1    2    0    0  0.21020516609E-01  0.53808452719E-02  0.81257718656E-02  0.23169889572E-01  0.00000000000E+00 0. -1.
     999901    1    3    3    0    0  0.11062196930E+00  0.80356087082E-02 -0.65408054286E-02  0.88698623058E+00  0.88000000000E+00 0. -1.
        -11    1    4    4    0    0 -0.10367551335E+00 -0.24984617647E-02 -0.32754316690E-04  0.10370687814E+00  0.51100000000E-03 0.  1.
         11    1    4    4    0    0 -0.27966972561E-01 -0.10917992215E-01 -0.15522121204E-02  0.30067001708E-01  0.51100000000E-03 0. -1.
</event>
<event>
 8    1  0.9956970E+004  0.1043930E+01  0.7957747E-01            NaN
         13   -1    0    0    0    0  0.00000000000E+00  0.00000000000E+00  0.74505805969E-08  0.10566000000E+00  0.10566000000E+00 0.  1.
     999900   -1    0    0    0    0 -0.00000000000E+00 -0.00000000000E+00 -0.74505805969E-08  0.93827000000E+00  0.93827000000E+00 0. -1.
     999902    2    1    2    0    0 -0.73254756998E-02  0.20988855857E-01  0.72028348643E-02  0.10205617417E+01  0.10202941699E+01 0.  0.
     999903    2    3    3    0    0  0.11889611129E+00 -0.45499770203E-01 -0.47621183827E-02  0.12899245866E+00  0.20245054947E-01 0.  0.
         14    1    1    2    0    0  0.73254756998E-02 -0.20988855857E-01 -0.72028348643E-02  0.23368258268E-01  0.00000000000E+00 0. -1.
     999901    1    3    3    0    0 -0.12622158699E+00  0.66488626060E-01  0.11964953247E-01  0.89156928308E+00  0.88000000000E+00 0.  1.
        -11    1    4    4    0    0  0.41591748956E-01 -0.14480198309E-01  0.78757547617E-02  0.44741908301E-01  0.51100000000E-03 0. -1.
         11    1    4    4    0    0  0.77304362335E-01 -0.31019571894E-01 -0.12637873144E-01  0.84250550355E-01  0.51100000000E-03 0.  1.
</event>
<event>
 8    1  0.9956970E+004  0.1043930E+01  0.7957747E-01            NaN
         13   -1    0    0    0    0  0.00000000000E+00  0.00000000000E+00  0.74505805969E-08  0.10566000000E+00  0.10566000000E+00 0.  1.
     999900   -1    0    0    0    0 -0.00000000000E+00 -0.00000000000E+00 -0.74505805969E-08  0.93827000000E+00  0.93827000000E+00 0. -1.
     999902    2    1    2    0    0  0.17774758633E-01  0.13565436186E-01  0.93075498473E-02  0.10197103058E+01  0.10194226376E+01 0.  0.
     999903    2    3    3    0    0  0.97039779150E-01  0.88381997199E-01 -0.41599213601E-02  0.13288347148E+00  0.20312948575E-01 0.  0.
         14    1    1    2    0    0 -0.17774758633E-01 -0.13565436186E-01 -0.93075498473E-02  0.24219694209E-01  0.00000000000E+00 0. -1.
     999901    1    3    3    0    0 -0.79265020517E-01 -0.74816561012E-01  0.13467471207E-01  0.88682683431E+00  0.88000000000E+00 0. -1.
        -11    1    4    4    0    0  0.82111222699E-01  0.65384790528E-01  0.10501082538E-02  0.10497041285E+00  0.51100000000E-03 0. -1.
         11    1    4    4    0    0  0.14928556451E-01  0.22997206670E-01 -0.52100296138E-02  0.27913058627E-01  0.51100000000E-03 0.  1.
</event>
<event>
 8    1  0.9956970E+004  0.1043930E+01  0.7957747E-01            NaN
         13   -1    0    0    0    0  0.00000000000E+00  0.00000000000E+00  0.74505805969E-08  0.10566000000E+00  0.10566000000E+00 0. -1.
     999900   -1    0    0    0    0 -0.00000000000E+00 -0.00000000000E+00 -0.74505805969E-08  0.93827000000E+00  0.93827000000E+00 0. -1.
     999902    2    1    2    0    0 -0.60443767862E-02 -0.11951204071E-01  0.17500526287E-01  0.10218928906E+01  0.10216552480E+01 0.  0.
     999903    2    3    3    0    0  0.44291709123E-01  0.17819347067E-01  0.12307734655E+00  0.13365504396E+00  0.20889062101E-01 0.  0.
         14    1    1    2    0    0  0.60443767862E-02  0.11951204071E-01 -0.17500526287E-01  0.22037109380E-01  0.00000000000E+00 0.  1.
     999901    1    3    3    0    0 -0.50336085909E-01 -0.29770551138E-01 -0.10557682026E+00  0.88823784666E+00  0.88000000000E+00 0. -1.
        -11    1    4    4    0    0  0.57434449926E-02  0.90727508229E-02  0.14109267915E-01  0.17737940410E-01  0.51100000000E-03 0.  1.
         11    1    4    4    0    0  0.38548264130E-01  0.87465962442E-02  0.10896807864E+00  0.11591710355E+00  0.51100000000E-03 0. -1.
</event>
<event>
 8    1  0.9956970E+004  0.1043930E+01  0.7957747E-01            NaN
         13   -1    0    0    0    0  0.00000000000E+00  0.00000000000E+00  0.74505805969E-08  0.10566000000E+00  0.10566000000E+00 0.  1.
     999900   -1    0    0    0    0 -0.00000000000E+00 -0.00000000000E+00 -0.74505805969E-08  0.93827000000E+00  0.93827000000E+00 0.  1.
     999902    2    1    2    0    0 -0.92541807395E-02  0.17868797151E-01 -0.12583452911E-01  0.10201965413E+01  0.10199204410E+01 0.  0.
     999903    2    3    3    0    0  0.21196776695E-01  0.86971929643E-01 -0.96389421502E-01  0.13299535553E+00  0.19581218742E-01 0.  0.
         14    1    1    2    0    0  0.92541807395E-02 -0.17868797151E-01  0.12583452911E-01  0.23733458659E-01  0.00000000000E+00 0.  1.
     999901    1    3    3    0    0 -0.30450957434E-01 -0.69103132493E-01  0.83805968591E-01  0.88720118581E+00  0.88000000000E+00 0. -1.
        -11    1    4    4    0    0  0.10739892527E-01  0.72200366648E-01 -0.71165893522E-01  0.10194647496E+00  0.51100000000E-03 0.  1.
         11    1    4    4    0    0  0.10456884168E-01  0.14771562995E-01 -0.25223527980E-01  0.31048880569E-01  0.51100000000E-03 0. -1.
</event>
<event>
 8    1  0.9956970E+004  0.1043930E+01  0.7957747E-01            NaN
         13   -1    0    0    0    0  0.00000000000E+00  0.00000000000E+00  0.74505805969E-08  0.10566000000E+00  0.10566000000E+00 0.  1.
     999900   -1    0    0    0    0 -0.00000000000E+00 -0.00000000000E+00 -0.74505805969E-08  0.93827000000E+00  0.93827000000E+00 0. -1.
     999902    2    1    2    0    0  0.80042635876E-02  0.33595138911E-02 -0.20109190712E-01  0.10220271664E+01  0.10217924421E+01 0.  0.
     999903    2    3    3    0    0  0.59975644234E-01  0.10576428016E+00  0.47371795819E-01  0.13200388349E+00  0.19944356509E-01 0.  0.
         14    1    1    2    0    0 -0.80042635876E-02 -0.33595138911E-02  0.20109190712E-01  0.21902833612E-01  0.00000000000E+00 0. -1.
     999901    1    3    3    0    0 -0.51971380647E-01 -0.10240476627E+00 -0.67480986531E-01  0.89002328290E+00  0.88000000000E+00 0. -1.
        -11    1    4    4    0    0  0.10085336700E-01  0.35949022356E-01  0.16263478194E-01  0.40728467546E-01  0.51100000000E-03 0. -1.
         11    1    4    4    0    0  0.49890307534E-01  0.69815257809E-01  0.31108317625E-01  0.91275415941E-01  0.51100000000E-03 0.  1.
</event>
<event>
 8    1  0.9956970E+004  0.1043930E+01  0.7957747E-01            NaN
         13   -1    0    0    0    0  0.00000000000E+00  0.00000000000E+00  0.74505805969E-08  0.10566000000E+00  0.10566000000E+00 0. -1.
     999900   -1    0    0    0    0 -0.00000000000E+00 -0.00000000000E+00 -0.74505805969E-08  0.93827000000E+00  0.93827000000E+00 0.  1.
     999902    2    1    2    0    0  0.17951887898E-01  0.98142498445E-02 -0.12813500788E-01  0.10197892547E+01  0.10195034814E+01 0.  0.
     999903    2    3    3    0    0  0.65922276376E-01 -0.88006989199E-01 -0.69179519324E-01  0.13128079613E+00  0.18917316630E-01 0.  0.
         14    1    1    2    0    0 -0.17951887898E-01 -0.98142498445E-02  0.12813500788E-01  0.24140745257E-01  0.00000000000E+00 0. -1.
     999901    1    3    3    0    0 -0.47970388478E-01  0.97821239044E-01  0.56366018536E-01  0.88850845861E+00  0.88000000000E+00 0. -1.
        -11    1    4    4    0    0  0.48338351174E-01 -0.76460003157E-01 -0.54250951512E-01  0.10548059129E+00  0.51100000000E-03 0. -1.
         11    1    4    4    0    0  0.17583925202E-01 -0.11546986042E-01 -0.14928567812E-01  0.25800204846E-01  0.51100000000E-03 0.  1.
</event>
<event>
 8    1  0.9956970E+004  0.1043930E+01  0.7957747E-01            NaN
         13   -1    0    0    0    0  0.00000000000E+00  0.00000000000E+00  0.74505805969E-08  0.10566000000E+00  0.10566000000E+00 0.  1.
     999900   -1    0    0    0    0 -0.00000000000E+00 -0.00000000000E+00 -0.74505805969E-08  0.93827000000E+00  0.93827000000E+00 0.  1.
     999902    2    1    2    0    0 -0.21483847756E-01 -0.64087706080E-03  0.95191558699E-02  0.10204229635E+01  0.10201521669E+01 0.  0.
     999903    2    3    3    0    0 -0.38033266709E-01 -0.12405478697E+00 -0.80971873635E-02  0.13148246379E+00  0.19645719465E-01 0.  0.
         14    1    1    2    0    0  0.21483847756E-01  0.64087706080E-03 -0.95191558699E-02  0.23507036527E-01  0.00000000000E+00 0. -1.
     999901    1    3    3    0    0  0.16549418953E-01  0.12341390991E+00  0.17616343233E-01  0.88894049968E+00  0.88000000000E+00 0.  1.
        -11    1    4    4    0    0 -0.31463766007E-01 -0.11807191092E+00 -0.90686198103E-02  0.12252936671E+00  0.51100000000E-03 0.  1.
         11    1    4    4    0    0 -0.65695007019E-02 -0.59828760537E-02  0.97143244685E-03  0.89530970812E-02  0.51100000000E-03 0. -1.
</event>
<event>
 8    1  0.9956970E+004  0.1043930E+01  0.7957747E-01            NaN
         13   -1    0    0    0    0  0.00000000000E+00  0.00000000000E+00  0.74505805969E-08  0.10566000000E+00  0.10566000000E+00 0. -1.
     999900   -1    0    0    0    0 -0.00000000000E+00 -0.00000000000E+00 -0.74505805969E-08  0.93827000000E+00  0.93827000000E+00 0.  1.
     999902    2    1    2    0    0  0.88404648510E-02 -0.13763299427E-01 -0.17008835464E-01  0.10203316375E+01  0.10200587080E+01 0.  0.
     999903    2    3    3    0    0 -0.44588943288E-01 -0.12179486469E+00 -0.13779811985E-01  0.13211097382E+00  0.21006267142E-01 0.  0.
         14    1    1    2    0    0 -0.88404648510E-02  0.13763299427E-01  0.17008835464E-01  0.23598362523E-01  0.00000000000E+00 0.  1.
     999901    1    3    3    0    0  0.53429408139E-01  0.10803156526E+00 -0.32290234790E-02  0.88822066365E+00  0.88000000000E+00 0.  1.
        -11    1    4    4    0    0 -0.15106161430E-01 -0.69473930955E-01 -0.11387243466E-01  0.72005233353E-01  0.51100000000E-03 0. -1.
         11    1    4    4    0    0 -0.29482781857E-01 -0.52320933731E-01 -0.23925685191E-02  0.60105740472E-01  0.51100000000E-03 0.  1.
</event>
<event>
 8    1  0.9956970E+004  0.1043930E+01  0.7957747E-01            NaN
         13   -1    0    0    0    0  0.00000000000E+00  0.00000000000E+00  0.74505805969E-08  0.10566000000E+00  0.10566000000E+00 0. -1.
     999900   -1    0    0    0    0 -0.00000000000E+00 -0.00000000000E+00 -0.74505805969E-08  0.93827000000E+00  0.93827000000E+00 0.  1.
     999902    2    1    2    0    0  0.19394663997E-01  0.53799117770E-02  0.14049204174E-01  0.10193846016E+01  0.10190890489E+01 0.  0.
     999903    2    3    3    0    0  0.91935338837E-01  0.79666338476E-01  0.48801876343E-01  0.13259918740E+00  0.20052165764E-01 0.  0.
         14    1    1    2    0    0 -0.19394663997E-01 -0.53799117770E-02 -0.14049204174E-01  0.24545398351E-01  0.00000000000E+00 0. -1.
     999901    1    3    3    0    0 -0.72540674840E-01 -0.74286426699E-01 -0.34752672168E-01  0.88678541425E+00  0.88000000000E+00 0.  1.
        -11    1    4    4    0    0  0.59925333835E-01  0.50153405374E-01  0.41393671495E-01  0.88431368115E-01  0.51100000000E-03 0.  1.
         11    1    4    4    0    0  0.32010005003E-01  0.29512933102E-01  0.74082048482E-02  0.44167819288E-01  0.51100000000E-03 0. -1.
</event>
<event>
 8    1  0.9956970E+004  0.1043930E+01  0.7957747E-01            NaN
         13   -1    0    0    0    0  0.00000000000E+00  0.00000000000E+00  0.74505805969E-08  0.10566000000E+00  0.10566000000E+00 0. -1.
     999900   -1    0    0    0    0 -0.00000000000E+00 -0.00000000000E+00 -0.74505805969E-08  0.93827000000E+00  0.93827000000E+00 0. -1.
     999902    2    1    2    0    0 -0.45132449925E-02  0.26836010534E-02  0.23612634540E-01  0.10197405890E+01  0.10194536484E+01 0.  0.
     999903    2    3    3    0    0  0.47778608387E-01 -0.31596853280E-01  0.11771825061E+00  0.13251713661E+00  0.20543816908E-01 0.  0.
         14    1    1    2    0    0  0.45132449925E-02 -0.26836010534E-02 -0.23612634540E-01  0.24189411007E-01  0.00000000000E+00 0.  1.
     999901    1    3    3    0    0 -0.52291853379E-01  0.34280454333E-01 -0.94105616068E-01  0.88722345238E+00  0.88000000000E+00 0. -1.
        -11    1    4    4    0    0  0.14968181818E-02  0.16173346277E-02  0.14014489292E-01  0.14195889091E-01  0.51100000000E-03 0. -1.
         11    1    4    4    0    0  0.46281790205E-01 -0.33214187908E-01  0.10370376132E+00  0.11832124752E+00  0.51100000000E-03 0.  1.
</event>
<event>
 8    1  0.9956970E+004  0.1043930E+01  0.7957747E-01            NaN
         13   -1    0    0    0    0  0.00000000000E+00  0.00000000000E+00  0.74505805969E-08  0.10566000000E+00  0.10566000000E+00 0.  1.
     999900   -1    0    0    0    0 -0.00000000000E+00 -0.00000000000E+00 -0.74505805969E-08  0.93827000000E+00  0.93827000000E+00 0. -1.
     999902    2    1    2    0    0 -0.90886817558E-02  0.67558176053E-03  0.22387896461E-01  0.10197581475E+01  0.10194716283E+01 0.  0.
     999903    2    3    3    0    0  0.69370988022E-01 -0.16821669024E-01  0.10902896316E+00  0.13185683088E+00  0.20089960514E-01 0.  0.
         14    1    1    2    0    0  0.90886817558E-02 -0.67558176053E-03 -0.22387896461E-01  0.24171852530E-01  0.00000000000E+00 0. -1.
     999901    1    3    3    0    0 -0.78459669778E-01  0.17497250785E-01 -0.86641066700E-01  0.88790131659E+00  0.88000000000E+00 0. -1.
        -11    1    4    4    0    0  0.95481511889E-02 -0.10027047939E-01  0.23008470006E-01  0.26858140191E-01  0.51100000000E-03 0.  1.
         11    1    4    4    0    0  0.59822836833E-01 -0.67946210847E-02  0.86020493154E-01  0.10499869069E+00  0.51100000000E-03 0. -1.
</event>
<event>
 8    1  0.9956970E+004  0.1043930E+01  0.7957747E-01            NaN
         13   -1    0    0    0    0  0.00000000000E+00  0.00000000000E+00  0.74505805969E-08  0.10566000000E+00  0.10566000000E+00 0. -1.
     999900   -1    0    0    0    0 -0.00000000000E+00 -0.00000000000E+00 -0.74505805969E-08  0.93827000000E+00  0.93827000000E+00 0. -1.
     999902    2    1    2    0    0  0.18039006000E-01  0.12359436237E-01 -0.91778902537E-02  0.10202151297E+01  0.10199394668E+01 0.  0.
     999903    2    3    3    0    0  0.12389619832E+00 -0.21912828601E-02  0.41489805773E-01  0.13230483923E+00  0.20690500749E-01 0.  0.
         14    1    1    2    0    0 -0.18039006000E-01 -0.12359436237E-01  0.91778902537E-02  0.23714870252E-01  0.00000000000E+00 0.  1.
     999901    1    3    3    0    0 -0.10585719232E+00  0.14550719097E-01 -0.50667696026E-01  0.88791029052E+00  0.88000000000E+00 0. -1.
        -11    1    4    4    0    0  0.79083478073E-01 -0.10989973802E-01  0.23662005538E-01  0.83277413837E-01  0.51100000000E-03 0. -1.
         11    1    4    4    0    0  0.44812720247E-01  0.87986909417E-02  0.17827800234E-01  0.49027425390E-01  0.51100000000E-03 0.  1.
</event>
<event>
 8    1  0.9956970E+004  0.1043930E+01  0.7957747E-01            NaN
         13   -1    0    0    0    0  0.00000000000E+00  0.00000000000E+00  0.74505805969E-08  0.10566000000E+00  0.10566000000E+00 0. -1.
     999900   -1    0    0    0    0 -0.00000000000E+00 -0.00000000000E+00 -0.74505805969E-08  0.93827000000E+00  0.93827000000E+00 0. -1.
     999902    2    1    2    0    0 -0.24977810735E-02  0.22982750034E-01  0.67424432368E-03  0.10208020880E+01  0.10205400543E+01 0.  0.
     999903    2    3    3    0    0 -0.75439206470E-01  0.32660729866E-01 -0.10116645967E+00  0.13187821956E+00  0.19985371761E-01 0.  0.
         14    1    1    2    0    0  0.24977810735E-02 -0.22982750034E-01 -0.67424432368E-03  0.23127912030E-01  0.00000000000E+00 0.  1.
     999901    1    3    3    0    0  0.72941425396E-01 -0.96779798313E-02  0.10184070400E+00  0.88892386841E+00  0.88000000000E+00 0.  1.
        -11    1    4    4    0    0 -0.61061246028E-01  0.18659721308E-01 -0.83658234536E-01  0.10524078246E+00  0.51100000000E-03 0.  1.
         11    1    4    4    0    0 -0.14377960441E-01  0.14001008558E-01 -0.17508225137E-01  0.26637437106E-01  0.51100000000E-03 0. -1.
</event>
<event>
 8    1  0.9956970E+004  0.1043930E+01  0.7957747E-01            NaN
         13   -1    0    0    0    0  0.00000000000E+00  0.00000000000E+00  0.74505805969E-08  0.10566000000E+00  0.10566000000E+00 0.  1.
     999900   -1    0    0    0    0 -0.00000000000E+00 -0.00000000000E+00 -0.74505805969E-08  0.93827000000E+00  0.93827000000E+00 0.  1.
     999902    2    1    2    0    0 -0.93494706885E-02  0.19552776065E-01  0.97458820408E-02  0.10201664592E+01  0.10198896502E+01 0.  0.
     999903    2    3    3    0    0  0.11202612798E+00  0.62346428416E-01 -0.12860525279E-01  0.13051799927E+00  0.20799628279E-01 0.  0.
         14    1    1    2    0    0  0.93494706885E-02 -0.19552776065E-01 -0.97458820408E-02  0.23763540787E-01  0.00000000000E+00 0. -1.
     999901    1    3    3    0    0 -0.12137559866E+00 -0.42793652351E-01  0.22606407320E-01  0.88964845995E+00  0.88000000000E+00 0.  1.
        -11    1    4    4    0    0  0.39698540959E-01  0.13296764341E-01 -0.10158112378E-01  0.43083946712E-01  0.51100000000E-03 0. -1.
         11    1    4    4    0    0  0.72327587017E-01  0.49049664075E-01 -0.27024129007E-02  0.87434052554E-01  0.51100000000E-03 0.  1.
</event>
<event>
 8    1  0.9956970E+004  0.1043930E+01  0.7957747E-01            NaN
         13   -1    0    0    0    0  0.00000000000E+00  0.00000000000E+00  0.74505805969E-08  0.10566000000E+00  0.10566000000E+00 0. -1.
     999900   -1    0    0    0    0 -0.00000000000E+00 -0.00000000000E+00 -0.74505805969E-08  0.93827000000E+00  0.93827000000E+00 0.  1.
     999902    2    1    2    0    0 -0.37590754889E-02 -0.10313376400E-01 -0.22246444000E-01  0.10191227299E+01  0.10188207585E+01 0.  0.
     999903    2    3    3    0    0 -0.12550664438E+00 -0.63419091764E-02 -0.29509306311E-01  0.13070222567E+00  0.20497195920E-01 0.  0.
         14    1    1    2    0    0  0.37590754889E-02  0.10313376400E-01  0.22246444000E-01  0.24807270143E-01  0.00000000000E+00 0. -1.
     999901    1    3    3    0    0  0.12174756890E+00 -0.39714672236E-02  0.72628623112E-02  0.88842050418E+00  0.88000000000E+00 0.  1.
        -11    1    4    4    0    0 -0.16140941801E-01 -0.14005168661E-02  0.30299817976E-02  0.16490402069E-01  0.51100000000E-03 0. -1.
         11    1    4    4    0    0 -0.10936570258E+00 -0.49413923103E-02 -0.32539288108E-01  0.11421182360E+00  0.51100000000E-03 0.  1.
</event>
<event>
 8    1  0.9956970E+004  0.1043930E+01  0.7957747E-01            NaN
         13   -1    0    0    0    0  0.00000000000E+00  0.00000000000E+00  0.74505805969E-08  0.10566000000E+00  0.10566000000E+00 0. -1.
     999900   -1    0    0    0    0 -0.00000000000E+00 -0.00000000000E+00 -0.74505805969E-08  0.93827000000E+00  0.93827000000E+00 0.  1.
     999902    2    1    2    0    0  0.20069267395E-01 -0.13349722446E-01  0.24515835235E-02  0.10197018997E+01  0.10194140294E+01 0.  0.
     999903    2    3    3    0    0 -0.72316255395E-01 -0.75294051320E-01  0.73322269609E-01  0.12987335505E+00  0.24333067474E-01 0.  0.
         14    1    1    2    0    0 -0.20069267395E-01  0.13349722446E-01 -0.24515835235E-02  0.24228100316E-01  0.00000000000E+00 0.  1.
     999901    1    3    3    0    0  0.92385522789E-01  0.61944328874E-01 -0.70870686086E-01  0.88982854463E+00  0.88000000000E+00 0.  1.
        -11    1    4    4    0    0 -0.19478823775E-01 -0.27199532280E-01  0.36420039019E-01  0.49456238181E-01  0.51100000000E-03 0.  1.
         11    1    4    4    0    0 -0.52837431620E-01 -0.48094519040E-01  0.36902230590E-01  0.80417116868E-01  0.51100000000E-03 0. -1.
</event>
<event>
 8    1  0.9956970E+004  0.1043930E+01  0.7957747E-01            NaN
         13   -1    0    0    0    0  0.00000000000E+00  0.00000000000E+00  0.74505805969E-08  0.10566000000E+00  0.10566000000E+00 0.  1.
     999900   -1    0    0    0    0 -0.00000000000E+00 -0.00000000000E+00 -0.74505805969E-08  0.93827000000E+00  0.93827000000E+00 0. -1.
     999902    2    1    2    0    0  0.16473339678E-01  0.10254344272E-01  0.73255324454E-02  0.10231890761E+01  0.10229788364E+01 0.  0.
     999903    2    3    3    0    0 -0.61080010242E-01  0.11317448859E+00 -0.27631401482E-01  0.13311657044E+00  0.20427786424E-01 0.  0.
         14    1    1    2    0    0 -0.16473339678E-01 -0.10254344272E-01 -0.73255324454E-02  0.20740923851E-01  0.00000000000E+00 0. -1.
     999901    1    3    3    0    0  0.77553349920E-01 -0.10292014432E+00  0.34956933927E-01  0.89007250571E+00  0.88000000000E+00 0.  1.
        -11    1    4    4    0    0 -0.37785844316E-01  0.86187114983E-01 -0.15024284448E-01  0.95299417962E-01  0.51100000000E-03 0.  1.
         11    1    4    4    0    0 -0.23294165926E-01  0.26987373609E-01 -0.12607117034E-01  0.37817152476E-01  0.51100000000E-03 0. -1.
</event>
<event>
 8    1  0.9956970E+004  0.1043930E+01  0.7957747E-01            NaN
         13   -1    0    0    0    0  0.00000000000E+00  0.00000000000E+00  0.74505805969E-08  0.10566000000E+00  0.10566000000E+00 0.  1.
     999900   -1    0    0    0    0 -0.00000000000E+00 -0.00000000000E+00 -0.74505805969E-08  0.93827000000E+00  0.93827000000E+00 0. -1.
     999902    2    1    2    0    0 -0.12439145343E-01 -0.55831705923E-04 -0.20015005987E-01  0.10203644336E+01  0.10200922711E+01 0.  0.
     999903    2    3    3    0    0 -0.89932911814E-01 -0.86804312688E-01  0.34579807676E-01  0.13103256279E+00  0.18731046004E-01 0.  0.
         14    1    1    2    0    0  0.12439145343E-01  0.55831705923E-04  0.20015005987E-01  0.23565566378E-01  0.00000000000E+00 0.  1.
     999901    1    3    3    0    0  0.77493766470E-01  0.86748480982E-01 -0.54594813664E-01  0.88933187083E+00  0.88000000000E+00 0. -1.
        -11    1    4    4    0    0 -0.73355813368E-01 -0.60627753129E-01  0.22646633369E-01  0.97826023778E-01  0.51100000000E-03 0. -1.
         11    1    4    4    0    0 -0.16577098446E-01 -0.26176559559E-01  0.11933174308E-01  0.33206539014E-01  0.51100000000E-03 0.  1.
</event>
<event>
 8    1  0.9956970E+004  0.1043930E+01  0.7957747E-01            NaN
         13   -1    0    0    0    0  0.00000000000E+00  0.00000000000E+00  0.74505805969E-08  0.10566000000E+00  0.10566000000E+00 0.  1.
     999900   -1    0    0    0    0 -0.00000000000E+00 -0.00000000000E+00 -0.74505805969E-08  0.93827000000E+00  0.93827000000E+00 0.  1.
     999902    2    1    2    0    0 -0.12485848304E-01  0.19804322685E-01 -0.48341030848E-04  0.10205182521E+01  0.10202496718E+01 0.  0.
     999903    2    3    3    0    0  0.81650955178E-01  0.45306890384E-01 -0.89247786589E-01  0.13064822794E+00  0.19601001402E-01 0.  0.
         14    1    1    2    0    0  0.12485848304E-01 -0.19804322685E-01  0.48341030848E-04  0.23411747943E-01  0.00000000000E+00 0.  1.
     999901    1    3    3    0    0 -0.94136803482E-01 -0.25502567699E-01  0.89199445558E-01  0.88987002411E+00  0.88000000000E+00 0. -1.
        -11    1    4    4    0    0  0.59401472859E-01  0.42334309015E-01 -0.67229514171E-01  0.99200793315E-01  0.51100000000E-03 0. -1.
         11    1    4    4    0    0  0.22249482318E-01  0.29725813689E-02 -0.22018272418E-01  0.31447434628E-01  0.51100000000E-03 0.  1.
</event>
<event>
 8    1  0.9956970E+004  0.1043930E+01  0.7957747E-01            NaN
         13   -1    0    0    0    0  0.00000000000E+00  0.00000000000E+00  0.74505805969E-08  0.10566000000E+00  0.10566000000E+00 0. -1.
     999900   -1    0    0    0    0 -0.00000000000E+00 -0.00000000000E+00 -0.74505805969E-08  0.93827000000E+00  0.93827000000E+00 0.  1.
     999902    2    1    2    0    0  0.16895413204E-01 -0.47728371160E-02 -0.17146535817E-01  0.10193894488E+01  0.10190940142E+01 0.  0.
     999903    2    3    3    0    0 -0.50624093603E-01 -0.19824332462E-01  0.11322295758E+00  0.12709934122E+00  0.19467958450E-01 0.  0.
         14    1    1    2    0    0 -0.16895413204E-01  0.47728371160E-02  0.17146535817E-01  0.24540551176E-01  0.00000000000E+00 0. -1.
     999901    1    3    3    0    0  0.67519506807E-01  0.15051495346E-01 -0.13036949340E+00  0.89229010760E+00  0.88000000000E+00 0.  1.
        -11    1    4    4    0    0 -0.24027360419E-01  0.84418371565E-03  0.48484765242E-01  0.54120793383E-01  0.51100000000E-03 0.  1.
         11    1    4    4    0    0 -0.26596733184E-01 -0.20668516178E-01  0.64738192337E-01  0.72978547842E-01  0.51100000000E-03 0. -1.
</event>
<event>
 8    1  0.9956970E+004  0.1043930E+01  0.7957747E-01            NaN
         13   -1    0    0    0    0  0.00000000000E+00  0.00000000000E+00  0.74505805969E-08  0.10566000000E+00  0.10566000000E+00 0.  1.
     999900   -1    0    0    0    0 -0.00000000000E+00 -0.00000000000E+00 -0.74505805969E-08  0.93827000000E+00  0.93827000000E+00 0.  1.
     999902    2    1    2    0    0  0.32451305056E-02 -0.21306876787E-01 -0.88984816796E-02  0.10206126921E+01  0.10203462993E+01 0.  0.
     999903    2    3    3    0    0 -0.75518988193E-01 -0.79055339294E-01  0.70438867217E-01  0.13166213880E+00  0.20504158875E-01 0.  0.
         14    1    1    2    0    0 -0.32451305056E-02  0.21306876787E-01  0.88984816796E-02  0.23317307877E-01  0.00000000000E+00 0. -1.
     999901    1    3    3    0    0  0.78764118699E-01  0.57748462506E-01 -0.79337348896E-01  0.88895055332E+00  0.88000000000E+00 0.  1.
        -11    1    4    4    0    0 -0.75876894428E-02 -0.15918243429E-01  0.17618078680E-01  0.24932334875E-01  0.51100000000E-03 0. -1.
         11    1    4    4    0    0 -0.67931298750E-01 -0.63137095865E-01  0.52820788537E-01  0.10672980393E+00  0.51100000000E-03 0.  1.
</event>
<event>
 8    1  0.9956970E+004  0.1043930E+01  0.7957747E-01            NaN
         13   -1    0    0    0    0  0.00000000000E+00  0.00000000000E+00  0.74505805969E-08  0.10566000000E+00  0.10566000000E+00 0. -1.
     999900   -1    0    0    0    0 -0.00000000000E+00 -0.00000000000E+00 -0.74505805969E-08  0.93827000000E+00  0.93827000000E+00 0.  1.
     999902    2    1    2    0    0  0.20413929545E-01  0.12267487728E-01  0.10859729824E-01  0.10177545629E+01  0.10174179067E+01 0.  0.
     999903    2    3    3    0    0  0.74123386617E-01  0.34692284226E-01 -0.98079909311E-01  0.12912898245E+00  0.18889003968E-01 0.  0.
         14    1    1    2    0    0 -0.20413929545E-01 -0.12267487728E-01 -0.10859729824E-01  0.26175437083E-01  0.00000000000E+00 0.  1.
     999901    1    3    3    0    0 -0.53709457072E-01 -0.22424796497E-01  0.10893963914E+00  0.88862558046E+00  0.88000000000E+00 0. -1.
        -11    1    4    4    0    0  0.53135605412E-01  0.15022052479E-01 -0.64908834689E-01  0.85220141779E-01  0.51100000000E-03 0.  1.
         11    1    4    4    0    0  0.20987781205E-01  0.19670231746E-01 -0.33171074622E-01  0.43908840675E-01  0.51100000000E-03 0. -1.
</event>
<event>
 8    1  0.9956970E+004  0.1043930E+01  0.7957747E-01            NaN
         13   -1    0    0    0    0  0.00000000000E+00  0.00000000000E+00  0.74505805969E-08  0.10566000000E+00  0.10566000000E+00 0.  1.
     999900   -1    0    0    0    0 -0.00000000000E+00 -0.00000000000E+00 -0.74505805969E-08  0.93827000000E+00  0.93827000000E+00 0. -1.
     999902    2    1    2    0    0  0.21041638850E-01 -0.11386974103E-01 -0.35034805224E-02  0.10197496749E+01  0.10194629524E+01 0.  0.
     999903    2    3    3    0    0  0.38974069873E-01  0.35856781873E-01  0.11706046065E+00  0.13009288241E+00  0.20403913294E-01 0.  0.
         14    1    1    2    0    0 -0.21041638850E-01  0.11386974103E-01  0.35034805224E-02  0.24180325070E-01  0.00000000000E+00 0.  1.
     999901    1    3    3    0    0 -0.17932431023E-01 -0.47243755976E-01 -0.12056394117E+00  0.88965679252E+00  0.88000000000E+00 0. -1.
        -11    1    4    4    0    0  0.23202897317E-01  0.13270045243E-01  0.38756427494E-01  0.47082802994E-01  0.51100000000E-03 0. -1.
         11    1    4    4    0    0  0.15771172556E-01  0.22586736630E-01  0.78304033157E-01  0.83010079418E-01  0.51100000000E-03 0.  1.
</event>
<event>
 8    1  0.1176215E+005  0.1043930E+01  0.7957747E-01            NaN
         13   -1    0    0    0    0  0.00000000000E+00  0.00000000000E+00  0.74505805969E-08  0.10566000000E+00  0.10566000000E+00 0.  1.
     999900   -1    0    0    0    0 -0.00000000000E+00 -0.00000000000E+00 -0.74505805969E-08  0.93827000000E+00  0.93827000000E+00 0. -1.
     999902    2    1    2    0    0  0.20853510892E-01  0.59118620191E-02 -0.78725436075E-02  0.10208692981E+01  0.10206088025E+01 0.  0.
     999903    2    3    3    0    0  0.19102234284E-01 -0.15596758259E-02 -0.12957798340E+00  0.13245998651E+00  0.19694321567E-01 0.  0.
         14    1    1    2    0    0 -0.20853510892E-01 -0.59118620191E-02  0.78725436075E-02  0.23060701896E-01  0.00000000000E+00 0.  1.
     999901    1    3    3    0    0  0.17512766078E-02  0.74715378450E-02  0.12170543979E+00  0.88840931159E+00  0.88000000000E+00 0.  1.
        -11    1    4    4    0    0  0.17676756537E-02  0.43240517151E-02 -0.69358961363E-01  0.69517974242E-01  0.51100000000E-03 0.  1.
         11    1    4    4    0    0  0.17334558631E-01 -0.58837275409E-02 -0.60219022036E-01  0.62942012271E-01  0.51100000000E-03 0. -1.
</event>
<event>
 8    1  0.9956970E+004  0.1043930E+01  0.7957747E-01            NaN
         13   -1    0    0    0    0  0.00000000000E+00  0.00000000000E+00  0.74505805969E-08  0.10566000000E+00  0.10566000000E+00 0.  1.
     999900   -1    0    0    0    0 -0.00000000000E+00 -0.00000000000E+00 -0.74505805969E-08  0.93827000000E+00  0.93827000000E+00 0.  1.
     999902    2    1    2    0    0  0.56090694461E-02  0.16929712044E-01  0.15680198188E-01  0.10201824649E+01  0.10199060330E+01 0.  0.
     999903    2    3    3    0    0 -0.82658537699E-01 -0.39942930938E-01 -0.86978295773E-01  0.12801407584E+00  0.19862227732E-01 0.  0.
         14    1    1    2    0    0 -0.56090694461E-02 -0.16929712044E-01 -0.15680198188E-01  0.23747535139E-01  0.00000000000E+00 0. -1.
     999901    1    3    3    0    0  0.88267607145E-01  0.56872642982E-01  0.10265849396E+00  0.89216838902E+00  0.88000000000E+00 0. -1.
        -11    1    4    4    0    0 -0.76691336751E-01 -0.42099859728E-01 -0.79744000285E-01  0.11837789500E+00  0.51100000000E-03 0. -1.
         11    1    4    4    0    0 -0.59672009479E-02  0.21569287897E-02 -0.72342954881E-02  0.96361808392E-02  0.51100000000E-03 0.  1.
</event>
<event>
 8    1  0.9956970E+004  0.1043930E+01  0.7957747E-01            NaN
         13   -1    0    0    0    0  0.00000000000E+00  0.00000000000E+00  0.74505805969E-08  0.10566000000E+00  0.10566000000E+00 0.  1.
     999900   -1    0    0    0    0 -0.00000000000E+00 -0.00000000000E+00 -0.74505805969E-08  0.93827000000E+00  0.93827000000E+00 0.  1.
     999902    2    1    2    0    0 -0.14543900137E-01  0.15009070090E-01 -0.86876211739E-02  0.10212965739E+01  0.10210457482E+01 0.  0.
     999903    2    3    3    0    0 -0.93396866676E-01  0.73910662028E-01 -0.58896222183E-01  0.13438728231E+00  0.20134944561E-01 0.  0.
         14    1    1    2    0    0  0.14543900137E-01 -0.15009070090E-01  0.86876211739E-02  0.22633426117E-01  0.00000000000E+00 0.  1.
     999901    1    3    3    0    0  0.78852966539E-01 -0.58901591938E-01  0.50208601009E-01  0.88690929157E+00  0.88000000000E+00 0.  1.
        -11    1    4    4    0    0 -0.38279785111E-01  0.33458448055E-01 -0.35948128492E-01  0.62268280508E-01  0.51100000000E-03 0. -1.
         11    1    4    4    0    0 -0.55117081565E-01  0.40452213974E-01 -0.22948093691E-01  0.72119001800E-01  0.51100000000E-03 0.  1.
</event>
<event>
 8    1  0.9956970E+004  0.1043930E+01  0.7957747E-01            NaN
         13   -1    0    0    0    0  0.00000000000E+00  0.00000000000E+00  0.74505805969E-08  0.10566000000E+00  0.10566000000E+00 0.  1.
     999900   -1    0    0    0    0 -0.00000000000E+00 -0.00000000000E+00 -0.74505805969E-08  0.93827000000E+00  0.93827000000E+00 0. -1.
     999902    2    1    2    0    0 -0.16833585784E-01 -0.13896662402E-01 -0.34683665308E-02  0.10218275928E+01  0.10215885243E+01 0.  0.
     999903    2    3    3    0    0  0.11283400673E+00  0.51743531296E-01  0.30098791776E-01  0.12927559228E+00  0.19933273355E-01 0.  0.
         14    1    1    2    0    0  0.16833585784E-01  0.13896662402E-01  0.34683665308E-02  0.22102407169E-01  0.00000000000E+00 0.  1.
     999901    1    3    3    0    0 -0.12966759251E+00 -0.65640193698E-01 -0.33567158307E-01  0.89255200055E+00  0.88000000000E+00 0.  1.
        -11    1    4    4    0    0  0.59100219266E-01  0.37414649140E-01  0.19995923719E-01  0.72751563378E-01  0.51100000000E-03 0. -1.
         11    1    4    4    0    0  0.53733787463E-01  0.14328882155E-01  0.10102868057E-01  0.56524028899E-01  0.51100000000E-03 0.  1.
</event>
<event>
 8    1  0.9956970E+004  0.1043930E+01  0.7957747E-01            NaN
         13   -1    0    0    0    0  0.00000000000E+00  0.00000000000E+00  0.74505805969E-08  0.10566000000E+00  0.10566000000E+00 0.  1.
     999900   -1    0    0    0    0 -0.00000000000E+00 -0.00000000000E+00 -0.74505805969E-08  0.93827000000E+00  0.93827000000E+00 0.  1.
     999902    2    1    2    0    0 -0.17529074557E-01 -0.18657635514E-02 -0.15183753795E-01  0.10206642331E+01  0.10203990302E+01 0.  0.
     999903    2    3    3    0    0  0.11707336535E+00  0.43209384881E-01 -0.30097100009E-01  0.12916437687E+00  0.14296048579E-01 0.  0.
         14    1    1    2    0    0  0.17529074557E-01  0.18657635514E-02  0.15183753795E-01  0.23265766864E-01  0.00000000000E+00 0.  1.
     999901    1    3    3    0    0 -0.13460243991E+00 -0.45075148433E-01  0.14913346214E-01  0.89149985627E+00  0.88000000000E+00 0.  1.
        -11    1    4    4    0    0  0.16519135647E-01  0.85615015084E-02 -0.92437417409E-02  0.20781940068E-01  0.51100000000E-03 0. -1.
         11    1    4    4    0    0  0.10055422971E+00  0.34647883373E-01 -0.20853358268E-01  0.10838243680E+00  0.51100000000E-03 0.  1.
</event>
<event>
 7    1  0.1107536E+005  0.1043930E+01  0.7957747E-01            NaN
         13   -1    0    0    0    0  0.00000000000E+00  0.00000000000E+00  0.74505805969E-08  0.10566000000E+00  0.10566000000E+00 0. -1.
     999900   -1    0    0    0    0 -0.00000000000E+00 -0.00000000000E+00 -0.74505805969E-08  0.93827000000E+00  0.93827000000E+00 0.  1.
     999903    2    1    2    0    0 -0.41163475701E-01  0.10160967984E+00  0.10987378301E-01  0.11230019990E+00  0.21717588407E-01 0.  0.
         14    1    1    2    0    0  0.51608879330E-03 -0.15849351849E-01  0.42048565901E-01  0.44939405827E-01  0.00000000000E+00 0. -1.
     999901    1    1    2    0    0  0.40647386907E-01 -0.85760327993E-01 -0.53035944202E-01  0.88669039427E+00  0.88000000000E+00 0. -1.
        -11    1    3    3    0    0 -0.25731601732E-01  0.83660742331E-01  0.13204212974E-01  0.88520322505E-01  0.51100000000E-03 0. -1.
         11    1    3    3    0    0 -0.15431873968E-01  0.17948937511E-01 -0.22168346734E-02  0.23779877395E-01  0.51100000000E-03 0.  1.
</event>
<event>
 8    1  0.9956970E+004  0.1043930E+01  0.7957747E-01            NaN
         13   -1    0    0    0    0  0.00000000000E+00  0.00000000000E+00  0.74505805969E-08  0.10566000000E+00  0.10566000000E+00 0. -1.
     999900   -1    0    0    0    0 -0.00000000000E+00 -0.00000000000E+00 -0.74505805969E-08  0.93827000000E+00  0.93827000000E+00 0. -1.
     999902    2    1    2    0    0  0.39232992696E-02  0.21015898391E-01  0.94435669031E-02  0.10205581961E+01  0.10202905421E+01 0.  0.
     999903    2    3    3    0    0  0.90694026423E-01  0.75403637063E-01  0.58599322710E-01  0.13325696565E+00  0.20308209185E-01 0.  0.
         14    1    1    2    0    0 -0.39232992696E-02 -0.21015898391E-01 -0.94435669031E-02  0.23371803914E-01  0.00000000000E+00 0.  1.
     999901    1    3    3    0    0 -0.86770727154E-01 -0.54387738672E-01 -0.49155755807E-01  0.88730123044E+00  0.88000000000E+00 0.  1.
        -11    1    4    4    0    0  0.67214051689E-01  0.54294551888E-01  0.32591545209E-01  0.92347696502E-01  0.51100000000E-03 0. -1.
         11    1    4    4    0    0  0.23479974735E-01  0.21109085175E-01  0.26007777502E-01  0.40909269146E-01  0.51100000000E-03 0.  1.
</event>
<event>
 8    1  0.9956970E+004  0.1043930E+01  0.7957747E-01            NaN
         13   -1    0    0    0    0  0.00000000000E+00  0.00000000000E+00  0.74505805969E-08  0.10566000000E+00  0.10566000000E+00 0. -1.
     999900   -1    0    0    0    0 -0.00000000000E+00 -0.00000000000E+00 -0.74505805969E-08  0.93827000000E+00  0.93827000000E+00 0.  1.
     999902    2    1    2    0    0 -0.11398663464E-01  0.58695232100E-02  0.18004498644E-01  0.10218269956E+01  0.10215879141E+01 0.  0.
     999903    2    3    3    0    0 -0.49205450113E-01  0.80091817342E-01 -0.88874896719E-01  0.13145543990E+00  0.23364714585E-01 0.  0.
         14    1    1    2    0    0  0.11398663464E-01 -0.58695232100E-02 -0.18004498644E-01  0.22103004387E-01  0.00000000000E+00 0.  1.
     999901    1    3    3    0    0  0.37806786648E-01 -0.74222294132E-01  0.10687939536E+00  0.89037155571E+00  0.88000000000E+00 0. -1.
        -11    1    4    4    0    0 -0.25631582995E-01  0.53722143414E-01 -0.42554863700E-01  0.73172565114E-01  0.51100000000E-03 0. -1.
         11    1    4    4    0    0 -0.23573867117E-01  0.26369673929E-01 -0.46320033019E-01  0.58282874790E-01  0.51100000000E-03 0.  1.
</event>
<event>
 8    1  0.9956970E+004  0.1043930E+01  0.7957747E-01            NaN
         13   -1    0    0    0    0  0.00000000000E+00  0.00000000000E+00  0.74505805969E-08  0.10566000000E+00  0.10566000000E+00 0. -1.
     999900   -1    0    0    0    0 -0.00000000000E+00 -0.00000000000E+00 -0.74505805969E-08  0.93827000000E+00  0.93827000000E+00 0.  1.
     999902    2    1    2    0    0  0.17798737742E-01  0.87282779057E-02  0.13137241922E-01  0.10201483889E+01  0.10198711538E+01 0.  0.
     999903    2    3    3    0    0 -0.89163429095E-01  0.87915935949E-01 -0.25286206690E-01  0.12931285318E+00  0.20077172808E-01 0.  0.
         14    1    1    2    0    0 -0.17798737742E-01 -0.87282779057E-02 -0.13137241922E-01  0.23781611084E-01  0.00000000000E+00 0.  1.
     999901    1    3    3    0    0  0.10696216684E+00 -0.79187658043E-01  0.38423448612E-01  0.89083553573E+00  0.88000000000E+00 0. -1.
        -11    1    4    4    0    0 -0.64683006486E-01  0.75294464534E-01 -0.20259094271E-01  0.10131061020E+00  0.51100000000E-03 0. -1.
         11    1    4    4    0    0 -0.24480422610E-01  0.12621471414E-01 -0.50271124188E-02  0.28002242983E-01  0.51100000000E-03 0.  1.
</event>
<event>
 7    1  0.9956970E+004  0.1043930E+01  0.7957747E-01            NaN
         13   -1    0    0    0    0  0.00000000000E+00  0.00000000000E+00  0.74505805969E-08  0.10566000000E+00  0.10566000000E+00 0. -1.
     999900   -1    0    0    0    0 -0.00000000000E+00 -0.00000000000E+00 -0.74505805969E-08  0.93827000000E+00  0.93827000000E+00 0.  1.
     999903    2    1    2    0    0 -0.29762882208E-01 -0.94899381618E-01 -0.37072903496E-01  0.10813666137E+00  0.20674031298E-01 0.  0.
         14    1    1    2    0    0 -0.35168606534E-01 -0.18141914768E-01  0.23625419767E-01  0.46088180873E-01  0.00000000000E+00 0.  1.
     999901    1    1    2    0    0  0.64931488742E-01  0.11304129639E+00  0.13447483729E-01  0.88970515776E+00  0.88000000000E+00 0. -1.
        -11    1    3    3    0    0 -0.34563066008E-03 -0.13251840303E-01 -0.11774243899E-01  0.17737662539E-01  0.51100000000E-03 0.  1.
         11    1    3    3    0    0 -0.29417251548E-01 -0.81647541315E-01 -0.25298659598E-01  0.90398998832E-01  0.51100000000E-03 0. -1.
</event>
<event>
 8    1  0.9956970E+004  0.1043930E+01  0.7957747E-01            NaN
         13   -1    0    0    0    0  0.00000000000E+00  0.00000000000E+00  0.74505805969E-08  0.10566000000E+00  0.10566000000E+00 0. -1.
     999900   -1    0    0    0    0 -0.00000000000E+00 -0.00000000000E+00 -0.74505805969E-08  0.93827000000E+00  0.93827000000E+00 0. -1.
     999902    2    1    2    0    0 -0.24039179252E-01  0.53165241004E-02  0.12900387534E-02  0.10192761612E+01  0.10189779590E+01 0.  0.
     999903    2    3    3    0    0 -0.81222745978E-01  0.40875653211E-02  0.10150411012E+00  0.13174344026E+00  0.20962037708E-01 0.  0.
         14    1    1    2    0    0  0.24039179252E-01 -0.53165241004E-02 -0.12900387534E-02  0.24653838801E-01  0.00000000000E+00 0. -1.
     999901    1    3    3    0    0  0.57183566726E-01  0.12289587793E-02 -0.10021407137E+00  0.88753272094E+00  0.88000000000E+00 0. -1.
        -11    1    4    4    0    0 -0.13327094700E-01  0.85183199325E-02  0.16523961651E-01  0.22879590409E-01  0.51100000000E-03 0.  1.
         11    1    4    4    0    0 -0.67895651278E-01 -0.44307546114E-02  0.84980148469E-01  0.10886384985E+00  0.51100000000E-03 0. -1.
</event>
<event>
 8    1  0.9956970E+004  0.1043930E+01  0.7957747E-01            NaN
         13   -1    0    0    0    0  0.00000000000E+00  0.00000000000E+00  0.74505805969E-08  0.10566000000E+00  0.10566000000E+00 0. -1.
     999900   -1    0    0    0    0 -0.00000000000E+00 -0.00000000000E+00 -0.74505805969E-08  0.93827000000E+00  0.93827000000E+00 0.  1.
     999902    2    1    2    0    0  0.10631780125E-01 -0.86576024149E-02 -0.18910255972E-01  0.10205722045E+01  0.10203048751E+01 0.  0.
     999903    2    3    3    0    0  0.55914627839E-01  0.86924383599E-01 -0.79653072444E-01  0.13216005800E+00  0.20961271697E-01 0.  0.
         14    1    1    2    0    0 -0.10631780125E-01  0.86576024149E-02  0.18910255972E-01  0.23357795468E-01  0.00000000000E+00 0. -1.
     999901    1    3    3    0    0 -0.45282847714E-01 -0.95581986014E-01  0.60742816471E-01  0.88841214653E+00  0.88000000000E+00 0. -1.
        -11    1    4    4    0    0  0.34424077779E-01  0.34390557602E-01 -0.38477757602E-01  0.62036493568E-01  0.51100000000E-03 0.  1.
         11    1    4    4    0    0  0.21490550060E-01  0.52533825997E-01 -0.41175314842E-01  0.70123564435E-01  0.51100000000E-03 0. -1.
</event>
<event>
 8    1  0.9956970E+004  0.1043930E+01  0.7957747E-01            NaN
         13   -1    0    0    0    0  0.00000000000E+00  0.00000000000E+00  0.74505805969E-08  0.10566000000E+00  0.10566000000E+00 0. -1.
     999900   -1    0    0    0    0 -0.00000000000E+00 -0.00000000000E+00 -0.74505805969E-08  0.93827000000E+00  0.93827000000E+00 0.  1.
     999902    2    1    2    0    0  0.13485777918E-01 -0.67596755706E-02 -0.18582406747E-01  0.10199953962E+01  0.10197145399E+01 0.  0.
     999903    2    3    3    0    0  0.90335244821E-01  0.36899421236E-01  0.84378037353E-01  0.12959503097E+00  0.12377201669E-01 0.  0.
         14    1    1    2    0    0 -0.13485777918E-01  0.67596755706E-02  0.18582406747E-01  0.23934603828E-01  0.00000000000E+00 0. -1.
     999901    1    3    3    0    0 -0.76849466903E-01 -0.43659096806E-01 -0.10296044410E+00  0.89040036520E+00  0.88000000000E+00 0.  1.
        -11    1    4    4    0    0  0.84926799839E-02  0.10164859518E-02  0.42362466549E-02  0.95585440167E-02  0.51100000000E-03 0.  1.
         11    1    4    4    0    0  0.81842564837E-01  0.35882935284E-01  0.80141790698E-01  0.12003648696E+00  0.51100000000E-03 0. -1.
</event>
<event>
 8    1  0.9956970E+004  0.1043930E+01  0.7957747E-01            NaN
         13   -1    0    0    0    0  0.00000000000E+00  0.00000000000E+00  0.74505805969E-08  0.10566000000E+00  0.10566000000E+00 0.  1.
     999900   -1    0    0    0    0 -0.00000000000E+00 -0.00000000000E+00 -0.74505805969E-08  0.93827000000E+00  0.93827000000E+00 0. -1.
     999902    2    1    2    0    0 -0.11595337117E-01 -0.14438166563E-01 -0.14794846553E-01  0.10202276798E+01  0.10199523120E+01 0.  0.
     999903    2    3    3    0    0  0.74603611191E-01  0.32287142116E-01 -0.10031678995E+00  0.13066176549E+00  0.20021994576E-01 0.  0.
         14    1    1    2    0    0  0.11595337117E-01  0.14438166563E-01  0.14794846553E-01  0.23702320162E-01  0.00000000000E+00 0.  1.
     999901    1    3    3    0    0 -0.86198948308E-01 -0.46725308679E-01  0.85521943399E-01  0.88956591434E+00  0.88000000000E+00 0.  1.
        -11    1    4    4    0    0  0.42897949606E-02  0.59449399466E-02 -0.16892360602E-01  0.18421661692E-01  0.51100000000E-03 0. -1.
         11    1    4    4    0    0  0.70313816231E-01  0.26342202169E-01 -0.83424429350E-01  0.11224010380E+00  0.51100000000E-03 0.  1.
</event>
<event>
 8    1  0.9956970E+004  0.1043930E+01  0.7957747E-01            NaN
         13   -1    0    0    0    0  0.00000000000E+00  0.00000000000E+00  0.74505805969E-08  0.10566000000E+00  0.10566000000E+00 0. -1.
     999900   -1    0    0    0    0 -0.00000000000E+00 -0.00000000000E+00 -0.74505805969E-08  0.93827000000E+00  0.93827000000E+00 0. -1.
     999902    2    1    2    0    0  0.18612074662E-01 -0.12007581873E-01 -0.75615213560E-02  0.10205255570E+01  0.10202571463E+01 0.  0.
     999903    2    3    3    0    0  0.15818478736E-01 -0.12845709149E+00  0.18539670081E-01  0.13246611945E+00  0.21262756469E-01 0.  0.
         14    1    1    2    0    0 -0.18612074662E-01  0.12007581873E-01  0.75615213560E-02  0.23404442973E-01  0.00000000000E+00 0. -1.
     999901    1    3    3    0    0  0.27935959255E-02  0.11644950962E+00 -0.26101191437E-01  0.88805943757E+00  0.88000000000E+00 0. -1.
        -11    1    4    4    0    0 -0.46173024222E-02 -0.44167102994E-01  0.73225584292E-02  0.45010370488E-01  0.51100000000E-03 0. -1.
         11    1    4    4    0    0  0.20435781158E-01 -0.84289988497E-01  0.11217111652E-01  0.87455748966E-01  0.51100000000E-03 0.  1.
</event>
<event>
 8    1  0.9956970E+004  0.1043930E+01  0.7957747E-01            NaN
         13   -1    0    0    0    0  0.00000000000E+00  0.00000000000E+00  0.74505805969E-08  0.10566000000E+00  0.10566000000E+00 0. -1.
     999900   -1    0    0    0    0 -0.00000000000E+00 -0.00000000000E+00 -0.74505805969E-08  0.93827000000E+00  0.93827000000E+00 0.  1.
     999902    2    1    2    0    0  0.11820990617E-01 -0.18715768636E-01  0.13238068932E-01  0.10181373211E+01  0.10178105631E+01 0.  0.
     999903    2    3    3    0    0  0.23895052811E-01 -0.12474155276E+00 -0.23176295831E-01  0.13094328606E+00  0.21853488122E-01 0.  0.
         14    1    1    2    0    0 -0.11820990617E-01  0.18715768636E-01 -0.13238068932E-01  0.25792678880E-01  0.00000000000E+00 0.  1.
     999901    1    3    3    0    0 -0.12074062195E-01  0.10602578412E+00  0.36414364763E-01  0.88719403506E+00  0.88000000000E+00 0.  1.
        -11    1    4    4    0    0  0.15619685451E-01 -0.10354308656E+00 -0.11455253863E-01  0.10534053973E+00  0.51100000000E-03 0.  1.
         11    1    4    4    0    0  0.82753673600E-02 -0.21198466199E-01 -0.11721041969E-01  0.25602746336E-01  0.51100000000E-03 0. -1.
</event>
<event>
 8    1  0.9956970E+004  0.1043930E+01  0.7957747E-01            NaN
         13   -1    0    0    0    0  0.00000000000E+00  0.00000000000E+00  0.74505805969E-08  0.10566000000E+00  0.10566000000E+00 0.  1.
     999900   -1    0    0    0    0 -0.00000000000E+00 -0.00000000000E+00 -0.74505805969E-08  0.93827000000E+00  0.93827000000E+00 0. -1.
     999902    2    1    2    0    0  0.66427324762E-02 -0.10219611585E-01  0.22113085342E-01  0.10186801505E+01  0.10183671706E+01 0.  0.
     999903    2    3    3    0    0  0.76842782083E-01 -0.77126911834E-01  0.71655294250E-01  0.13196764679E+00  0.20678610181E-01 0.  0.
         14    1    1    2    0    0 -0.66427324762E-02  0.10219611585E-01 -0.22113085342E-01  0.25249849485E-01  0.00000000000E+00 0. -1.
     999901    1    3    3    0    0 -0.70200049607E-01  0.66907300250E-01 -0.49542208908E-01  0.88671250372E+00  0.88000000000E+00 0. -1.
        -11    1    4    4    0    0  0.50359447454E-01 -0.63079755377E-01  0.54931633294E-01  0.97636442703E-01  0.51100000000E-03 0. -1.
         11    1    4    4    0    0  0.26483334629E-01 -0.14047156457E-01  0.16723660956E-01  0.34331204091E-01  0.51100000000E-03 0.  1.
</event>
<event>
 8    1  0.9956970E+004  0.1043930E+01  0.7957747E-01            NaN
         13   -1    0    0    0    0  0.00000000000E+00  0.00000000000E+00  0.74505805969E-08  0.10566000000E+00  0.10566000000E+00 0. -1.
     999900   -1    0    0    0    0 -0.00000000000E+00 -0.00000000000E+00 -0.74505805969E-08  0.93827000000E+00  0.93827000000E+00 0.  1.
     999902    2    1    2    0    0 -0.31091789909E-02 -0.23245006669E-01  0.19224854590E-02  0.10203993120E+01  0.10201279638E+01 0.  0.
     999903    2    3    3    0    0 -0.89919517360E-01  0.89624866351E-01 -0.10932470652E-01  0.12886081421E+00  0.19169096316E-01 0.  0.
         14    1    1    2    0    0  0.31091789909E-02  0.23245006669E-01 -0.19224854590E-02  0.23530688035E-01  0.00000000000E+00 0.  1.
     999901    1    3    3    0    0  0.86810338369E-01 -0.11286987302E+00  0.12854956111E-01  0.89153849776E+00  0.88000000000E+00 0. -1.
        -11    1    4    4    0    0 -0.55395503354E-01  0.54079617040E-01  0.27018663451E-02  0.77465011288E-01  0.51100000000E-03 0.  1.
         11    1    4    4    0    0 -0.34524014006E-01  0.35545249311E-01 -0.13634336997E-01  0.51395802922E-01  0.51100000000E-03 0. -1.
</event>
<event>
 8    1  0.9956970E+004  0.1043930E+01  0.7957747E-01            NaN
         13   -1    0    0    0    0  0.00000000000E+00  0.00000000000E+00  0.74505805969E-08  0.10566000000E+00  0.10566000000E+00 0.  1.
     999900   -1    0    0    0    0 -0.00000000000E+00 -0.00000000000E+00 -0.74505805969E-08  0.93827000000E+00  0.93827000000E+00 0. -1.
     999902    2    1    2    0    0 -0.51715407628E-03 -0.22631949150E-01  0.78673188466E-02  0.10199640392E+01  0.10196824378E+01 0.  0.
     999903    2    3    3    0    0 -0.93160670840E-01 -0.12652991698E-01  0.89542260239E-01  0.13128344595E+00  0.19455539605E-01 0.  0.
         14    1    1    2    0    0  0.51715407628E-03  0.22631949150E-01 -0.78673188466E-02  0.23965960788E-01  0.00000000000E+00 0.  1.
     999901    1    3    3    0    0  0.92643516764E-01 -0.99789574517E-02 -0.81674941392E-01  0.88868059326E+00  0.88000000000E+00 0. -1.
        -11    1    4    4    0    0 -0.53585086281E-01 -0.14858356098E-01  0.44039509478E-01  0.70935687307E-01  0.51100000000E-03 0.  1.
         11    1    4    4    0    0 -0.39575584560E-01  0.22053643998E-02  0.45502750761E-01  0.60347758643E-01  0.51100000000E-03 0. -1.
</event>
<event>
 8    1  0.9956970E+004  0.1043930E+01  0.7957747E-01            NaN
         13   -1    0    0    0    0  0.00000000000E+00  0.00000000000E+00  0.74505805969E-08  0.10566000000E+00  0.10566000000E+00 0. -1.
     999900   -1    0    0    0    0 -0.00000000000E+00 -0.00000000000E+00 -0.74505805969E-08  0.93827000000E+00  0.93827000000E+00 0.  1.
     999902    2    1    2    0    0 -0.14919952633E-01 -0.29917442366E-02  0.17747766516E-01  0.10205518321E+01  0.10202840306E+01 0.  0.
     999903    2    3    3    0    0  0.19143229150E-01 -0.58498846042E-01 -0.11205246138E+00  0.12864968615E+00  0.14366956392E-01 0.  0.
         14    1    1    2    0    0  0.14919952633E-01  0.29917442366E-02 -0.17747766516E-01  0.23378167945E-01  0.00000000000E+00 0.  1.
     999901    1    3    3    0    0 -0.34063181783E-01  0.55507101805E-01  0.12980022789E+00  0.89190214590E+00  0.88000000000E+00 0. -1.
        -11    1    4    4    0    0  0.14316986669E-01 -0.26624950299E-01 -0.64012119172E-01  0.70793196055E-01  0.51100000000E-03 0.  1.
         11    1    4    4    0    0  0.48262424810E-02 -0.31873895742E-01 -0.48040342206E-01  0.57856490098E-01  0.51100000000E-03 0. -1.
</event>
<event>
 8    1  0.9956970E+004  0.1043930E+01  0.7957747E-01            NaN
         13   -1    0    0    0    0  0.00000000000E+00  0.00000000000E+00  0.74505805969E-08  0.10566000000E+00  0.10566000000E+00 0.  1.
     999900   -1    0    0    0    0 -0.00000000000E+00 -0.00000000000E+00 -0.74505805969E-08  0.93827000000E+00  0.93827000000E+00 0.  1.
     999902    2    1    2    0    0 -0.15336861556E-02 -0.13851428838E-01 -0.19300336399E-01  0.10201241759E+01  0.10198463694E+01 0.  0.
     999903    2    3    3    0    0  0.19254184996E-01  0.11261304273E+00 -0.56970106999E-01  0.13004305055E+00  0.24762489235E-01 0.  0.
         14    1    1    2    0    0  0.15336861556E-02  0.13851428838E-01  0.19300336399E-01  0.23805824060E-01  0.00000000000E+00 0.  1.
     999901    1    3    3    0    0 -0.20787871151E-01 -0.12646447157E+00  0.37669770600E-01  0.89008112539E+00  0.88000000000E+00 0. -1.
        -11    1    4    4    0    0  0.57549001111E-02  0.91903684946E-01 -0.46958974157E-01  0.10336736698E+00  0.51100000000E-03 0.  1.
         11    1    4    4    0    0  0.13499284885E-01  0.20709357781E-01 -0.10011132842E-01  0.26675683569E-01  0.51100000000E-03 0. -1.
</event>
<event>
 8    1  0.9956970E+004  0.1043930E+01  0.7957747E-01            NaN
         13   -1    0    0    0    0  0.00000000000E+00  0.00000000000E+00  0.74505805969E-08  0.10566000000E+00  0.10566000000E+00 0.  1.
     999900   -1    0    0    0    0 -0.00000000000E+00 -0.00000000000E+00 -0.74505805969E-08  0.93827000000E+00  0.93827000000E+00 0. -1.
     999902    2    1    2    0    0  0.92866165629E-02  0.21673106896E-01 -0.39547588368E-02  0.10200217394E+01  0.10197415083E+01 0.  0.
     999903    2    3    3    0    0 -0.11111192140E-01  0.13090316943E+00  0.23818992375E-02  0.13301135024E+00  0.20669965916E-01 0.  0.
         14    1    1    2    0    0 -0.92866165629E-02 -0.21673106896E-01  0.39547588368E-02  0.23908260647E-01  0.00000000000E+00 0.  1.
     999901    1    3    3    0    0  0.20397808702E-01 -0.10923006253E+00 -0.63366580743E-02  0.88701038911E+00  0.88000000000E+00 0. -1.
        -11    1    4    4    0    0 -0.13135563607E-01  0.50604695819E-01 -0.39716857591E-02  0.52434851759E-01  0.51100000000E-03 0.  1.
         11    1    4    4    0    0  0.20243714671E-02  0.80298473610E-01  0.63535849967E-02  0.80576498480E-01  0.51100000000E-03 0. -1.
</event>
<event>
 8    1  0.9956970E+004  0.1043930E+01  0.7957747E-01            NaN
         13   -1    0    0    0    0  0.00000000000E+00  0.00000000000E+00  0.74505805969E-08  0.10566000000E+00  0.10566000000E+00 0.  1.
     999900   -1    0    0    0    0 -0.00000000000E+00 -0.00000000000E+00 -0.74505805969E-08  0.93827000000E+00  0.93827000000E+00 0.  1.
     999902    2    1    2    0    0  0.10380967043E-01 -0.20861372494E-01  0.25024067662E-02  0.10204944847E+01  0.10202253525E+01 0.  0.
     999903    2    3    3    0    0 -0.82557252104E-02 -0.34732687222E-01 -0.12472834721E+00  0.13104105451E+00  0.18441280011E-01 0.  0.
         14    1    1    2    0    0 -0.10380967043E-01  0.20861372494E-01 -0.25024067662E-02  0.23435515328E-01  0.00000000000E+00 0. -1.
     999901    1    3    3    0    0  0.18636692253E-01  0.13871314728E-01  0.12723075398E+00  0.88945343016E+00  0.88000000000E+00 0. -1.
        -11    1    4    4    0    0  0.53514202469E-02 -0.16282900009E-01 -0.48746372803E-01  0.51674369989E-01  0.51100000000E-03 0. -1.
         11    1    4    4    0    0 -0.13607145457E-01 -0.18449787213E-01 -0.75981974408E-01  0.79366684520E-01  0.51100000000E-03 0.  1.
</event>
<event>
 8    1  0.9956970E+004  0.1043930E+01  0.7957747E-01            NaN
         13   -1    0    0    0    0  0.00000000000E+00  0.00000000000E+00  0.74505805969E-08  0.10566000000E+00  0.10566000000E+00 0.  1.
     999900   -1    0    0    0    0 -0.00000000000E+00 -0.00000000000E+00 -0.74505805969E-08  0.93827000000E+00  0.93827000000E+00 0. -1.
     999902    2    1    2    0    0 -0.19742280212E-01 -0.80592306687E-02 -0.97084440813E-02  0.10205000467E+01  0.10202310437E+01 0.  0.
     999903    2    3    3    0    0  0.10056096660E+00  0.30366306735E-01 -0.72628994252E-01  0.12926024237E+00  0.19965441752E-01 0.  0.
         14    1    1    2    0    0  0.19742280212E-01  0.80592306687E-02  0.97084440813E-02  0.23429953338E-01  0.00000000000E+00 0.  1.
     999901    1    3    3    0    0 -0.12030324681E+00 -0.38425537403E-01  0.62920550171E-01  0.89123980429E+00  0.88000000000E+00 0.  1.
        -11    1    4    4    0    0  0.21227028467E-01 -0.17950162089E-02 -0.13744675810E-01  0.25357169693E-01  0.51100000000E-03 0.  1.
         11    1    4    4    0    0  0.79333938130E-01  0.32161322943E-01 -0.58884318442E-01  0.10390307268E+00  0.51100000000E-03 0. -1.
</event>
<event>
 8    1  0.9956970E+004  0.1043930E+01  0.7957747E-01            NaN
         13   -1    0    0    0    0  0.00000000000E+00  0.00000000000E+00  0.74505805969E-08  0.10566000000E+00  0.10566000000E+00 0.  1.
     999900   -1    0    0    0    0 -0.00000000000E+00 -0.00000000000E+00 -0.74505805969E-08  0.93827000000E+00  0.93827000000E+00 0.  1.
     999902    2    1    2    0    0 -0.15246881043E-02  0.61197107060E-03 -0.22219872218E-01  0.10216494725E+01  0.10214064925E+01 0.  0.
     999903    2    3    3    0    0  0.84783814265E-01  0.97725579881E-01  0.12362649888E-01  0.13143817098E+00  0.19610546993E-01 0.  0.
         14    1    1    2    0    0  0.15246881043E-02 -0.61197107060E-03  0.22219872218E-01  0.22280527458E-01  0.00000000000E+00 0.  1.
     999901    1    3    3    0    0 -0.86308502370E-01 -0.97113608810E-01 -0.34582522107E-01  0.89021130156E+00  0.88000000000E+00 0. -1.
        -11    1    4    4    0    0  0.37577529943E-01  0.33600748522E-01  0.11949691567E-01  0.51808660545E-01  0.51100000000E-03 0.  1.
         11    1    4    4    0    0  0.47206284322E-01  0.64124831358E-01  0.41295832096E-03  0.79629510433E-01  0.51100000000E-03 0. -1.
</event>
<event>
 8    1  0.9956970E+004  0.1043930E+01  0.7957747E-01            NaN
         13   -1    0    0    0    0  0.00000000000E+00  0.00000000000E+00  0.74505805969E-08  0.10566000000E+00  0.10566000000E+00 0.  1.
     999900   -1    0    0    0    0 -0.00000000000E+00 -0.00000000000E+00 -0.74505805969E-08  0.93827000000E+00  0.93827000000E+00 0. -1.
     999902    2    1    2    0    0  0.21509014506E-01  0.97158096102E-02  0.40964777197E-02  0.10199755476E+01  0.10196942198E+01 0.  0.
     999903    2    3    3    0    0  0.70472740739E-01 -0.10336725754E+00  0.31519135661E-01  0.13096642010E+00  0.22528873978E-01 0.  0.
         14    1    1    2    0    0 -0.21509014506E-01 -0.97158096102E-02 -0.40964777197E-02  0.23954452428E-01  0.00000000000E+00 0. -1.
     999901    1    3    3    0    0 -0.48963726233E-01  0.11308306715E+00 -0.27422657941E-01  0.88900912747E+00  0.88000000000E+00 0. -1.
        -11    1    4    4    0    0  0.16323627942E-01 -0.16064381942E-01 -0.17637273862E-02  0.22976010351E-01  0.51100000000E-03 0.  1.
         11    1    4    4    0    0  0.54149112797E-01 -0.87302875595E-01  0.33282863047E-01  0.10799040975E+00  0.51100000000E-03 0. -1.
</event>
<event>
 8    1  0.9956970E+004  0.1043930E+01  0.7957747E-01            NaN
         13   -1    0    0    0    0  0.00000000000E+00  0.00000000000E+00  0.74505805969E-08  0.10566000000E+00  0.10566000000E+00 0. -1.
     999900   -1    0    0    0    0 -0.00000000000E+00 -0.00000000000E+00 -0.74505805969E-08  0.93827000000E+00  0.93827000000E+00 0.  1.
     999902    2    1    2    0    0  0.17202925693E-01  0.14005983432E-01 -0.97730678161E-02  0.10196891032E+01  0.10194009251E+01 0.  0.
     999903    2    3    3    0    0 -0.25272472747E-01 -0.11071164873E+00  0.54025410646E-01  0.12759667910E+00  0.21596307032E-01 0.  0.
         14    1    1    2    0    0 -0.17202925693E-01 -0.14005983432E-01  0.97730678161E-02  0.24240896825E-01  0.00000000000E+00 0. -1.
     999901    1    3    3    0    0  0.42475398441E-01  0.12471763216E+00 -0.63798478462E-01  0.89209242408E+00  0.88000000000E+00 0.  1.
        -11    1    4    4    0    0 -0.94100089499E-02 -0.72270963028E-01  0.25710859085E-01  0.77284861139E-01  0.51100000000E-03 0. -1.
         11    1    4    4    0    0 -0.15862463797E-01 -0.38440685704E-01  0.28314551561E-01  0.50311817957E-01  0.51100000000E-03 0.  1.
</event>
<event>
 8    1  0.9956970E+004  0.1043930E+01  0.7957747E-01            NaN
         13   -1    0    0    0    0  0.00000000000E+00  0.00000000000E+00  0.74505805969E-08  0.10566000000E+00  0.10566000000E+00 0.  1.
     999900   -1    0    0    0    0 -0.00000000000E+00 -0.00000000000E+00 -0.74505805969E-08  0.93827000000E+00  0.93827000000E+00 0. -1.
     999902    2    1    2    0    0 -0.80173789848E-02 -0.20834010820E-01 -0.22436217053E-02  0.10214941312E+01  0.10212477132E+01 0.  0.
     999903    2    3    3    0    0 -0.51744339091E-01  0.11498344165E+00 -0.23267365699E-01  0.12975402033E+00  0.19901432171E-01 0.  0.
         14    1    1    2    0    0  0.80173789848E-02  0.20834010820E-01  0.22436217053E-02  0.22435868849E-01  0.00000000000E+00 0.  1.
     999901    1    3    3    0    0  0.43726960107E-01 -0.13581745247E+00  0.21023743993E-01  0.89174011082E+00  0.88000000000E+00 0. -1.
        -11    1    4    4    0    0 -0.29164207090E-01  0.46240886347E-01 -0.37001241109E-02  0.54797103799E-01  0.51100000000E-03 0. -1.
         11    1    4    4    0    0 -0.22580132001E-01  0.68742555307E-01 -0.19567241588E-01  0.74956916530E-01  0.51100000000E-03 0.  1.
</event>
<event>
 8    1  0.9956970E+004  0.1043930E+01  0.7957747E-01            NaN
         13   -1    0    0    0    0  0.00000000000E+00  0.00000000000E+00  0.74505805969E-08  0.10566000000E+00  0.10566000000E+00 0.  1.
     999900   -1    0    0    0    0 -0.00000000000E+00 -0.00000000000E+00 -0.74505805969E-08  0.93827000000E+00  0.93827000000E+00 0. -1.
     999902    2    1    2    0    0  0.21937641596E-02  0.11355889927E-01 -0.18196154646E-01  0.10223691818E+01  0.10221418077E+01 0.  0.
     999903    2    3    3    0    0  0.81889029202E-01  0.73072246791E-01 -0.75629649979E-01  0.13475504810E+00  0.19842194366E-01 0.  0.
         14    1    1    2    0    0 -0.21937641596E-02 -0.11355889927E-01  0.18196154646E-01  0.21560818192E-01  0.00000000000E+00 0.  1.
     999901    1    3    3    0    0 -0.79695265042E-01 -0.61716356865E-01  0.57433495333E-01  0.88761413371E+00  0.88000000000E+00 0.  1.
        -11    1    4    4    0    0  0.54912403202E-01  0.53702182229E-01 -0.62558299436E-01  0.99061083938E-01  0.51100000000E-03 0.  1.
         11    1    4    4    0    0  0.26976626000E-01  0.19370064562E-01 -0.13071350543E-01  0.35693964161E-01  0.51100000000E-03 0. -1.
</event>
<event>
 8    1  0.9956970E+004  0.1043930E+01  0.7957747E-01            NaN
         13   -1    0    0    0    0  0.00000000000E+00  0.00000000000E+00  0.74505805969E-08  0.10566000000E+00  0.10566000000E+00 0.  1.
     999900   -1    0    0    0    0 -0.00000000000E+00 -0.00000000000E+00 -0.74505805969E-08  0.93827000000E+00  0.93827000000E+00 0. -1.
     999902    2    1    2    0    0  0.14226155918E-01 -0.54347468311E-02 -0.20358285300E-01  0.10185060002E+01  0.10181886332E+01 0.  0.
     999903    2    3    3    0    0  0.33885362116E-01 -0.43696108727E-01 -0.11824230113E+00  0.13203451349E+00  0.19857071599E-01 0.  0.
         14    1    1    2    0    0 -0.14226155918E-01  0.54347468311E-02  0.20358285300E-01  0.25423999797E-01  0.00000000000E+00 0.  1.
     999901    1    3    3    0    0 -0.19659206198E-01  0.38261361896E-01  0.97884015828E-01  0.88647148671E+00  0.88000000000E+00 0.  1.
        -11    1    4    4    0    0  0.23924259488E-01 -0.33282219947E-01 -0.64767750774E-01  0.76649846823E-01  0.51100000000E-03 0.  1.
         11    1    4    4    0    0  0.99611026283E-02 -0.10413888780E-01 -0.53474550354E-01  0.55384666666E-01  0.51100000000E-03 0. -1.
</event>
<event>
 8    1  0.9956970E+004  0.1043930E+01  0.7957747E-01            NaN
         13   -1    0    0    0    0  0.00000000000E+00  0.00000000000E+00  0.74505805969E-08  0.10566000000E+00  0.10566000000E+00 0. -1.
     999900   -1    0    0    0    0 -0.00000000000E+00 -0.00000000000E+00 -0.74505805969E-08  0.93827000000E+00  0.93827000000E+00 0.  1.
     999902    2    1    2    0    0 -0.20654109704E-01 -0.11921764486E-01  0.87313718013E-03  0.10200661553E+01  0.10197869768E+01 0.  0.
     999903    2    3    3    0    0 -0.15254071151E-01 -0.38945373147E-02  0.12837213306E+00  0.13082513579E+00  0.19696636778E-01 0.  0.
         14    1    1    2    0    0  0.20654109704E-01  0.11921764486E-01 -0.87313718013E-03  0.23863844716E-01  0.00000000000E+00 0.  1.
     999901    1    3    3    0    0 -0.54000385532E-02 -0.80272271708E-02 -0.12749899588E+00  0.88924101949E+00  0.88000000000E+00 0.  1.
        -11    1    4    4    0    0  0.17808368727E-02  0.31549604799E-02  0.56706505318E-01  0.56824413960E-01  0.51100000000E-03 0. -1.
         11    1    4    4    0    0 -0.17034908023E-01 -0.70494977946E-02  0.71665627747E-01  0.74000721833E-01  0.51100000000E-03 0.  1.
</event>
<event>
 8    1  0.9956970E+004  0.1043930E+01  0.7957747E-01            NaN
         13   -1    0    0    0    0  0.00000000000E+00  0.00000000000E+00  0.74505805969E-08  0.10566000000E+00  0.10566000000E+00 0.  1.
     999900   -1    0    0    0    0 -0.00000000000E+00 -0.00000000000E+00 -0.74505805969E-08  0.93827000000E+00  0.93827000000E+00 0. -1.
     999902    2    1    2    0    0 -0.16219501948E-01  0.11935415853E-01 -0.10960633413E-01  0.10210026827E+01  0.10207452259E+01 0.  0.
     999903    2    3    3    0    0 -0.57503416472E-01  0.14315600840E-01  0.11529035196E+00  0.13103114482E+00  0.19123711072E-01 0.  0.
         14    1    1    2    0    0  0.16219501948E-01 -0.11935415853E-01  0.10960633413E-01  0.22927317327E-01  0.00000000000E+00 0.  1.
     999901    1    3    3    0    0  0.41283914524E-01 -0.23801849877E-02 -0.12625098537E+00  0.88997153785E+00  0.88000000000E+00 0. -1.
        -11    1    4    4    0    0 -0.42548250847E-01  0.44087037456E-02  0.66774410551E-01  0.79302417014E-01  0.51100000000E-03 0.  1.
         11    1    4    4    0    0 -0.14955165625E-01  0.99068970948E-02  0.48515941407E-01  0.51728727807E-01  0.51100000000E-03 0. -1.
</event>
<event>
 8    1  0.9956970E+004  0.1043930E+01  0.7957747E-01            NaN
         13   -1    0    0    0    0  0.00000000000E+00  0.00000000000E+00  0.74505805969E-08  0.10566000000E+00  0.10566000000E+00 0. -1.
     999900   -1    0    0    0    0 -0.00000000000E+00 -0.00000000000E+00 -0.74505805969E-08  0.93827000000E+00  0.93827000000E+00 0. -1.
     999902    2    1    2    0    0  0.44803529451E-02  0.33590332409E-04 -0.22543475812E-01  0.10209455924E+01  0.10206868372E+01 0.  0.
     999903    2    3    3    0    0 -0.19566700620E-01  0.82126365184E-01 -0.10135683668E+00  0.13329192665E+00  0.19129394629E-01 0.  0.
         14    1    1    2    0    0 -0.44803529451E-02 -0.33590332409E-04  0.22543475812E-01  0.22984407595E-01  0.00000000000E+00 0. -1.
     999901    1    3    3    0    0  0.24047053565E-01 -0.82092774851E-01  0.78813360864E-01  0.88765366575E+00  0.88000000000E+00 0.  1.
        -11    1    4    4    0    0 -0.13006458991E-01  0.68935498522E-01 -0.72482471190E-01  0.10087239802E+00  0.51100000000E-03 0. -1.
         11    1    4    4    0    0 -0.65602416284E-02  0.13190866662E-01 -0.28874365487E-01  0.32419528633E-01  0.51100000000E-03 0.  1.
</event>
<event>
 8    1  0.9956970E+004  0.1043930E+01  0.7957747E-01            NaN
         13   -1    0    0    0    0  0.00000000000E+00  0.00000000000E+00  0.74505805969E-08  0.10566000000E+00  0.10566000000E+00 0.  1.
     999900   -1    0    0    0    0 -0.00000000000E+00 -0.00000000000E+00 -0.74505805969E-08  0.93827000000E+00  0.93827000000E+00 0. -1.
     999902    2    1    2    0    0  0.17818723568E-01  0.10042821513E-01  0.92519176771E-02  0.10214808763E+01  0.10212341639E+01 0.  0.
     999903    2    3    3    0    0  0.10969088181E+00  0.72756153551E-01 -0.12996528611E-01  0.13419938274E+00  0.22693989075E-01 0.  0.
         14    1    1    2    0    0 -0.17818723568E-01 -0.10042821513E-01 -0.92519176771E-02  0.22449123685E-01  0.00000000000E+00 0. -1.
     999901    1    3    3    0    0 -0.91872158244E-01 -0.62713332038E-01  0.22248446288E-01  0.88728149357E+00  0.88000000000E+00 0. -1.
        -11    1    4    4    0    0  0.74573580205E-01  0.47744217808E-01 -0.19288013059E-01  0.90625701473E-01  0.51100000000E-03 0. -1.
         11    1    4    4    0    0  0.35117301607E-01  0.25011935743E-01  0.62914844480E-02  0.43573681269E-01  0.51100000000E-03 0.  1.
</event>
<event>
 8    1  0.9956970E+004  0.1043930E+01  0.7957747E-01            NaN
         13   -1    0    0    0    0  0.00000000000E+00  0.00000000000E+00  0.74505805969E-08  0.10566000000E+00  0.10566000000E+00 0. -1.
     999900   -1    0    0    0    0 -0.00000000000E+00 -0.00000000000E+00 -0.74505805969E-08  0.93827000000E+00  0.93827000000E+00 0.  1.
     999902    2    1    2    0    0  0.13470984499E-01  0.11218510559E-01  0.17159272532E-01  0.10193991411E+01  0.10191039426E+01 0.  0.
     999903    2    3    3    0    0  0.72571693736E-01  0.58689371364E-01  0.92225265501E-01  0.13295609178E+00  0.21464615121E-01 0.  0.
         14    1    1    2    0    0 -0.13470984499E-01 -0.11218510559E-01 -0.17159272532E-01  0.24530858858E-01  0.00000000000E+00 0.  1.
     999901    1    3    3    0    0 -0.59100709237E-01 -0.47470860805E-01 -0.75065992970E-01  0.88644304936E+00  0.88000000000E+00 0.  1.
        -11    1    4    4    0    0  0.15076283669E-01  0.23221407547E-01  0.33321674754E-01  0.43325780168E-01  0.51100000000E-03 0.  1.
         11    1    4    4    0    0  0.57495410067E-01  0.35467963816E-01  0.58903590747E-01  0.89630311613E-01  0.51100000000E-03 0. -1.
</event>
<event>
 8    1  0.9956970E+004  0.1043930E+01  0.7957747E-01            NaN
         13   -1    0    0    0    0  0.00000000000E+00  0.00000000000E+00  0.74505805969E-08  0.10566000000E+00  0.10566000000E+00 0.  1.
     999900   -1    0    0    0    0 -0.00000000000E+00 -0.00000000000E+00 -0.74505805969E-08  0.93827000000E+00  0.93827000000E+00 0.  1.
     999902    2    1    2    0    0 -0.93662499863E-02 -0.52082893920E-02 -0.21133833471E-01  0.10202341811E+01  0.10199589660E+01 0.  0.
     999903    2    3    3    0    0  0.84541762775E-01  0.87519939958E-01 -0.41563615930E-01  0.13015855767E+00  0.20165971872E-01 0.  0.
         14    1    1    2    0    0  0.93662499863E-02  0.52082893920E-02  0.21133833471E-01  0.23695818922E-01  0.00000000000E+00 0.  1.
     999901    1    3    3    0    0 -0.93908012761E-01 -0.92728229350E-01  0.20429782458E-01  0.89007562341E+00  0.88000000000E+00 0.  1.
        -11    1    4    4    0    0  0.45072564004E-01  0.37663562364E-01 -0.28292065818E-01  0.65198021941E-01  0.51100000000E-03 0.  1.
         11    1    4    4    0    0  0.39469198770E-01  0.49856377594E-01 -0.13271550112E-01  0.64960535725E-01  0.51100000000E-03 0. -1.
</event>
<event>
 8    1  0.9956970E+004  0.1043930E+01  0.7957747E-01            NaN
         13   -1    0    0    0    0  0.00000000000E+00  0.00000000000E+00  0.74505805969E-08  0.10566000000E+00  0.10566000000E+00 0.  1.
     999900   -1    0    0    0    0 -0.00000000000E+00 -0.00000000000E+00 -0.74505805969E-08  0.93827000000E+00  0.93827000000E+00 0.  1.
     999902    2    1    2    0    0  0.13839477807E-01  0.81092698838E-02  0.18000221524E-01  0.10198198490E+01  0.10195348082E+01 0.  0.
     999903    2    3    3    0    0  0.28803790672E-01  0.47929495611E-01 -0.11433649649E+00  0.12890874912E+00  0.20438597424E-01 0.  0.
         14    1    1    2    0    0 -0.13839477807E-01 -0.81092698838E-02 -0.18000221524E-01  0.24110150952E-01  0.00000000000E+00 0. -1.
     999901    1    3    3    0    0 -0.14964312865E-01 -0.39820225727E-01  0.13233671801E+00  0.89091109993E+00  0.88000000000E+00 0. -1.
        -11    1    4    4    0    0  0.31121490635E-03  0.11121619218E-01 -0.37033410431E-01  0.38671977941E-01  0.51100000000E-03 0.  1.
         11    1    4    4    0    0  0.28492575765E-01  0.36807876393E-01 -0.77303086057E-01  0.90236771182E-01  0.51100000000E-03 0. -1.
</event>
<event>
 8    1  0.9956970E+004  0.1043930E+01  0.7957747E-01            NaN
         13   -1    0    0    0    0  0.00000000000E+00  0.00000000000E+00  0.74505805969E-08  0.10566000000E+00  0.10566000000E+00 0. -1.
     999900   -1    0    0    0    0 -0.00000000000E+00 -0.00000000000E+00 -0.74505805969E-08  0.93827000000E+00  0.93827000000E+00 0.  1.
     999902    2    1    2    0    0 -0.18019391814E-01  0.10229400201E-01  0.95533978853E-02  0.10211131965E+01  0.10208582436E+01 0.  0.
     999903    2    3    3    0    0 -0.12080494231E+00  0.23850804042E-01 -0.46597955831E-01  0.13324868740E+00  0.20521897245E-01 0.  0.
         14    1    1    2    0    0  0.18019391814E-01 -0.10229400201E-01 -0.95533978853E-02  0.22816803478E-01  0.00000000000E+00 0.  1.
     999901    1    3    3    0    0  0.10278555050E+00 -0.13621403841E-01  0.56151353716E-01  0.88786450912E+00  0.88000000000E+00 0.  1.
        -11    1    4    4    0    0 -0.90040723106E-01  0.14671683462E-01 -0.25140413429E-01  0.94630289134E-01  0.51100000000E-03 0.  1.
         11    1    4    4    0    0 -0.30764219203E-01  0.91791205797E-02 -0.21457542401E-01  0.38618398267E-01  0.51100000000E-03 0. -1.
</event>
<event>
 8    1  0.9956970E+004  0.1043930E+01  0.7957747E-01            NaN
         13   -1    0    0    0    0  0.00000000000E+00  0.00000000000E+00  0.74505805969E-08  0.10566000000E+00  0.10566000000E+00 0. -1.
     999900   -1    0    0    0    0 -0.00000000000E+00 -0.00000000000E+00 -0.74505805969E-08  0.93827000000E+00  0.93827000000E+00 0.  1.
     999902    2    1    2    0    0 -0.18875291491E-01 -0.39473494342E-02  0.15403992930E-01  0.10192492141E+01  0.10189503517E+01 0.  0.
     999903    2    3    3    0    0 -0.79296237781E-01 -0.83661643714E-01 -0.57742950540E-01  0.13056730539E+00  0.20649671763E-01 0.  0.
         14    1    1    2    0    0  0.18875291491E-01  0.39473494342E-02 -0.15403992930E-01  0.24680785940E-01  0.00000000000E+00 0.  1.
     999901    1    3    3    0    0  0.60420946290E-01  0.79714294279E-01  0.73146943471E-01  0.88868190867E+00  0.88000000000E+00 0. -1.
        -11    1    4    4    0    0 -0.96763502337E-03 -0.21940724760E-02 -0.55784647848E-02  0.60934934089E-02  0.51100000000E-03 0. -1.
         11    1    4    4    0    0 -0.78328602757E-01 -0.81467571238E-01 -0.52164485756E-01  0.12447381198E+00  0.51100000000E-03 0.  1.
</event>
<event>
 8    1  0.9956970E+004  0.1043930E+01  0.7957747E-01            NaN
         13   -1    0    0    0    0  0.00000000000E+00  0.00000000000E+00  0.74505805969E-08  0.10566000000E+00  0.10566000000E+00 0.  1.
     999900   -1    0    0    0    0 -0.00000000000E+00 -0.00000000000E+00 -0.74505805969E-08  0.93827000000E+00  0.93827000000E+00 0.  1.
     999902    2    1    2    0    0 -0.15439749474E-01 -0.89254102607E-02  0.15668880344E-01  0.10201905261E+01  0.10199142841E+01 0.  0.
     999903    2    3    3    0    0 -0.36721010470E-01 -0.19385815183E-01 -0.12093959266E+00  0.12933465273E+00  0.19411977818E-01 0.  0.
         14    1    1    2    0    0  0.15439749474E-01  0.89254102607E-02 -0.15668880344E-01  0.23739473949E-01  0.00000000000E+00 0. -1.
     999901    1    3    3    0    0  0.21281260996E-01  0.10460404923E-01  0.13660847300E+00  0.89085587332E+00  0.88000000000E+00 0. -1.
        -11    1    4    4    0    0  0.22248383334E-03 -0.52170461000E-02 -0.25187910041E-01  0.25728563938E-01  0.51100000000E-03 0.  1.
         11    1    4    4    0    0 -0.36943494304E-01 -0.14168769083E-01 -0.95751682618E-01  0.10360608879E+00  0.51100000000E-03 0. -1.
</event>
<event>
 8    1  0.9956970E+004  0.1043930E+01  0.7957747E-01            NaN
         13   -1    0    0    0    0  0.00000000000E+00  0.00000000000E+00  0.74505805969E-08  0.10566000000E+00  0.10566000000E+00 0. -1.
     999900   -1    0    0    0    0 -0.00000000000E+00 -0.00000000000E+00 -0.74505805969E-08  0.93827000000E+00  0.93827000000E+00 0.  1.
     999902    2    1    2    0    0 -0.68507552493E-02  0.17719446351E-01  0.12953083676E-01  0.10209366531E+01  0.10206776943E+01 0.  0.
     999903    2    3    3    0    0  0.11642078777E-01 -0.43815451619E-01 -0.11863953311E+00  0.12883511996E+00  0.21629089673E-01 0.  0.
         14    1    1    2    0    0  0.68507552493E-02 -0.17719446351E-01 -0.12953083676E-01  0.22993346933E-01  0.00000000000E+00 0.  1.
     999901    1    3    3    0    0 -0.18492834026E-01  0.61534897970E-01  0.13159261679E+00  0.89210153311E+00  0.88000000000E+00 0. -1.
        -11    1    4    4    0    0  0.11169431984E-01 -0.66853442673E-02 -0.33804073853E-01  0.36227428406E-01  0.51100000000E-03 0.  1.
         11    1    4    4    0    0  0.47264679296E-03 -0.37130107352E-01 -0.84835459256E-01  0.92607691555E-01  0.51100000000E-03 0. -1.
</event>
<event>
 8    1  0.9956970E+004  0.1043930E+01  0.7957747E-01            NaN
         13   -1    0    0    0    0  0.00000000000E+00  0.00000000000E+00  0.74505805969E-08  0.10566000000E+00  0.10566000000E+00 0. -1.
     999900   -1    0    0    0    0 -0.00000000000E+00 -0.00000000000E+00 -0.74505805969E-08  0.93827000000E+00  0.93827000000E+00 0.  1.
     999902    2    1    2    0    0  0.11609111852E-01 -0.10345996466E-01  0.16606545627E-01  0.10211794291E+01  0.10209259708E+01 0.  0.
     999903    2    3    3    0    0  0.82349699146E-01  0.13238384481E-01 -0.98426739496E-01  0.13056553381E+00  0.20070072186E-01 0.  0.
         14    1    1    2    0    0 -0.11609111852E-01  0.10345996466E-01 -0.16606545627E-01  0.22750570949E-01  0.00000000000E+00 0.  1.
     999901    1    3    3    0    0 -0.70740587295E-01 -0.23584380947E-01  0.11503328512E+00  0.89061389524E+00  0.88000000000E+00 0. -1.
        -11    1    4    4    0    0  0.12040203746E-01  0.85935961336E-02 -0.12004686170E-01  0.19057544747E-01  0.51100000000E-03 0. -1.
         11    1    4    4    0    0  0.70309495400E-01  0.46447883475E-02 -0.86422053326E-01  0.11150798906E+00  0.51100000000E-03 0.  1.
</event>
<event>
 8    1  0.9956970E+004  0.1043930E+01  0.7957747E-01            NaN
         13   -1    0    0    0    0  0.00000000000E+00  0.00000000000E+00  0.74505805969E-08  0.10566000000E+00  0.10566000000E+00 0.  1.
     999900   -1    0    0    0    0 -0.00000000000E+00 -0.00000000000E+00 -0.74505805969E-08  0.93827000000E+00  0.93827000000E+00 0.  1.
     999902    2    1    2    0    0  0.19293966465E-01 -0.38682584211E-02  0.12229271329E-01  0.10207615809E+01  0.10204986181E+01 0.  0.
     999903    2    3    3    0    0 -0.92992812571E-02  0.12168411750E+00 -0.39609463420E-01  0.12988098997E+00  0.20165834471E-01 0.  0.
         14    1    1    2    0    0 -0.19293966465E-01  0.38682584211E-02 -0.12229271329E-01  0.23168419075E-01  0.00000000000E+00 0. -1.
     999901    1    3    3    0    0  0.28593247723E-01 -0.12555237592E+00  0.51838734749E-01  0.89088059095E+00  0.88000000000E+00 0. -1.
        -11    1    4    4    0    0 -0.10010441487E-01  0.92762628255E-01 -0.38474360599E-01  0.10092398964E+00  0.51100000000E-03 0.  1.
         11    1    4    4    0    0  0.71116023015E-03  0.28921489246E-01 -0.11351028213E-02  0.28957000337E-01  0.51100000000E-03 0. -1.
</event>
<event>
 8    1  0.9956970E+004  0.1043930E+01  0.7957747E-01            NaN
         13   -1    0    0    0    0  0.00000000000E+00  0.00000000000E+00  0.74505805969E-08  0.10566000000E+00  0.10566000000E+00 0. -1.
     999900   -1    0    0    0    0 -0.00000000000E+00 -0.00000000000E+00 -0.74505805969E-08  0.93827000000E+00  0.93827000000E+00 0. -1.
     999902    2    1    2    0    0 -0.16346883580E-01 -0.13064396959E-01 -0.11285215501E-01  0.10201549046E+01  0.10198778232E+01 0.  0.
     999903    2    3    3    0    0  0.39275228985E-02  0.12390984596E+00  0.27710416778E-01  0.12847466255E+00  0.19204071373E-01 0.  0.
         14    1    1    2    0    0  0.16346883580E-01  0.13064396959E-01  0.11285215501E-01  0.23775095364E-01  0.00000000000E+00 0. -1.
     999901    1    3    3    0    0 -0.20274406478E-01 -0.13697424292E+00 -0.38995632280E-01  0.89168024208E+00  0.88000000000E+00 0.  1.
        -11    1    4    4    0    0 -0.62785522978E-02  0.82483831194E-01  0.16412387969E-01  0.84336411040E-01  0.51100000000E-03 0. -1.
         11    1    4    4    0    0  0.10206075196E-01  0.41426014770E-01  0.11298028810E-01  0.44138251513E-01  0.51100000000E-03 0.  1.
</event>
<event>
 8    1  0.9956970E+004  0.1043930E+01  0.7957747E-01            NaN
         13   -1    0    0    0    0  0.00000000000E+00  0.00000000000E+00  0.74505805969E-08  0.10566000000E+00  0.10566000000E+00 0.  1.
     999900   -1    0    0    0    0 -0.00000000000E+00 -0.00000000000E+00 -0.74505805969E-08  0.93827000000E+00  0.93827000000E+00 0.  1.
     999902    2    1    2    0    0  0.13176095330E-01  0.67254136446E-02 -0.18703413005E-01  0.10200834419E+01  0.10198046725E+01 0.  0.
     999903    2    3    3    0    0  0.79468901724E-01 -0.13722387774E-01 -0.10399360566E+00  0.13324226909E+00  0.20861974654E-01 0.  0.
         14    1    1    2    0    0 -0.13176095330E-01 -0.67254136446E-02  0.18703413005E-01  0.23846558134E-01  0.00000000000E+00 0.  1.
     999901    1    3    3    0    0 -0.66292806394E-01  0.20447801418E-01  0.85290192659E-01  0.88684117277E+00  0.88000000000E+00 0. -1.
        -11    1    4    4    0    0  0.26868677637E-01 -0.13616839956E-01 -0.45556908499E-01  0.54617187783E-01  0.51100000000E-03 0. -1.
         11    1    4    4    0    0  0.52600224086E-01 -0.10554781746E-03 -0.58436697165E-01  0.78625081309E-01  0.51100000000E-03 0.  1.
</event>
<event>
 8    1  0.9956970E+004  0.1043930E+01  0.7957747E-01            NaN
         13   -1    0    0    0    0  0.00000000000E+00  0.00000000000E+00  0.74505805969E-08  0.10566000000E+00  0.10566000000E+00 0.  1.
     999900   -1    0    0    0    0 -0.00000000000E+00 -0.00000000000E+00 -0.74505805969E-08  0.93827000000E+00  0.93827000000E+00 0.  1.
     999902    2    1    2    0    0 -0.89108163750E-02 -0.15188059851E-01  0.15689608147E-01  0.10203451825E+01  0.10200725699E+01 0.  0.
     999903    2    3    3    0    0  0.37230840575E-01  0.10893533596E+00  0.56640671382E-01  0.12949577918E+00  0.17548454679E-01 0.  0.
         14    1    1    2    0    0  0.89108163750E-02  0.15188059851E-01 -0.15689608147E-01  0.23584817454E-01  0.00000000000E+00 0. -1.
     999901    1    3    3    0    0 -0.46141656950E-01 -0.12412339581E+00 -0.40951063235E-01  0.89084940336E+00  0.88000000000E+00 0.  1.
        -11    1    4    4    0    0  0.48228926435E-02  0.19554669837E-01  0.17471053394E-01  0.26667287706E-01  0.51100000000E-03 0.  1.
         11    1    4    4    0    0  0.32407947932E-01  0.89380666119E-01  0.39169617989E-01  0.10282849148E+00  0.51100000000E-03 0. -1.
</event>
<event>
 8    1  0.9956970E+004  0.1043930E+01  0.7957747E-01            NaN
         13   -1    0    0    0    0  0.00000000000E+00  0.00000000000E+00  0.74505805969E-08  0.10566000000E+00  0.10566000000E+00 0.  1.
     999900   -1    0    0    0    0 -0.00000000000E+00 -0.00000000000E+00 -0.74505805969E-08  0.93827000000E+00  0.93827000000E+00 0.  1.
     999902    2    1    2    0    0  0.25085220407E-02 -0.23227452353E-01 -0.47063938520E-02  0.10200981438E+01  0.10198197221E+01 0.  0.
     999903    2    3    3    0    0  0.20153504408E-01 -0.13022359605E+00  0.43589687925E-02  0.13339543098E+00  0.20272929932E-01 0.  0.
         14    1    1    2    0    0 -0.25085220407E-02  0.23227452353E-01  0.47063938520E-02  0.23831856174E-01  0.00000000000E+00 0.  1.
     999901    1    3    3    0    0 -0.17644982367E-01  0.10699614370E+00 -0.90653626445E-02  0.88670271285E+00  0.88000000000E+00 0. -1.
        -11    1    4    4    0    0  0.38656048835E-02 -0.29484609745E-01 -0.74659336749E-02  0.30664089740E-01  0.51100000000E-03 0. -1.
         11    1    4    4    0    0  0.16287899524E-01 -0.10073898631E+00  0.11824902467E-01  0.10273134124E+00  0.51100000000E-03 0.  1.
</event>
<event>
 8    1  0.9956970E+004  0.1043930E+01  0.7957747E-01            NaN
         13   -1    0    0    0    0  0.00000000000E+00  0.00000000000E+00  0.74505805969E-08  0.10566000000E+00  0.10566000000E+00 0. -1.
     999900   -1    0    0    0    0 -0.00000000000E+00 -0.00000000000E+00 -0.74505805969E-08  0.93827000000E+00  0.93827000000E+00 0.  1.
     999902    2    1    2    0    0 -0.13624120597E-01 -0.16629286892E-01  0.10203976287E-01  0.10201335512E+01  0.10198559659E+01 0.  0.
     999903    2    3    3    0    0  0.24725249047E-01 -0.48973927726E-01  0.11857304587E+00  0.13206784123E+00  0.19301915486E-01 0.  0.
         14    1    1    2    0    0  0.13624120597E-01  0.16629286892E-01 -0.10203976287E-01  0.23796448824E-01  0.00000000000E+00 0.  1.
     999901    1    3    3    0    0 -0.38349369644E-01  0.32344640834E-01 -0.10836906959E+00  0.88806570995E+00  0.88000000000E+00 0.  1.
        -11    1    4    4    0    0 -0.13088624983E-02 -0.16320014881E-01  0.34650474793E-01  0.38327177448E-01  0.51100000000E-03 0. -1.
         11    1    4    4    0    0  0.26034111545E-01 -0.32653912845E-01  0.83922571081E-01  0.93740663779E-01  0.51100000000E-03 0.  1.
</event>
<event>
 8    1  0.9956970E+004  0.1043930E+01  0.7957747E-01            NaN
         13   -1    0    0    0    0  0.00000000000E+00  0.00000000000E+00  0.74505805969E-08  0.10566000000E+00  0.10566000000E+00 0.  1.
     999900   -1    0    0    0    0 -0.00000000000E+00 -0.00000000000E+00 -0.74505805969E-08  0.93827000000E+00  0.93827000000E+00 0.  1.
     999902    2    1    2    0    0  0.16207229841E-01 -0.44739201738E-02  0.16426340663E-01  0.10204243639E+01  0.10201536000E+01 0.  0.
     999903    2    3    3    0    0 -0.10189303751E+00 -0.77378653627E-01 -0.16813507586E-02  0.12936282742E+00  0.19033314118E-01 0.  0.
         14    1    1    2    0    0 -0.16207229841E-01  0.44739201738E-02 -0.16426340663E-01  0.23505636099E-01  0.00000000000E+00 0. -1.
     999901    1    3    3    0    0  0.11810026736E+00  0.72904733453E-01  0.18107691422E-01  0.89106153648E+00  0.88000000000E+00 0. -1.
        -11    1    4    4    0    0 -0.39376164212E-01 -0.40348858205E-01  0.36965844046E-02  0.56501668327E-01  0.51100000000E-03 0. -1.
         11    1    4    4    0    0 -0.62516873303E-01 -0.37029795422E-01 -0.53779351632E-02  0.72861159092E-01  0.51100000000E-03 0.  1.
</event>
<event>
 8    1  0.9956970E+004  0.1043930E+01  0.7957747E-01            NaN
         13   -1    0    0    0    0  0.00000000000E+00  0.00000000000E+00  0.74505805969E-08  0.10566000000E+00  0.10566000000E+00 0. -1.
     999900   -1    0    0    0    0 -0.00000000000E+00 -0.00000000000E+00 -0.74505805969E-08  0.93827000000E+00  0.93827000000E+00 0.  1.
     999902    2    1    2    0    0  0.22642747494E-01 -0.65298486465E-02  0.35127613558E-02  0.10201041227E+01  0.10198258423E+01 0.  0.
     999903    2    3    3    0    0  0.75122076617E-01 -0.41722148755E-01 -0.96916454763E-01  0.13214094472E+00  0.26160389444E-01 0.  0.
         14    1    1    2    0    0 -0.22642747494E-01  0.65298486465E-02 -0.35127613558E-02  0.23825877314E-01  0.00000000000E+00 0.  1.
     999901    1    3    3    0    0 -0.52479329123E-01  0.35192300108E-01  0.10042921612E+00  0.88796317797E+00  0.88000000000E+00 0. -1.
        -11    1    4    4    0    0  0.41044407007E-01 -0.37192391180E-01 -0.57598600374E-01  0.79911058022E-01  0.51100000000E-03 0. -1.
         11    1    4    4    0    0  0.34077669610E-01 -0.45297575748E-02 -0.39317854390E-01  0.52229886699E-01  0.51100000000E-03 0.  1.
</event>
<event>
 8    1  0.9956970E+004  0.1043930E+01  0.7957747E-01            NaN
         13   -1    0    0    0    0  0.00000000000E+00  0.00000000000E+00  0.74505805969E-08  0.10566000000E+00  0.10566000000E+00 0.  1.
     999900   -1    0    0    0    0 -0.00000000000E+00 -0.00000000000E+00 -0.74505805969E-08  0.93827000000E+00  0.93827000000E+00 0. -1.
     999902    2    1    2    0    0 -0.16643130528E-01 -0.13788698104E-01 -0.10774293447E-01  0.10197803129E+01  0.10194943252E+01 0.  0.
     999903    2    3    3    0    0 -0.43890676624E-01  0.10162267725E+00  0.62753161892E-01  0.12878732692E+00  0.19865956327E-01 0.  0.
         14    1    1    2    0    0  0.16643130528E-01  0.13788698104E-01  0.10774293447E-01  0.24149687130E-01  0.00000000000E+00 0.  1.
     999901    1    3    3    0    0  0.27247546095E-01 -0.11541137535E+00 -0.73527455340E-01  0.89099298595E+00  0.88000000000E+00 0. -1.
        -11    1    4    4    0    0 -0.27111777573E-02  0.83015586714E-02  0.12011484342E-01  0.14859449462E-01  0.51100000000E-03 0. -1.
         11    1    4    4    0    0 -0.41179498866E-01  0.93321118579E-01  0.50741677550E-01  0.11392787745E+00  0.51100000000E-03 0.  1.
</event>
<event>
 8    1  0.9956970E+004  0.1043930E+01  0.7957747E-01            NaN
         13   -1    0    0    0    0  0.00000000000E+00  0.00000000000E+00  0.74505805969E-08  0.10566000000E+00  0.10566000000E+00 0. -1.
     999900   -1    0    0    0    0 -0.00000000000E+00 -0.00000000000E+00 -0.74505805969E-08  0.93827000000E+00  0.93827000000E+00 0. -1.
     999902    2    1    2    0    0  0.73178598770E-04  0.23786056517E-01  0.28866894797E-02  0.10199693069E+01  0.10196878307E+01 0.  0.
     999903    2    3    3    0    0  0.58988842109E-01  0.43396864678E-01  0.10750288616E+00  0.13159990857E+00  0.19967324430E-01 0.  0.
         14    1    1    2    0    0 -0.73178598770E-04 -0.23786056517E-01 -0.28866894797E-02  0.23960693143E-01  0.00000000000E+00 0.  1.
     999901    1    3    3    0    0 -0.58915663510E-01 -0.19610808160E-01 -0.10461619668E+00  0.88836939829E+00  0.88000000000E+00 0. -1.
        -11    1    4    4    0    0  0.18628640689E-01  0.36188222884E-02  0.31801233325E-01  0.37036491338E-01  0.51100000000E-03 0.  1.
         11    1    4    4    0    0  0.40360201420E-01  0.39778042389E-01  0.75701652839E-01  0.94563417232E-01  0.51100000000E-03 0. -1.
</event>
<event>
 8    1  0.9956970E+004  0.1043930E+01  0.7957747E-01            NaN
         13   -1    0    0    0    0  0.00000000000E+00  0.00000000000E+00  0.74505805969E-08  0.10566000000E+00  0.10566000000E+00 0.  1.
     999900   -1    0    0    0    0 -0.00000000000E+00 -0.00000000000E+00 -0.74505805969E-08  0.93827000000E+00  0.93827000000E+00 0. -1.
     999902    2    1    2    0    0  0.14607250596E-01 -0.18292472021E-01 -0.15090166766E-02  0.10204723054E+01  0.10202026577E+01 0.  0.
     999903    2    3    3    0    0  0.19298452859E-01 -0.40830153672E-01 -0.12234690164E+00  0.13191631457E+00  0.19839807895E-01 0.  0.
         14    1    1    2    0    0 -0.14607250596E-01  0.18292472021E-01  0.15090166766E-02  0.23457694557E-01  0.00000000000E+00 0.  1.
     999901    1    3    3    0    0 -0.46912022636E-02  0.22537681651E-01  0.12083788496E+00  0.88855599087E+00  0.88000000000E+00 0.  1.
        -11    1    4    4    0    0  0.46268990977E-02 -0.49628583681E-02 -0.43836070682E-01  0.44361023121E-01  0.51100000000E-03 0. -1.
         11    1    4    4    0    0  0.14671553762E-01 -0.35867295304E-01 -0.78510830958E-01  0.87555291450E-01  0.51100000000E-03 0.  1.
</event>
<event>
 8    1  0.9956970E+004  0.1043930E+01  0.7957747E-01            NaN
         13   -1    0    0    0    0  0.00000000000E+00  0.00000000000E+00  0.74505805969E-08  0.10566000000E+00  0.10566000000E+00 0.  1.
     999900   -1    0    0    0    0 -0.00000000000E+00 -0.00000000000E+00 -0.74505805969E-08  0.93827000000E+00  0.93827000000E+00 0.  1.
     999902    2    1    2    0    0 -0.17405998618E-01  0.83117764263E-02  0.88522102992E-02  0.10227069926E+01  0.10224867611E+01 0.  0.
     999903    2    3    3    0    0 -0.55899107910E-01 -0.67346696565E-01 -0.97127751122E-01  0.13229266422E+00  0.20180712669E-01 0.  0.
         14    1    1    2    0    0  0.17405998618E-01 -0.83117764263E-02 -0.88522102992E-02  0.21223007384E-01  0.00000000000E+00 0. -1.
     999901    1    3    3    0    0  0.38493109293E-01  0.75658472991E-01  0.10597996142E+00  0.89041432840E+00  0.88000000000E+00 0. -1.
        -11    1    4    4    0    0 -0.17537339598E-01 -0.83554870821E-02 -0.22099853940E-01  0.29428508453E-01  0.51100000000E-03 0.  1.
         11    1    4    4    0    0 -0.38361768312E-01 -0.58991209483E-01 -0.75027897182E-01  0.10286415576E+00  0.51100000000E-03 0. -1.
</event>
<event>
 8    1  0.9956970E+004  0.1043930E+01  0.7957747E-01            NaN
         13   -1    0    0    0    0  0.00000000000E+00  0.00000000000E+00  0.74505805969E-08  0.10566000000E+00  0.10566000000E+00 0. -1.
     999900   -1    0    0    0    0 -0.00000000000E+00 -0.00000000000E+00 -0.74505805969E-08  0.93827000000E+00  0.93827000000E+00 0. -1.
     999902    2    1    2    0    0 -0.60084754907E-02 -0.22400766344E-01  0.74703588606E-02  0.10195639915E+01  0.10192727948E+01 0.  0.
     999903    2    3    3    0    0 -0.41659508770E-01  0.10461650156E+00 -0.55852068067E-01  0.12747985178E+00  0.21249283113E-01 0.  0.
         14    1    1    2    0    0  0.60084754907E-02  0.22400766344E-01 -0.74703588606E-02  0.24366008537E-01  0.00000000000E+00 0.  1.
     999901    1    3    3    0    0  0.35651033280E-01 -0.12701726791E+00  0.63322426928E-01  0.89208413968E+00  0.88000000000E+00 0. -1.
        -11    1    4    4    0    0 -0.15884250765E-01  0.25348114634E-01 -0.23587226438E-01  0.38097962017E-01  0.51100000000E-03 0.  1.
         11    1    4    4    0    0 -0.25775258006E-01  0.79268386928E-01 -0.32264841629E-01  0.89381889764E-01  0.51100000000E-03 0. -1.
</event>
<event>
 8    1  0.9956970E+004  0.1043930E+01  0.7957747E-01            NaN
         13   -1    0    0    0    0  0.00000000000E+00  0.00000000000E+00  0.74505805969E-08  0.10566000000E+00  0.10566000000E+00 0. -1.
     999900   -1    0    0    0    0 -0.00000000000E+00 -0.00000000000E+00 -0.74505805969E-08  0.93827000000E+00  0.93827000000E+00 0.  1.
     999902    2    1    2    0    0  0.49733549036E-02  0.10374776984E-01  0.20544520239E-01  0.10203832896E+01  0.10201115675E+01 0.  0.
     999903    2    3    3    0    0  0.48337719511E-01 -0.11759950159E+00 -0.13681978385E-01  0.12941228153E+00  0.19853568373E-01 0.  0.
         14    1    1    2    0    0 -0.49733549036E-02 -0.10374776984E-01 -0.20544520239E-01  0.23546710350E-01  0.00000000000E+00 0.  1.
     999901    1    3    3    0    0 -0.43364364607E-01  0.12797427858E+00  0.34226498623E-01  0.89097100812E+00  0.88000000000E+00 0. -1.
        -11    1    4    4    0    0  0.75111646793E-02 -0.33709714599E-01  0.28620541968E-02  0.34658547696E-01  0.51100000000E-03 0. -1.
         11    1    4    4    0    0  0.40826554832E-01 -0.83889786993E-01 -0.16544032582E-01  0.94753733838E-01  0.51100000000E-03 0.  1.
</event>
<event>
 8    1  0.9956970E+004  0.1043930E+01  0.7957747E-01            NaN
         13   -1    0    0    0    0  0.00000000000E+00  0.00000000000E+00  0.74505805969E-08  0.10566000000E+00  0.10566000000E+00 0.  1.
     999900   -1    0    0    0    0 -0.00000000000E+00 -0.00000000000E+00 -0.74505805969E-08  0.93827000000E+00  0.93827000000E+00 0.  1.
     999902    2    1    2    0    0 -0.19564239261E-01  0.70605316545E-02 -0.87918028538E-02  0.10213488937E+01  0.10210992392E+01 0.  0.
     999903    2    3    3    0    0 -0.29053661528E-01 -0.75121600273E-01  0.10078557704E+00  0.13070241268E+00  0.20928881127E-01 0.  0.
         14    1    1    2    0    0  0.19564239261E-01 -0.70605316545E-02  0.87918028538E-02  0.22581106317E-01  0.00000000000E+00 0.  1.
     999901    1    3    3    0    0  0.94894222677E-02  0.82182131927E-01 -0.10957737989E+00  0.89064648101E+00  0.88000000000E+00 0.  1.
        -11    1    4    4    0    0  0.32965090487E-04 -0.21929953470E-01  0.19898343316E-01  0.29616365976E-01  0.51100000000E-03 0.  1.
         11    1    4    4    0    0 -0.29086626619E-01 -0.53191646802E-01  0.80887233721E-01  0.10108604670E+00  0.51100000000E-03 0. -1.
</event>
<event>
 8    1  0.9956970E+004  0.1043930E+01  0.7957747E-01            NaN
         13   -1    0    0    0    0  0.00000000000E+00  0.00000000000E+00  0.74505805969E-08  0.10566000000E+00  0.10566000000E+00 0. -1.
     999900   -1    0    0    0    0 -0.00000000000E+00 -0.00000000000E+00 -0.74505805969E-08  0.93827000000E+00  0.93827000000E+00 0.  1.
     999902    2    1    2    0    0 -0.34538302267E-03 -0.44918887693E-02  0.20971164963E-01  0.10224803820E+01  0.10222553719E+01 0.  0.
     999903    2    3    3    0    0 -0.84901918921E-01  0.88212963909E-01  0.48444836348E-01  0.13315546940E+00  0.19839708300E-01 0.  0.
         14    1    1    2    0    0  0.34538302267E-03  0.44918887693E-02 -0.20971164963E-01  0.21449618039E-01  0.00000000000E+00 0.  1.
     999901    1    3    3    0    0  0.84556535898E-01 -0.92704852679E-01 -0.27473671385E-01  0.88932491256E+00  0.88000000000E+00 0.  1.
        -11    1    4    4    0    0 -0.73967196802E-01  0.67850091982E-01  0.44085805314E-01  0.10962937807E+00  0.51100000000E-03 0. -1.
         11    1    4    4    0    0 -0.10934722119E-01  0.20362871927E-01  0.43590310336E-02  0.23526091335E-01  0.51100000000E-03 0.  1.
</event>
<event>
 8    1  0.9956970E+004  0.1043930E+01  0.7957747E-01            NaN
         13   -1    0    0    0    0  0.00000000000E+00  0.00000000000E+00  0.74505805969E-08  0.10566000000E+00  0.10566000000E+00 0.  1.
     999900   -1    0    0    0    0 -0.00000000000E+00 -0.00000000000E+00 -0.74505805969E-08  0.93827000000E+00  0.93827000000E+00 0. -1.
     999902    2    1    2    0    0  0.20201071270E-01 -0.23271140939E-02  0.11933680368E-01  0.10203522251E+01  0.10200797772E+01 0.  0.
     999903    2    3    3    0    0 -0.12848821200E-01 -0.74415889017E-01 -0.10308874760E+00  0.12933076310E+00  0.19908281145E-01 0.  0.
         14    1    1    2    0    0 -0.20201071270E-01  0.23271140939E-02 -0.11933680368E-01  0.23577774865E-01  0.00000000000E+00 0.  1.
     999901    1    3    3    0    0  0.33049892469E-01  0.72088774923E-01  0.11502242797E+00  0.89102146203E+00  0.88000000000E+00 0.  1.
        -11    1    4    4    0    0 -0.28441849356E-02 -0.62327607451E-01 -0.82804140664E-01  0.10368031091E+00  0.51100000000E-03 0.  1.
         11    1    4    4    0    0 -0.10004636264E-01 -0.12088281566E-01 -0.20284606941E-01  0.25650452194E-01  0.51100000000E-03 0. -1.
</event>
<event>
 8    1  0.9956970E+004  0.1043930E+01  0.7957747E-01            NaN
         13   -1    0    0    0    0  0.00000000000E+00  0.00000000000E+00  0.74505805969E-08  0.10566000000E+00  0.10566000000E+00 0.  1.
     999900   -1    0    0    0    0 -0.00000000000E+00 -0.00000000000E+00 -0.74505805969E-08  0.93827000000E+00  0.93827000000E+00 0.  1.
     999902    2    1    2    0    0  0.14205157535E-01  0.16700178395E-01 -0.97350043712E-02  0.10199414034E+01  0.10196592634E+01 0.  0.
     999903    2    3    3    0    0  0.64255487142E-01  0.85613765074E-01 -0.76904025261E-01  0.13328149375E+00  0.19779865465E-01 0.  0.
         14    1    1    2    0    0 -0.14205157535E-01 -0.16700178395E-01  0.97350043712E-02  0.23988596648E-01  0.00000000000E+00 0.  1.
     999901    1    3    3    0    0 -0.50050329607E-01 -0.68913586679E-01  0.67169020890E-01  0.88665990960E+00  0.88000000000E+00 0. -1.
        -11    1    4    4    0    0  0.34116279264E-01  0.43163932545E-01 -0.51450021275E-01  0.75328689049E-01  0.51100000000E-03 0.  1.
         11    1    4    4    0    0  0.30139207877E-01  0.42449832529E-01 -0.25454003986E-01  0.57952804705E-01  0.51100000000E-03 0. -1.
</event>
<event>
 8    1  0.9956970E+004  0.1043930E+01  0.7957747E-01            NaN
         13   -1    0    0    0    0  0.00000000000E+00  0.00000000000E+00  0.74505805969E-08  0.10566000000E+00  0.10566000000E+00 0. -1.
     999900   -1    0    0    0    0 -0.00000000000E+00 -0.00000000000E+00 -0.74505805969E-08  0.93827000000E+00  0.93827000000E+00 0. -1.
     999902    2    1    2    0    0  0.22244802574E-01 -0.16438120348E-02 -0.65266540920E-02  0.10206892906E+01  0.10204246652E+01 0.  0.
     999903    2    3    3    0    0  0.13230886529E+00 -0.27054616487E-02 -0.32390136686E-02  0.13382626083E+00  0.19647430391E-01 0.  0.
         14    1    1    2    0    0 -0.22244802574E-01  0.16438120348E-02  0.65266540920E-02  0.23240709396E-01  0.00000000000E+00 0.  1.
     999901    1    3    3    0    0 -0.11006406272E+00  0.10616496139E-02 -0.32876404234E-02  0.88686302977E+00  0.88000000000E+00 0. -1.
        -11    1    4    4    0    0  0.78308016023E-01 -0.79636810972E-02 -0.91632787272E-02  0.79245141101E-01  0.51100000000E-03 0.  1.
         11    1    4    4    0    0  0.54000849268E-01  0.52582194484E-02  0.59242650586E-02  0.54581119729E-01  0.51100000000E-03 0. -1.
</event>
<event>
 8    1  0.9956970E+004  0.1043930E+01  0.7957747E-01            NaN
         13   -1    0    0    0    0  0.00000000000E+00  0.00000000000E+00  0.74505805969E-08  0.10566000000E+00  0.10566000000E+00 0. -1.
     999900   -1    0    0    0    0 -0.00000000000E+00 -0.00000000000E+00 -0.74505805969E-08  0.93827000000E+00  0.93827000000E+00 0. -1.
     999902    2    1    2    0    0  0.29990289566E-02  0.90070725500E-02  0.21776283978E-01  0.10201744096E+01  0.10198977880E+01 0.  0.
     999903    2    3    3    0    0  0.63555640568E-01 -0.10224959560E+00 -0.40748685415E-01  0.12890872464E+00  0.21510571309E-01 0.  0.
         14    1    1    2    0    0 -0.29990289566E-02 -0.90070725500E-02 -0.21776283978E-01  0.23755590384E-01  0.00000000000E+00 0.  1.
     999901    1    3    3    0    0 -0.60556611612E-01  0.11125666815E+00  0.62524969393E-01  0.89126568498E+00  0.88000000000E+00 0.  1.
        -11    1    4    4    0    0  0.17841011434E-01 -0.39548444651E-01 -0.57001380200E-02  0.43762242376E-01  0.51100000000E-03 0. -1.
         11    1    4    4    0    0  0.45714629135E-01 -0.62701150944E-01 -0.35048547395E-01  0.85146482265E-01  0.51100000000E-03 0.  1.
</event>
<event>
 8    1  0.9956970E+004  0.1043930E+01  0.7957747E-01            NaN
         13   -1    0    0    0    0  0.00000000000E+00  0.00000000000E+00  0.74505805969E-08  0.10566000000E+00  0.10566000000E+00 0. -1.
     999900   -1    0    0    0    0 -0.00000000000E+00 -0.00000000000E+00 -0.74505805969E-08  0.93827000000E+00  0.93827000000E+00 0.  1.
     999902    2    1    2    0    0 -0.22673164808E-01  0.73933074580E-02  0.26519892443E-02  0.10199348662E+01  0.10196525707E+01 0.  0.
     999903    2    3    3    0    0 -0.12989898227E-01 -0.12317920031E+00  0.33127569891E-01  0.12972606687E+00  0.19737367954E-01 0.  0.
         14    1    1    2    0    0  0.22673164808E-01 -0.73933074580E-02 -0.26519892443E-02  0.23995133768E-01  0.00000000000E+00 0.  1.
     999901    1    3    3    0    0 -0.96832665815E-02  0.13057250777E+00 -0.30475580647E-01  0.89020879936E+00  0.88000000000E+00 0. -1.
        -11    1    4    4    0    0 -0.10753920917E-01 -0.72709402595E-01  0.29068439950E-01  0.79041377537E-01  0.51100000000E-03 0. -1.
         11    1    4    4    0    0 -0.22359773100E-02 -0.50469797719E-01  0.40591299417E-02  0.50684689337E-01  0.51100000000E-03 0.  1.
</event>
<event>
 8    1  0.9956970E+004  0.1043930E+01  0.7957747E-01            NaN
         13   -1    0    0    0    0  0.00000000000E+00  0.00000000000E+00  0.74505805969E-08  0.10566000000E+00  0.10566000000E+00 0.  1.
     999900   -1    0    0    0    0 -0.00000000000E+00 -0.00000000000E+00 -0.74505805969E-08  0.93827000000E+00  0.93827000000E+00 0. -1.
     999902    2    1    2    0    0  0.19283377729E-01 -0.56321700580E-02  0.55277276359E-02  0.10230943150E+01  0.10228821299E+01 0.  0.
     999903    2    3    3    0    0  0.79343404870E-01 -0.63854942000E-01  0.86933344312E-01  0.13538717160E+00  0.19986254445E-01 0.  0.
         14    1    1    2    0    0 -0.19283377729E-01  0.56321700580E-02 -0.55277276359E-02  0.20835684990E-01  0.00000000000E+00 0. -1.
     999901    1    3    3    0    0 -0.60060027141E-01  0.58222771942E-01 -0.81405616676E-01  0.88770714341E+00  0.88000000000E+00 0. -1.
        -11    1    4    4    0    0  0.58333364419E-01 -0.43546459234E-01  0.72694604629E-01  0.10287780217E+00  0.51100000000E-03 0.  1.
         11    1    4    4    0    0  0.21010040451E-01 -0.20308482767E-01  0.14238739683E-01  0.32509369431E-01  0.51100000000E-03 0. -1.
</event>
<event>
 8    1  0.9956970E+004  0.1043930E+01  0.7957747E-01            NaN
         13   -1    0    0    0    0  0.00000000000E+00  0.00000000000E+00  0.74505805969E-08  0.10566000000E+00  0.10566000000E+00 0.  1.
     999900   -1    0    0    0    0 -0.00000000000E+00 -0.00000000000E+00 -0.74505805969E-08  0.93827000000E+00  0.93827000000E+00 0.  1.
     999902    2    1    2    0    0 -0.42282482618E-03 -0.12032098510E-01 -0.18171754313E-01  0.10221317700E+01  0.10218993064E+01 0.  0.
     999903    2    3    3    0    0 -0.77391771038E-02 -0.47034013790E-01  0.11995235868E+00  0.13064036026E+00  0.20155447447E-01 0.  0.
         14    1    1    2    0    0  0.42282482618E-03  0.12032098510E-01  0.18171754313E-01  0.21798229979E-01  0.00000000000E+00 0.  1.
     999901    1    3    3    0    0  0.73163522776E-02  0.35001915280E-01 -0.13812411299E+00  0.89149140976E+00  0.88000000000E+00 0.  1.
        -11    1    4    4    0    0 -0.58183583781E-02 -0.19781541765E-02  0.93948384331E-02  0.11237904535E-01  0.51100000000E-03 0.  1.
         11    1    4    4    0    0 -0.19208187257E-02 -0.45055859613E-01  0.11055752024E+00  0.11940245573E+00  0.51100000000E-03 0. -1.
</event>
<event>
 8    1  0.9956970E+004  0.1043930E+01  0.7957747E-01            NaN
         13   -1    0    0    0    0  0.00000000000E+00  0.00000000000E+00  0.74505805969E-08  0.10566000000E+00  0.10566000000E+00 0. -1.
     999900   -1    0    0    0    0 -0.00000000000E+00 -0.00000000000E+00 -0.74505805969E-08  0.93827000000E+00  0.93827000000E+00 0. -1.
     999902    2    1    2    0    0 -0.25460251629E-01 -0.55266384273E-02 -0.32306513300E-02  0.10176772810E+01  0.10173386079E+01 0.  0.
     999903    2    3    3    0    0 -0.21411436605E-02 -0.11093414247E+00  0.61330232144E-01  0.12873260875E+00  0.22354389229E-01 0.  0.
         14    1    1    2    0    0  0.25460251629E-01  0.55266384273E-02  0.32306513300E-02  0.26252718971E-01  0.00000000000E+00 0. -1.
     999901    1    3    3    0    0 -0.23319107969E-01  0.10540750404E+00 -0.64560883474E-01  0.88894467228E+00  0.88000000000E+00 0. -1.
        -11    1    4    4    0    0 -0.67319960069E-02 -0.48326850343E-01  0.37668367353E-01  0.61643906872E-01  0.51100000000E-03 0. -1.
         11    1    4    4    0    0  0.45908523464E-02 -0.62607292128E-01  0.23661864791E-01  0.67088701875E-01  0.51100000000E-03 0.  1.
</event>
<event>
 8    1  0.9956970E+004  0.1043930E+01  0.7957747E-01            NaN
         13   -1    0    0    0    0  0.00000000000E+00  0.00000000000E+00  0.74505805969E-08  0.10566000000E+00  0.10566000000E+00 0.  1.
     999900   -1    0    0    0    0 -0.00000000000E+00 -0.00000000000E+00 -0.74505805969E-08  0.93827000000E+00  0.93827000000E+00 0.  1.
     999902    2    1    2    0    0 -0.20422931292E-01 -0.35834561516E-02 -0.10796838225E-01  0.10205524681E+01  0.10202846815E+01 0.  0.
     999903    2    3    3    0    0 -0.10548230108E+00  0.18791754477E-01  0.74746840527E-01  0.13204052819E+00  0.19182414880E-01 0.  0.
         14    1    1    2    0    0  0.20422931292E-01  0.35834561516E-02  0.10796838225E-01  0.23377531867E-01  0.00000000000E+00 0.  1.
     999901    1    3    3    0    0  0.85059369784E-01 -0.22375210629E-01 -0.85543678751E-01  0.88851193994E+00  0.88000000000E+00 0.  1.
        -11    1    4    4    0    0 -0.21611422029E-01 -0.37224702382E-02  0.16994402372E-01  0.27748534732E-01  0.51100000000E-03 0. -1.
         11    1    4    4    0    0 -0.83870879047E-01  0.22514224715E-01  0.57752438155E-01  0.10429199346E+00  0.51100000000E-03 0.  1.
</event>
<event>
 8    1  0.9956970E+004  0.1043930E+01  0.7957747E-01            NaN
         13   -1    0    0    0    0  0.00000000000E+00  0.00000000000E+00  0.74505805969E-08  0.10566000000E+00  0.10566000000E+00 0. -1.
     999900   -1    0    0    0    0 -0.00000000000E+00 -0.00000000000E+00 -0.74505805969E-08  0.93827000000E+00  0.93827000000E+00 0.  1.
     999902    2    1    2    0    0  0.11686201897E-01 -0.13042996143E-01 -0.16321159536E-01  0.10199911756E+01  0.10197102192E+01 0.  0.
     999903    2    3    3    0    0 -0.36347126056E-01 -0.51187514162E-01 -0.11476622794E+00  0.13237997903E+00  0.20295235772E-01 0.  0.
         14    1    1    2    0    0 -0.11686201897E-01  0.13042996143E-01  0.16321159536E-01  0.23938824360E-01  0.00000000000E+00 0. -1.
     999901    1    3    3    0    0  0.48033327953E-01  0.38144518019E-01  0.98445068402E-01  0.88761119661E+00  0.88000000000E+00 0. -1.
        -11    1    4    4    0    0 -0.84291601780E-02 -0.19733322662E-01 -0.57128418079E-01  0.61027633395E-01  0.51100000000E-03 0. -1.
         11    1    4    4    0    0 -0.27917965878E-01 -0.31454191500E-01 -0.57637809859E-01  0.71352345638E-01  0.51100000000E-03 0.  1.
</event>
<event>
 8    1  0.9956970E+004  0.1043930E+01  0.7957747E-01            NaN
         13   -1    0    0    0    0  0.00000000000E+00  0.00000000000E+00  0.74505805969E-08  0.10566000000E+00  0.10566000000E+00 0.  1.
     999900   -1    0    0    0    0 -0.00000000000E+00 -0.00000000000E+00 -0.74505805969E-08  0.93827000000E+00  0.93827000000E+00 0.  1.
     999902    2    1    2    0    0  0.50868027035E-02  0.76934555518E-02 -0.18213041845E-01  0.10235148166E+01  0.10233111942E+01 0.  0.
     999903    2    3    3    0    0 -0.12660316448E+00  0.15941928041E-01 -0.33646096590E-01  0.13354376992E+00  0.20478582540E-01 0.  0.
         14    1    1    2    0    0 -0.50868027035E-02 -0.76934555518E-02  0.18213041845E-01  0.20415183401E-01  0.00000000000E+00 0.  1.
     999901    1    3    3    0    0  0.13168996718E+00 -0.82484724897E-02  0.15433054745E-01  0.88997104668E+00  0.88000000000E+00 0. -1.
        -11    1    4    4    0    0 -0.63551783450E-01 -0.46700846607E-03 -0.22637051916E-01  0.67466617797E-01  0.51100000000E-03 0.  1.
         11    1    4    4    0    0 -0.63051381025E-01  0.16408936508E-01 -0.11009044675E-01  0.66077152119E-01  0.51100000000E-03 0. -1.
</event>
<event>
 8    1  0.9956970E+004  0.1043930E+01  0.7957747E-01            NaN
         13   -1    0    0    0    0  0.00000000000E+00  0.00000000000E+00  0.74505805969E-08  0.10566000000E+00  0.10566000000E+00 0. -1.
     999900   -1    0    0    0    0 -0.00000000000E+00 -0.00000000000E+00 -0.74505805969E-08  0.93827000000E+00  0.93827000000E+00 0.  1.
     999902    2    1    2    0    0 -0.10261031230E-01  0.21401922420E-01 -0.22760241621E-02  0.10200865243E+01  0.10198078279E+01 0.  0.
     999903    2    3    3    0    0  0.97364992837E-01  0.70816628913E-01  0.46120369229E-01  0.13083549951E+00  0.22268873227E-01 0.  0.
         14    1    1    2    0    0  0.10261031230E-01 -0.21401922420E-01  0.22760241621E-02  0.23843475652E-01  0.00000000000E+00 0.  1.
     999901    1    3    3    0    0 -0.10762602407E+00 -0.49414706493E-01 -0.48396393391E-01  0.88925102483E+00  0.88000000000E+00 0.  1.
        -11    1    4    4    0    0  0.43356075901E-01  0.18237749072E-01  0.16543408776E-01  0.49862915114E-01  0.51100000000E-03 0. -1.
         11    1    4    4    0    0  0.54008916935E-01  0.52578879841E-01  0.29576960454E-01  0.80972584401E-01  0.51100000000E-03 0.  1.
</event>
<event>
 8    1  0.9956970E+004  0.1043930E+01  0.7957747E-01            NaN
         13   -1    0    0    0    0  0.00000000000E+00  0.00000000000E+00  0.74505805969E-08  0.10566000000E+00  0.10566000000E+00 0. -1.
     999900   -1    0    0    0    0 -0.00000000000E+00 -0.00000000000E+00 -0.74505805969E-08  0.93827000000E+00  0.93827000000E+00 0.  1.
     999902    2    1    2    0    0  0.11678892061E-01  0.15997207027E-01  0.14018529452E-01  0.10196642562E+01  0.10193754800E+01 0.  0.
     999903    2    3    3    0    0 -0.65689291327E-01  0.11073876064E+00 -0.12396913876E-01  0.13081130246E+00  0.19487361945E-01 0.  0.
         14    1    1    2    0    0 -0.11678892061E-01 -0.15997207027E-01 -0.14018529452E-01  0.24265743764E-01  0.00000000000E+00 0. -1.
     999901    1    3    3    0    0  0.77368183388E-01 -0.94741553613E-01  0.26415443328E-01  0.88885295377E+00  0.88000000000E+00 0.  1.
        -11    1    4    4    0    0 -0.27357553237E-01  0.28647628474E-01 -0.43556871023E-02  0.39854177540E-01  0.51100000000E-03 0.  1.
         11    1    4    4    0    0 -0.38331738090E-01  0.82091132167E-01 -0.80412267738E-02  0.90957124924E-01  0.51100000000E-03 0. -1.
</event>
<event>
 8    1  0.9956970E+004  0.1043930E+01  0.7957747E-01            NaN
         13   -1    0    0    0    0  0.00000000000E+00  0.00000000000E+00  0.74505805969E-08  0.10566000000E+00  0.10566000000E+00 0.  1.
     999900   -1    0    0    0    0 -0.00000000000E+00 -0.00000000000E+00 -0.74505805969E-08  0.93827000000E+00  0.93827000000E+00 0.  1.
     999902    2    1    2    0    0 -0.16873070323E-01 -0.70849327188E-02  0.15722512504E-01  0.10198033721E+01  0.10195179369E+01 0.  0.
     999903    2    3    3    0    0 -0.36609876054E-01 -0.11308569313E+00  0.54584258861E-01  0.13237115609E+00  0.20347595270E-01 0.  0.
         14    1    1    2    0    0  0.16873070323E-01  0.70849327188E-02 -0.15722512504E-01  0.24126627887E-01  0.00000000000E+00 0. -1.
     999901    1    3    3    0    0  0.19736805731E-01  0.10600076041E+00 -0.38861746357E-01  0.88743221602E+00  0.88000000000E+00 0.  1.
        -11    1    4    4    0    0 -0.22765154436E-01 -0.67204292764E-01  0.21533612179E-01  0.74152726159E-01  0.51100000000E-03 0. -1.
         11    1    4    4    0    0 -0.13844721618E-01 -0.45881400366E-01  0.33050646682E-01  0.58218429929E-01  0.51100000000E-03 0.  1.
</event>
<event>
 8    1  0.9956970E+004  0.1043930E+01  0.7957747E-01            NaN
         13   -1    0    0    0    0  0.00000000000E+00  0.00000000000E+00  0.74505805969E-08  0.10566000000E+00  0.10566000000E+00 0. -1.
     999900   -1    0    0    0    0 -0.00000000000E+00 -0.00000000000E+00 -0.74505805969E-08  0.93827000000E+00  0.93827000000E+00 0. -1.
     999902    2    1    2    0    0  0.23389041792E-02 -0.95470394818E-02  0.21587522958E-01  0.10202100172E+01  0.10199342340E+01 0.  0.
     999903    2    3    3    0    0 -0.11968213614E+00  0.10641273746E-03  0.49788300874E-01  0.13129066919E+00  0.20845620164E-01 0.  0.
         14    1    1    2    0    0 -0.23389041792E-02  0.95470394818E-02 -0.21587522958E-01  0.23719982780E-01  0.00000000000E+00 0.  1.
     999901    1    3    3    0    0  0.12202104031E+00 -0.96534522193E-02 -0.28200777916E-01  0.88891934803E+00  0.88000000000E+00 0. -1.
        -11    1    4    4    0    0 -0.30559476239E-01 -0.80590261927E-02  0.17619186735E-01  0.36187378372E-01  0.51100000000E-03 0.  1.
         11    1    4    4    0    0 -0.89122659896E-01  0.81654389302E-02  0.32169114139E-01  0.95103290823E-01  0.51100000000E-03 0. -1.
</event>
<event>
 8    1  0.9956970E+004  0.1043930E+01  0.7957747E-01            NaN
         13   -1    0    0    0    0  0.00000000000E+00  0.00000000000E+00  0.74505805969E-08  0.10566000000E+00  0.10566000000E+00 0.  1.
     999900   -1    0    0    0    0 -0.00000000000E+00 -0.00000000000E+00 -0.74505805969E-08  0.93827000000E+00  0.93827000000E+00 0.  1.
     999902    2    1    2    0    0 -0.93907063404E-02 -0.18940557991E-01 -0.65564710749E-02  0.10217959219E+01  0.10215561602E+01 0.  0.
     999903    2    3    3    0    0  0.12138864514E+00 -0.80609567940E-02  0.43181596107E-01  0.13067557093E+00  0.20279852125E-01 0.  0.
         14    1    1    2    0    0  0.93907063404E-02  0.18940557991E-01  0.65564710749E-02  0.22134078150E-01  0.00000000000E+00 0.  1.
     999901    1    3    3    0    0 -0.13077935148E+00 -0.10879601197E-01 -0.49738067182E-01  0.89112035092E+00  0.88000000000E+00 0. -1.
        -11    1    4    4    0    0  0.60954892012E-01  0.52641872815E-02  0.25735210165E-01  0.66375994841E-01  0.51100000000E-03 0. -1.
         11    1    4    4    0    0  0.60433753128E-01 -0.13325144075E-01  0.17446385942E-01  0.64299576089E-01  0.51100000000E-03 0.  1.
</event>
<event>
 8    1  0.9956970E+004  0.1043930E+01  0.7957747E-01            NaN
         13   -1    0    0    0    0  0.00000000000E+00  0.00000000000E+00  0.74505805969E-08  0.10566000000E+00  0.10566000000E+00 0. -1.
     999900   -1    0    0    0    0 -0.00000000000E+00 -0.00000000000E+00 -0.74505805969E-08  0.93827000000E+00  0.93827000000E+00 0. -1.
     999902    2    1    2    0    0  0.11710760314E-01 -0.18363802898E-01 -0.79989163209E-02  0.10207275470E+01  0.10204638021E+01 0.  0.
     999903    2    3    3    0    0 -0.65434093745E-01 -0.89141518549E-01 -0.69937943309E-01  0.13235979846E+00  0.19999234502E-01 0.  0.
         14    1    1    2    0    0 -0.11710760314E-01  0.18363802898E-01  0.79989163209E-02  0.23202453023E-01  0.00000000000E+00 0. -1.
     999901    1    3    3    0    0  0.77144854058E-01  0.70777715652E-01  0.61939026988E-01  0.88836774852E+00  0.88000000000E+00 0. -1.
        -11    1    4    4    0    0 -0.51014891908E-01 -0.64758070401E-01 -0.41811000759E-01  0.92436723135E-01  0.51100000000E-03 0.  1.
         11    1    4    4    0    0 -0.14419201836E-01 -0.24383448148E-01 -0.28126942550E-01  0.39923075325E-01  0.51100000000E-03 0. -1.
</event>
<event>
 8    1  0.9956970E+004  0.1043930E+01  0.7957747E-01            NaN
         13   -1    0    0    0    0  0.00000000000E+00  0.00000000000E+00  0.74505805969E-08  0.10566000000E+00  0.10566000000E+00 0. -1.
     999900   -1    0    0    0    0 -0.00000000000E+00 -0.00000000000E+00 -0.74505805969E-08  0.93827000000E+00  0.93827000000E+00 0.  1.
     999902    2    1    2    0    0  0.19701196859E-01 -0.64790826895E-02  0.87091191406E-02  0.10214363470E+01  0.10211886439E+01 0.  0.
     999903    2    3    3    0    0 -0.90624724868E-01  0.47372345418E-01  0.78751173014E-01  0.13015767303E+00  0.16801569288E-01 0.  0.
         14    1    1    2    0    0 -0.19701196859E-01  0.64790826895E-02 -0.87091191406E-02  0.22493653024E-01  0.00000000000E+00 0. -1.
     999901    1    3    3    0    0  0.11032592173E+00 -0.53851428108E-01 -0.70042053874E-01  0.89127867394E+00  0.88000000000E+00 0.  1.
        -11    1    4    4    0    0 -0.70985180133E-01  0.44472597030E-01  0.63203030221E-01  0.10493613217E+00  0.51100000000E-03 0. -1.
         11    1    4    4    0    0 -0.19639544735E-01  0.28997483888E-02  0.15548142793E-01  0.25221540862E-01  0.51100000000E-03 0.  1.
</event>
<event>
 8    1  0.9956970E+004  0.1043930E+01  0.7957747E-01            NaN
         13   -1    0    0    0    0  0.00000000000E+00  0.00000000000E+00  0.74505805969E-08  0.10566000000E+00  0.10566000000E+00 0. -1.
     999900   -1    0    0    0    0 -0.00000000000E+00 -0.00000000000E+00 -0.74505805969E-08  0.93827000000E+00  0.93827000000E+00 0. -1.
     999902    2    1    2    0    0 -0.19049921161E-01  0.29577914875E-02  0.14108351940E-01  0.10200408053E+01  0.10197610264E+01 0.  0.
     999903    2    3    3    0    0 -0.10132345171E+00 -0.78157645124E-01  0.27676437580E-01  0.13238504953E+00  0.19615218165E-01 0.  0.
         14    1    1    2    0    0  0.19049921161E-01 -0.29577914875E-02 -0.14108351940E-01  0.23889194653E-01  0.00000000000E+00 0.  1.
     999901    1    3    3    0    0  0.82273530552E-01  0.81115436612E-01 -0.13568085640E-01  0.88765575582E+00  0.88000000000E+00 0. -1.
        -11    1    4    4    0    0 -0.92112320219E-02 -0.15319750383E-01  0.23226022316E-02  0.18033223485E-01  0.51100000000E-03 0.  1.
         11    1    4    4    0    0 -0.92112219691E-01 -0.62837894742E-01  0.25353835348E-01  0.11435182604E+00  0.51100000000E-03 0. -1.
</event>
<event>
 8    1  0.9956970E+004  0.1043930E+01  0.7957747E-01            NaN
         13   -1    0    0    0    0  0.00000000000E+00  0.00000000000E+00  0.74505805969E-08  0.10566000000E+00  0.10566000000E+00 0. -1.
     999900   -1    0    0    0    0 -0.00000000000E+00 -0.00000000000E+00 -0.74505805969E-08  0.93827000000E+00  0.93827000000E+00 0. -1.
     999902    2    1    2    0    0 -0.15926381209E-01  0.38759727392E-02 -0.15287591699E-01  0.10215160926E+01  0.10212701622E+01 0.  0.
     999903    2    3    3    0    0  0.24699272639E-01  0.12684029588E+00  0.14002640914E-01  0.13155621363E+00  0.20308832186E-01 0.  0.
         14    1    1    2    0    0  0.15926381209E-01 -0.38759727392E-02  0.15287591699E-01  0.22413907358E-01  0.00000000000E+00 0. -1.
     999901    1    3    3    0    0 -0.40625653848E-01 -0.12296432314E+00 -0.29290232612E-01  0.88995987901E+00  0.88000000000E+00 0.  1.
        -11    1    4    4    0    0  0.16004813808E-02  0.89116314085E-02 -0.42363589850E-02  0.10009324326E-01  0.51100000000E-03 0. -1.
         11    1    4    4    0    0  0.23098791258E-01  0.11792866447E+00  0.18238999899E-01  0.12154688931E+00  0.51100000000E-03 0.  1.
</event>
<event>
 8    1  0.9956970E+004  0.1043930E+01  0.7957747E-01            NaN
         13   -1    0    0    0    0  0.00000000000E+00  0.00000000000E+00  0.74505805969E-08  0.10566000000E+00  0.10566000000E+00 0. -1.
     999900   -1    0    0    0    0 -0.00000000000E+00 -0.00000000000E+00 -0.74505805969E-08  0.93827000000E+00  0.93827000000E+00 0.  1.
     999902    2    1    2    0    0  0.22260644509E-01  0.29624240683E-02  0.76771895466E-02  0.10201970800E+01  0.10199209924E+01 0.  0.
     999903    2    3    3    0    0  0.54984754820E-01  0.10710807023E+00  0.51297362560E-01  0.13237958613E+00  0.19936736088E-01 0.  0.
         14    1    1    2    0    0 -0.22260644509E-01 -0.29624240683E-02 -0.76771895466E-02  0.23732919956E-01  0.00000000000E+00 0.  1.
     999901    1    3    3    0    0 -0.32724110311E-01 -0.10414564616E+00 -0.43620173014E-01  0.88781749392E+00  0.88000000000E+00 0.  1.
        -11    1    4    4    0    0  0.48600907030E-01  0.95382478327E-01  0.38181595699E-01  0.11365720702E+00  0.51100000000E-03 0. -1.
         11    1    4    4    0    0  0.63838477902E-02  0.11725591906E-01  0.13115766861E-01  0.18722379109E-01  0.51100000000E-03 0.  1.
</event>
<event>
 8    1  0.9956970E+004  0.1043930E+01  0.7957747E-01            NaN
         13   -1    0    0    0    0  0.00000000000E+00  0.00000000000E+00  0.74505805969E-08  0.10566000000E+00  0.10566000000E+00 0.  1.
     999900   -1    0    0    0    0 -0.00000000000E+00 -0.00000000000E+00 -0.74505805969E-08  0.93827000000E+00  0.93827000000E+00 0.  1.
     999902    2    1    2    0    0 -0.99164029720E-02 -0.12201849367E-01  0.17679206071E-01  0.10202704458E+01  0.10199960824E+01 0.  0.
     999903    2    3    3    0    0 -0.90313422616E-01  0.62209060308E-01  0.70399770703E-01  0.13191234114E+00  0.20451321250E-01 0.  0.
         14    1    1    2    0    0  0.99164029720E-02  0.12201849367E-01 -0.17679206071E-01  0.23659554163E-01  0.00000000000E+00 0. -1.
     999901    1    3    3    0    0  0.80397019644E-01 -0.74410909676E-01 -0.52720564632E-01  0.88835810470E+00  0.88000000000E+00 0.  1.
        -11    1    4    4    0    0 -0.26294917008E-01  0.26499382434E-01  0.31921492087E-01  0.49121102470E-01  0.51100000000E-03 0. -1.
         11    1    4    4    0    0 -0.64018505608E-01  0.35709677874E-01  0.38478278617E-01  0.82791238670E-01  0.51100000000E-03 0.  1.
</event>
<event>
 8    1  0.9956970E+004  0.1043930E+01  0.7957747E-01            NaN
         13   -1    0    0    0    0  0.00000000000E+00  0.00000000000E+00  0.74505805969E-08  0.10566000000E+00  0.10566000000E+00 0.  1.
     999900   -1    0    0    0    0 -0.00000000000E+00 -0.00000000000E+00 -0.74505805969E-08  0.93827000000E+00  0.93827000000E+00 0.  1.
     999902    2    1    2    0    0 -0.87828923522E-02 -0.19004475722E-01 -0.11235917154E-01  0.10201696311E+01  0.10198928969E+01 0.  0.
     999903    2    3    3    0    0 -0.47626410076E-01  0.35860123645E-01  0.11263058568E+00  0.12895593414E+00  0.19742358408E-01 0.  0.
         14    1    1    2    0    0  0.87828923522E-02  0.19004475722E-01  0.11235917154E-01  0.23760368891E-01  0.00000000000E+00 0.  1.
     999901    1    3    3    0    0  0.38843517724E-01 -0.54864599367E-01 -0.12386650284E+00  0.89121369696E+00  0.88000000000E+00 0.  1.
        -11    1    4    4    0    0 -0.21385298087E-01  0.21143144265E-01  0.74779655103E-01  0.80601621956E-01  0.51100000000E-03 0.  1.
         11    1    4    4    0    0 -0.26241111989E-01  0.14716979380E-01  0.37850930579E-01  0.48354312188E-01  0.51100000000E-03 0. -1.
</event>
<event>
 8    1  0.9956970E+004  0.1043930E+01  0.7957747E-01            NaN
         13   -1    0    0    0    0  0.00000000000E+00  0.00000000000E+00  0.74505805969E-08  0.10566000000E+00  0.10566000000E+00 0. -1.
     999900   -1    0    0    0    0 -0.00000000000E+00 -0.00000000000E+00 -0.74505805969E-08  0.93827000000E+00  0.93827000000E+00 0. -1.
     999902    2    1    2    0    0  0.27050861193E-02  0.22167616846E-01  0.59207809063E-02  0.10208263991E+01  0.10205649224E+01 0.  0.
     999903    2    3    3    0    0  0.78132671413E-01 -0.51237612334E-01  0.88999836097E-01  0.13066923450E+00  0.20578405185E-01 0.  0.
         14    1    1    2    0    0 -0.27050861193E-02 -0.22167616846E-01 -0.59207809063E-02  0.23103600890E-01  0.00000000000E+00 0.  1.
     999901    1    3    3    0    0 -0.75427585293E-01  0.73405229180E-01 -0.83079055191E-01  0.89015716461E+00  0.88000000000E+00 0. -1.
        -11    1    4    4    0    0  0.63270036116E-02 -0.12277565585E-01  0.15615635368E-01  0.20853747393E-01  0.51100000000E-03 0. -1.
         11    1    4    4    0    0  0.71805667801E-01 -0.38960046749E-01  0.73384200729E-01  0.10981548711E+00  0.51100000000E-03 0.  1.
</event>
<event>
 8    1  0.9956970E+004  0.1043930E+01  0.7957747E-01            NaN
         13   -1    0    0    0    0  0.00000000000E+00  0.00000000000E+00  0.74505805969E-08  0.10566000000E+00  0.10566000000E+00 0.  1.
     999900   -1    0    0    0    0 -0.00000000000E+00 -0.00000000000E+00 -0.74505805969E-08  0.93827000000E+00  0.93827000000E+00 0.  1.
     999902    2    1    2    0    0  0.63635962260E-02 -0.14840259458E-01 -0.17867922375E-01  0.10198469913E+01  0.10195625995E+01 0.  0.
     999903    2    3    3    0    0 -0.78517570486E-02  0.51065988253E-01  0.11486900160E+00  0.12734220099E+00  0.18755355981E-01 0.  0.
         14    1    1    2    0    0 -0.63635962260E-02  0.14840259458E-01  0.17867922375E-01  0.24083008693E-01  0.00000000000E+00 0.  1.
     999901    1    3    3    0    0  0.14215353275E-01 -0.65906247711E-01 -0.13273692398E+00  0.89250479032E+00  0.88000000000E+00 0.  1.
        -11    1    4    4    0    0 -0.47786254362E-02  0.27573069712E-01  0.40057991316E-01  0.48867302194E-01  0.51100000000E-03 0. -1.
         11    1    4    4    0    0 -0.30731316124E-02  0.23492918541E-01  0.74811010287E-01  0.78474898794E-01  0.51100000000E-03 0.  1.
</event>
<event>
 8    1  0.9956970E+004  0.1043930E+01  0.7957747E-01            NaN
         13   -1    0    0    0    0  0.00000000000E+00  0.00000000000E+00  0.74505805969E-08  0.10566000000E+00  0.10566000000E+00 0.  1.
     999900   -1    0    0    0    0 -0.00000000000E+00 -0.00000000000E+00 -0.74505805969E-08  0.93827000000E+00  0.93827000000E+00 0. -1.
     999902    2    1    2    0    0  0.19250504934E-01  0.14298788543E-01 -0.49616900606E-02  0.10194421323E+01  0.10191479802E+01 0.  0.
     999903    2    3    3    0    0  0.42426432297E-01 -0.11495209749E+00 -0.35610762327E-01  0.12917122932E+00  0.20077181478E-01 0.  0.
         14    1    1    2    0    0 -0.19250504934E-01 -0.14298788543E-01  0.49616900606E-02  0.24487867654E-01  0.00000000000E+00 0.  1.
     999901    1    3    3    0    0 -0.23175927363E-01  0.12925088603E+00  0.30649072266E-01  0.89027090303E+00  0.88000000000E+00 0.  1.
        -11    1    4    4    0    0  0.44225421004E-01 -0.11000389220E+00 -0.32129119851E-01  0.12283845336E+00  0.51100000000E-03 0. -1.
         11    1    4    4    0    0 -0.17989887072E-02 -0.49482052896E-02 -0.34816424761E-02  0.63327759544E-02  0.51100000000E-03 0.  1.
</event>
<event>
 8    1  0.9956970E+004  0.1043930E+01  0.7957747E-01            NaN
         13   -1    0    0    0    0  0.00000000000E+00  0.00000000000E+00  0.74505805969E-08  0.10566000000E+00  0.10566000000E+00 0. -1.
     999900   -1    0    0    0    0 -0.00000000000E+00 -0.00000000000E+00 -0.74505805969E-08  0.93827000000E+00  0.93827000000E+00 0.  1.
     999902    2    1    2    0    0  0.95852730345E-03 -0.23630727027E-01  0.20566019000E-02  0.10201905888E+01  0.10199143482E+01 0.  0.
     999903    2    3    3    0    0 -0.12194081489E+00 -0.11948785330E-01 -0.40688930009E-01  0.13054577392E+00  0.19346169044E-01 0.  0.
         14    1    1    2    0    0 -0.95852730345E-03  0.23630727027E-01 -0.20566019000E-02  0.23739411235E-01  0.00000000000E+00 0. -1.
     999901    1    3    3    0    0  0.12289934220E+00 -0.11681941697E-01  0.42745531909E-01  0.88964481484E+00  0.88000000000E+00 0. -1.
        -11    1    4    4    0    0 -0.10439248378E+00 -0.11855727866E-01 -0.27547754207E-01  0.10861624572E+00  0.51100000000E-03 0. -1.
         11    1    4    4    0    0 -0.17548331117E-01 -0.93057463687E-04 -0.13141175801E-01  0.21929528201E-01  0.51100000000E-03 0.  1.
</event>
<event>
 8    1  0.9956970E+004  0.1043930E+01  0.7957747E-01            NaN
         13   -1    0    0    0    0  0.00000000000E+00  0.00000000000E+00  0.74505805969E-08  0.10566000000E+00  0.10566000000E+00 0. -1.
     999900   -1    0    0    0    0 -0.00000000000E+00 -0.00000000000E+00 -0.74505805969E-08  0.93827000000E+00  0.93827000000E+00 0. -1.
     999902    2    1    2    0    0  0.17251096015E-01 -0.15575807800E-01 -0.16197269804E-01  0.10156005515E+01  0.10152053598E+01 0.  0.
     999903    2    3    3    0    0 -0.90356451225E-01 -0.36020272172E-01  0.72338418902E-01  0.12440139952E+00  0.27948400089E-01 0.  0.
         14    1    1    2    0    0 -0.17251096015E-01  0.15575807800E-01  0.16197269804E-01  0.28329448485E-01  0.00000000000E+00 0. -1.
     999901    1    3    3    0    0  0.10760754724E+00  0.20444464372E-01 -0.88535688706E-01  0.89119915200E+00  0.88000000000E+00 0.  1.
        -11    1    4    4    0    0 -0.66744326274E-01 -0.38657248218E-01  0.51050515878E-01  0.92496509242E-01  0.51100000000E-03 0. -1.
         11    1    4    4    0    0 -0.23612124951E-01  0.26369760464E-02  0.21287903024E-01  0.31904890276E-01  0.51100000000E-03 0.  1.
</event>
<event>
 8    1  0.9956970E+004  0.1043930E+01  0.7957747E-01            NaN
         13   -1    0    0    0    0  0.00000000000E+00  0.00000000000E+00  0.74505805969E-08  0.10566000000E+00  0.10566000000E+00 0.  1.
     999900   -1    0    0    0    0 -0.00000000000E+00 -0.00000000000E+00 -0.74505805969E-08  0.93827000000E+00  0.93827000000E+00 0. -1.
     999902    2    1    2    0    0  0.16477257744E-01 -0.75583039292E-02  0.91180630091E-02  0.10236379559E+01  0.10234368069E+01 0.  0.
     999903    2    3    3    0    0 -0.86573334227E-01  0.96208449812E-01  0.72295874769E-02  0.13156703381E+00  0.22507986043E-01 0.  0.
         14    1    1    2    0    0 -0.16477257744E-01  0.75583039292E-02 -0.91180630091E-02  0.20292044108E-01  0.00000000000E+00 0.  1.
     999901    1    3    3    0    0  0.10305059197E+00 -0.10376675374E+00  0.18884755322E-02  0.89207092208E+00  0.88000000000E+00 0.  1.
        -11    1    4    4    0    0 -0.40340368980E-01  0.60567327794E-01  0.77598752351E-02  0.73186223773E-01  0.51100000000E-03 0. -1.
         11    1    4    4    0    0 -0.46232965247E-01  0.35641122017E-01 -0.53028775817E-03  0.58380810035E-01  0.51100000000E-03 0.  1.
</event>
<event>
 8    1  0.9956970E+004  0.1043930E+01  0.7957747E-01            NaN
         13   -1    0    0    0    0  0.00000000000E+00  0.00000000000E+00  0.74505805969E-08  0.10566000000E+00  0.10566000000E+00 0. -1.
     999900   -1    0    0    0    0 -0.00000000000E+00 -0.00000000000E+00 -0.74505805969E-08  0.93827000000E+00  0.93827000000E+00 0. -1.
     999902    2    1    2    0    0 -0.28560296132E-02  0.20237391879E-01  0.12006131123E-01  0.10202264956E+01  0.10199510999E+01 0.  0.
     999903    2    3    3    0    0  0.13539266907E-01 -0.12420939448E+00  0.21649042324E-01  0.12824742324E+00  0.19168596931E-01 0.  0.
         14    1    1    2    0    0  0.28560296132E-02 -0.20237391879E-01 -0.12006131123E-01  0.23703504377E-01  0.00000000000E+00 0.  1.
     999901    1    3    3    0    0 -0.16395296520E-01  0.14444678636E+00 -0.96429112013E-02  0.89197907239E+00  0.88000000000E+00 0.  1.
        -11    1    4    4    0    0  0.12360121952E-01 -0.36236301527E-01  0.92955391047E-02  0.39401907711E-01  0.51100000000E-03 0.  1.
         11    1    4    4    0    0  0.11791449547E-02 -0.87973092952E-01  0.12353503220E-01  0.88845515527E-01  0.51100000000E-03 0. -1.
</event>
<event>
 8    1  0.9956970E+004  0.1043930E+01  0.7957747E-01            NaN
         13   -1    0    0    0    0  0.00000000000E+00  0.00000000000E+00  0.74505805969E-08  0.10566000000E+00  0.10566000000E+00 0. -1.
     999900   -1    0    0    0    0 -0.00000000000E+00 -0.00000000000E+00 -0.74505805969E-08  0.93827000000E+00  0.93827000000E+00 0.  1.
     999902    2    1    2    0    0  0.21729755358E-01  0.52070045761E-02 -0.85597262348E-02  0.10200016888E+01  0.10197209820E+01 0.  0.
     999903    2    3    3    0    0  0.11832676606E+00  0.45820406020E-01  0.34901335514E-01  0.13271971852E+00  0.17195560216E-01 0.  0.
         14    1    1    2    0    0 -0.21729755358E-01 -0.52070045761E-02  0.85597262348E-02  0.23928311219E-01  0.00000000000E+00 0. -1.
     999901    1    3    3    0    0 -0.96597010699E-01 -0.40613401443E-01 -0.43461061748E-01  0.88728197026E+00  0.88000000000E+00 0.  1.
        -11    1    4    4    0    0  0.34907894377E-01  0.21588810158E-01  0.83946737308E-02  0.41897129758E-01  0.51100000000E-03 0.  1.
         11    1    4    4    0    0  0.83418871680E-01  0.24231595861E-01  0.26506661783E-01  0.90822588767E-01  0.51100000000E-03 0. -1.
</event>
<event>
 8    1  0.9956970E+004  0.1043930E+01  0.7957747E-01            NaN
         13   -1    0    0    0    0  0.00000000000E+00  0.00000000000E+00  0.74505805969E-08  0.10566000000E+00  0.10566000000E+00 0.  1.
     999900   -1    0    0    0    0 -0.00000000000E+00 -0.00000000000E+00 -0.74505805969E-08  0.93827000000E+00  0.93827000000E+00 0.  1.
     999902    2    1    2    0    0 -0.57390703162E-02 -0.20310267579E-01  0.10849727976E-01  0.10201989972E+01  0.10199229546E+01 0.  0.
     999903    2    3    3    0    0 -0.57681321645E-01 -0.91974016725E-01 -0.68760971868E-01  0.13218348272E+00  0.30952338066E-01 0.  0.
         14    1    1    2    0    0  0.57390703162E-02  0.20310267579E-01 -0.10849727976E-01  0.23731002810E-01  0.00000000000E+00 0. -1.
     999901    1    3    3    0    0  0.51942251329E-01  0.71663749146E-01  0.79610699845E-01  0.88801551447E+00  0.88000000000E+00 0. -1.
        -11    1    4    4    0    0 -0.28489136675E-01 -0.71656460299E-01 -0.43289646519E-01  0.88433782164E-01  0.51100000000E-03 0. -1.
         11    1    4    4    0    0 -0.29192184970E-01 -0.20317556426E-01 -0.25471325350E-01  0.43749700553E-01  0.51100000000E-03 0.  1.
</event>
<event>
 8    1  0.1024774E+005  0.1043930E+01  0.7957747E-01            NaN
         13   -1    0    0    0    0  0.00000000000E+00  0.00000000000E+00  0.74505805969E-08  0.10566000000E+00  0.10566000000E+00 0. -1.
     999900   -1    0    0    0    0 -0.00000000000E+00 -0.00000000000E+00 -0.74505805969E-08  0.93827000000E+00  0.93827000000E+00 0. -1.
     999902    2    1    2    0    0 -0.23143851848E-01  0.15449196812E-03  0.36912049955E-02  0.10204931329E+01  0.10202239693E+01 0.  0.
     999903    2    3    3    0    0  0.68620865431E-01  0.98146353999E-02  0.10753152894E+00  0.12959645279E+00  0.20665445070E-01 0.  0.
         14    1    1    2    0    0  0.23143851848E-01 -0.15449196812E-03 -0.36912049955E-02  0.23436867121E-01  0.00000000000E+00 0.  1.
     999901    1    3    3    0    0 -0.91764717279E-01 -0.96601434318E-02 -0.10384032395E+00  0.89089668008E+00  0.88000000000E+00 0.  1.
        -11    1    4    4    0    0  0.44453627508E-01  0.13705019978E-01  0.58067807158E-01  0.74404864897E-01  0.51100000000E-03 0. -1.
         11    1    4    4    0    0  0.24167237923E-01 -0.38903845776E-02  0.49463721783E-01  0.55191587897E-01  0.51100000000E-03 0.  1.
</event>
<event>
 8    1  0.9956970E+004  0.1043930E+01  0.7957747E-01            NaN
         13   -1    0    0    0    0  0.00000000000E+00  0.00000000000E+00  0.74505805969E-08  0.10566000000E+00  0.10566000000E+00 0. -1.
     999900   -1    0    0    0    0 -0.00000000000E+00 -0.00000000000E+00 -0.74505805969E-08  0.93827000000E+00  0.93827000000E+00 0. -1.
     999902    2    1    2    0    0  0.41712088187E-02  0.21087743688E-01  0.74564210517E-02  0.10211771951E+01  0.10209236865E+01 0.  0.
     999903    2    3    3    0    0  0.24338145252E-01 -0.11964974902E+00  0.37455554765E-01  0.12926145063E+00  0.19929783777E-01 0.  0.
         14    1    1    2    0    0 -0.41712088187E-02 -0.21087743688E-01 -0.74564210517E-02  0.22752804921E-01  0.00000000000E+00 0. -1.
     999901    1    3    3    0    0 -0.20166936434E-01  0.14073749270E+00 -0.29999133713E-01  0.89191574445E+00  0.88000000000E+00 0. -1.
        -11    1    4    4    0    0  0.23687941443E-01 -0.81319881305E-01  0.19453242382E-01  0.86906452151E-01  0.51100000000E-03 0. -1.
         11    1    4    4    0    0  0.65020380916E-03 -0.38329867712E-01  0.18002312383E-01  0.42354998476E-01  0.51100000000E-03 0.  1.
</event>
<event>
 7    1  0.2034357E+005  0.1043930E+01  0.7957747E-01            NaN
         13   -1    0    0    0    0  0.00000000000E+00  0.00000000000E+00  0.74505805969E-08  0.10566000000E+00  0.10566000000E+00 0.  1.
     999900   -1    0    0    0    0 -0.00000000000E+00 -0.00000000000E+00 -0.74505805969E-08  0.93827000000E+00  0.93827000000E+00 0.  1.
     999903    2    1    2    0    0 -0.23055809935E-01  0.21003299304E-01 -0.10049335545E+00  0.10710058226E+00  0.19972763397E-01 0.  0.
         14    1    1    2    0    0 -0.35591360355E-01  0.18980767708E-01  0.31687357147E-01  0.51294279190E-01  0.00000000000E+00 0. -1.
     999901    1    1    2    0    0  0.58647170290E-01 -0.39984067012E-01  0.68805998305E-01  0.88553513855E+00  0.88000000000E+00 0. -1.
        -11    1    3    3    0    0 -0.44684334802E-02  0.15907673715E-01 -0.60257425442E-01  0.62483913311E-01  0.51100000000E-03 0.  1.
         11    1    3    3    0    0 -0.18587376455E-01  0.50956255894E-02 -0.40235930010E-01  0.44616668952E-01  0.51100000000E-03 0. -1.
</event>
<event>
 8    1  0.9956970E+004  0.1043930E+01  0.7957747E-01            NaN
         13   -1    0    0    0    0  0.00000000000E+00  0.00000000000E+00  0.74505805969E-08  0.10566000000E+00  0.10566000000E+00 0. -1.
     999900   -1    0    0    0    0 -0.00000000000E+00 -0.00000000000E+00 -0.74505805969E-08  0.93827000000E+00  0.93827000000E+00 0. -1.
     999902    2    1    2    0    0  0.40235917289E-02  0.15636190813E-01 -0.16605299376E-01  0.10207693497E+01  0.10205065652E+01 0.  0.
     999903    2    3    3    0    0  0.12075825441E+00  0.45703510654E-01  0.17734852917E-01  0.13188787774E+00  0.20211887359E-01 0.  0.
         14    1    1    2    0    0 -0.40235917289E-02 -0.15636190813E-01  0.16605299376E-01  0.23160650270E-01  0.00000000000E+00 0. -1.
     999901    1    3    3    0    0 -0.11673466269E+00 -0.30067319840E-01 -0.34340152292E-01  0.88888147199E+00  0.88000000000E+00 0.  1.
        -11    1    4    4    0    0  0.81023012778E-01  0.37794911190E-01  0.18777281810E-01  0.91356616315E-01  0.51100000000E-03 0. -1.
         11    1    4    4    0    0  0.39735241636E-01  0.79085994642E-02 -0.10424288935E-02  0.40531261421E-01  0.51100000000E-03 0.  1.
</event>
<event>
 8    1  0.9956970E+004  0.1043930E+01  0.7957747E-01            NaN
         13   -1    0    0    0    0  0.00000000000E+00  0.00000000000E+00  0.74505805969E-08  0.10566000000E+00  0.10566000000E+00 0. -1.
     999900   -1    0    0    0    0 -0.00000000000E+00 -0.00000000000E+00 -0.74505805969E-08  0.93827000000E+00  0.93827000000E+00 0.  1.
     999902    2    1    2    0    0 -0.82631677956E-02  0.58662699331E-02 -0.16049233306E-01  0.10249491951E+01  0.10247734294E+01 0.  0.
     999903    2    3    3    0    0 -0.34093414736E-01  0.28707456568E-01  0.12383774217E+00  0.13323327208E+00  0.20708438152E-01 0.  0.
         14    1    1    2    0    0  0.82631677956E-02 -0.58662699331E-02  0.16049233306E-01  0.18980804900E-01  0.00000000000E+00 0. -1.
     999901    1    3    3    0    0  0.25830246941E-01 -0.22841186635E-01 -0.13988697548E+00  0.89171592302E+00  0.88000000000E+00 0.  1.
        -11    1    4    4    0    0 -0.13043224122E-01 -0.58480235568E-03  0.33732233929E-01  0.36174471885E-01  0.51100000000E-03 0. -1.
         11    1    4    4    0    0 -0.21050190614E-01  0.29292258924E-01  0.90105508244E-01  0.97058800192E-01  0.51100000000E-03 0.  1.
</event>
<event>
 8    1  0.9956970E+004  0.1043930E+01  0.7957747E-01            NaN
         13   -1    0    0    0    0  0.00000000000E+00  0.00000000000E+00  0.74505805969E-08  0.10566000000E+00  0.10566000000E+00 0. -1.
     999900   -1    0    0    0    0 -0.00000000000E+00 -0.00000000000E+00 -0.74505805969E-08  0.93827000000E+00  0.93827000000E+00 0.  1.
     999902    2    1    2    0    0 -0.89466576958E-02  0.83487294746E-02 -0.18854958615E-01  0.10214521569E+01  0.10212048058E+01 0.  0.
     999903    2    3    3    0    0  0.22645003840E-01 -0.10566662860E+00  0.68624080866E-01  0.12923574965E+00  0.17730818179E-01 0.  0.
         14    1    1    2    0    0  0.89466576958E-02 -0.83487294746E-02  0.18854958615E-01  0.22477843138E-01  0.00000000000E+00 0.  1.
     999901    1    3    3    0    0 -0.31591661536E-01  0.11401535807E+00 -0.87479039482E-01  0.89221640722E+00  0.88000000000E+00 0.  1.
        -11    1    4    4    0    0  0.15643169249E-01 -0.42805134854E-01  0.21704345959E-01  0.50480967389E-01  0.51100000000E-03 0.  1.
         11    1    4    4    0    0  0.70018345911E-02 -0.62861493746E-01  0.46919734907E-01  0.78754782257E-01  0.51100000000E-03 0. -1.
</event>
<event>
 8    1  0.9956970E+004  0.1043930E+01  0.7957747E-01            NaN
         13   -1    0    0    0    0  0.00000000000E+00  0.00000000000E+00  0.74505805969E-08  0.10566000000E+00  0.10566000000E+00 0.  1.
     999900   -1    0    0    0    0 -0.00000000000E+00 -0.00000000000E+00 -0.74505805969E-08  0.93827000000E+00  0.93827000000E+00 0. -1.
     999902    2    1    2    0    0  0.40150631691E-02 -0.67764424183E-02 -0.22381689765E-01  0.10202027806E+01  0.10199268271E+01 0.  0.
     999903    2    3    3    0    0  0.45769613865E-01 -0.10925252083E+00 -0.53850202379E-01  0.13271472071E+00  0.26122441209E-01 0.  0.
         14    1    1    2    0    0 -0.40150631691E-02  0.67764424183E-02  0.22381689765E-01  0.23727219408E-01  0.00000000000E+00 0.  1.
     999901    1    3    3    0    0 -0.41754550696E-01  0.10247607841E+00  0.31468512614E-01  0.88748805988E+00  0.88000000000E+00 0.  1.
        -11    1    4    4    0    0  0.24433750840E-01 -0.29830185511E-01 -0.22860811811E-01  0.44829967492E-01  0.51100000000E-03 0. -1.
         11    1    4    4    0    0  0.21335863025E-01 -0.79422335322E-01 -0.30989390568E-01  0.87884753215E-01  0.51100000000E-03 0.  1.
</event>
<event>
 8    1  0.9956970E+004  0.1043930E+01  0.7957747E-01            NaN
         13   -1    0    0    0    0  0.00000000000E+00  0.00000000000E+00  0.74505805969E-08  0.10566000000E+00  0.10566000000E+00 0.  1.
     999900   -1    0    0    0    0 -0.00000000000E+00 -0.00000000000E+00 -0.74505805969E-08  0.93827000000E+00  0.93827000000E+00 0.  1.
     999902    2    1    2    0    0 -0.17500354659E-01 -0.10720089676E-01 -0.22959534871E-01  0.10131351469E+01  0.10126670247E+01 0.  0.
     999903    2    3    3    0    0  0.10316820409E+00  0.58859442528E-01 -0.19220199378E-01  0.12217151408E+00  0.21174288189E-01 0.  0.
         14    1    1    2    0    0  0.17500354659E-01  0.10720089676E-01  0.22959534871E-01  0.30794853099E-01  0.00000000000E+00 0.  1.
     999901    1    3    3    0    0 -0.12066855875E+00 -0.69579532204E-01 -0.37393354929E-02  0.89096363282E+00  0.88000000000E+00 0.  1.
        -11    1    4    4    0    0  0.26568187151E-01  0.20713142459E-01  0.28033592525E-02  0.33808619953E-01  0.51100000000E-03 0. -1.
         11    1    4    4    0    0  0.76600016936E-01  0.38146300069E-01 -0.22023558631E-01  0.88362894132E-01  0.51100000000E-03 0.  1.
</event>
<event>
 7    1  0.9956970E+004  0.1043930E+01  0.7957747E-01            NaN
         13   -1    0    0    0    0  0.00000000000E+00  0.00000000000E+00  0.74505805969E-08  0.10566000000E+00  0.10566000000E+00 0.  1.
     999900   -1    0    0    0    0 -0.00000000000E+00 -0.00000000000E+00 -0.74505805969E-08  0.93827000000E+00  0.93827000000E+00 0.  1.
     999903    2    1    2    0    0 -0.84933754406E-01 -0.13833215354E-01  0.43407207674E-01  0.98360733615E-01  0.19635369988E-01 0.  0.
         14    1    1    2    0    0  0.13130932233E-02  0.20431242011E-01 -0.57950772631E-01  0.61460978779E-01  0.00000000000E+00 0. -1.
     999901    1    1    2    0    0  0.83620661183E-01 -0.65980266569E-02  0.14543564958E-01  0.88410828761E+00  0.88000000000E+00 0. -1.
        -11    1    3    3    0    0 -0.43690301123E-01  0.11591584194E-02  0.15615796114E-01  0.46414440315E-01  0.51100000000E-03 0. -1.
         11    1    3    3    0    0 -0.41243453283E-01 -0.14992373774E-01  0.27791411560E-01  0.51946293300E-01  0.51100000000E-03 0.  1.
</event>
<event>
 8    1  0.9956970E+004  0.1043930E+01  0.7957747E-01            NaN
         13   -1    0    0    0    0  0.00000000000E+00  0.00000000000E+00  0.74505805969E-08  0.10566000000E+00  0.10566000000E+00 0. -1.
     999900   -1    0    0    0    0 -0.00000000000E+00 -0.00000000000E+00 -0.74505805969E-08  0.93827000000E+00  0.93827000000E+00 0.  1.
     999902    2    1    2    0    0 -0.21499567932E-01 -0.44819299570E-02 -0.31671729802E-02  0.10217410365E+01  0.10215000712E+01 0.  0.
     999903    2    3    3    0    0  0.31632412626E-01 -0.37278749305E-01 -0.12066366187E+00  0.13173875355E+00  0.20126231996E-01 0.  0.
         14    1    1    2    0    0  0.21499567932E-01  0.44819299570E-02  0.31671729802E-02  0.22188963520E-01  0.00000000000E+00 0.  1.
     999901    1    3    3    0    0 -0.53131980558E-01  0.32796819348E-01  0.11749648888E+00  0.89000228293E+00  0.88000000000E+00 0. -1.
        -11    1    4    4    0    0  0.99923583495E-02 -0.38370599808E-02 -0.12455006271E-01  0.16430415603E-01  0.51100000000E-03 0.  1.
         11    1    4    4    0    0  0.21640054276E-01 -0.33441689324E-01 -0.10820865559E+00  0.11530833795E+00  0.51100000000E-03 0. -1.
</event>
<event>
 8    1  0.9956970E+004  0.1043930E+01  0.7957747E-01            NaN
         13   -1    0    0    0    0  0.00000000000E+00  0.00000000000E+00  0.74505805969E-08  0.10566000000E+00  0.10566000000E+00 0. -1.
     999900   -1    0    0    0    0 -0.00000000000E+00 -0.00000000000E+00 -0.74505805969E-08  0.93827000000E+00  0.93827000000E+00 0.  1.
     999902    2    1    2    0    0  0.21964693990E-01  0.43675975971E-02 -0.94694336412E-02  0.10196155215E+01  0.10193255701E+01 0.  0.
     999903    2    3    3    0    0  0.53123978313E-01  0.58943798193E-01  0.10130401766E+00  0.13044724712E+00  0.21388124496E-01 0.  0.
         14    1    1    2    0    0 -0.21964693990E-01 -0.43675975971E-02  0.94694336412E-02  0.24314478492E-01  0.00000000000E+00 0. -1.
     999901    1    3    3    0    0 -0.31159284323E-01 -0.54576200596E-01 -0.11077345130E+00  0.88916827439E+00  0.88000000000E+00 0.  1.
        -11    1    4    4    0    0  0.27695467832E-01  0.23420478989E-01  0.31212841459E-01  0.47854575199E-01  0.51100000000E-03 0.  1.
         11    1    4    4    0    0  0.25428510481E-01  0.35523319204E-01  0.70091176200E-01  0.82592671919E-01  0.51100000000E-03 0. -1.
</event>
<event>
 8    1  0.9956970E+004  0.1043930E+01  0.7957747E-01            NaN
         13   -1    0    0    0    0  0.00000000000E+00  0.00000000000E+00  0.74505805969E-08  0.10566000000E+00  0.10566000000E+00 0.  1.
     999900   -1    0    0    0    0 -0.00000000000E+00 -0.00000000000E+00 -0.74505805969E-08  0.93827000000E+00  0.93827000000E+00 0.  1.
     999902    2    1    2    0    0 -0.35427599378E-02 -0.12967006461E-01  0.19433096421E-01  0.10203007884E+01  0.10200271365E+01 0.  0.
     999903    2    3    3    0    0 -0.11746966534E+00  0.47404287921E-01 -0.20929056018E-01  0.12999009189E+00  0.20325103108E-01 0.  0.
         14    1    1    2    0    0  0.35427599378E-02  0.12967006461E-01 -0.19433096421E-01  0.23629211604E-01  0.00000000000E+00 0. -1.
     999901    1    3    3    0    0  0.11392690540E+00 -0.60371294383E-01  0.40362152439E-01  0.89031069650E+00  0.88000000000E+00 0.  1.
        -11    1    4    4    0    0 -0.80553960115E-01  0.37272880365E-01 -0.22860152343E-01  0.91657273508E-01  0.51100000000E-03 0.  1.
         11    1    4    4    0    0 -0.36915705223E-01  0.10131407557E-01  0.19310963252E-02  0.38332818384E-01  0.51100000000E-03 0. -1.
</event>
<event>
 8    1  0.9956970E+004  0.1043930E+01  0.7957747E-01            NaN
         13   -1    0    0    0    0  0.00000000000E+00  0.00000000000E+00  0.74505805969E-08  0.10566000000E+00  0.10566000000E+00 0. -1.
     999900   -1    0    0    0    0 -0.00000000000E+00 -0.00000000000E+00 -0.74505805969E-08  0.93827000000E+00  0.93827000000E+00 0. -1.
     999902    2    1    2    0    0  0.18521386115E-01  0.12505658652E-01 -0.66153505034E-02  0.10206234322E+01  0.10203572875E+01 0.  0.
     999903    2    3    3    0    0 -0.71973425216E-01 -0.88439474453E-01  0.54787527559E-01  0.12812718892E+00  0.20327045662E-01 0.  0.
         14    1    1    2    0    0 -0.18521386115E-01 -0.12505658652E-01  0.66153505034E-02  0.23306567834E-01  0.00000000000E+00 0. -1.
     999901    1    3    3    0    0  0.90494811331E-01  0.10094513310E+00 -0.61402878063E-01  0.89249624325E+00  0.88000000000E+00 0. -1.
        -11    1    4    4    0    0 -0.52086699016E-01 -0.76676556593E-01  0.44694072367E-01  0.10290840476E+00  0.51100000000E-03 0.  1.
         11    1    4    4    0    0 -0.19886726200E-01 -0.11762917860E-01  0.10093455192E-01  0.25218784155E-01  0.51100000000E-03 0. -1.
</event>
<event>
 8    1  0.9956970E+004  0.1043930E+01  0.7957747E-01            NaN
         13   -1    0    0    0    0  0.00000000000E+00  0.00000000000E+00  0.74505805969E-08  0.10566000000E+00  0.10566000000E+00 0.  1.
     999900   -1    0    0    0    0 -0.00000000000E+00 -0.00000000000E+00 -0.74505805969E-08  0.93827000000E+00  0.93827000000E+00 0.  1.
     999902    2    1    2    0    0 -0.74631917246E-02 -0.22277159565E-01  0.27381196679E-02  0.10202769163E+01  0.10200027047E+01 0.  0.
     999903    2    3    3    0    0  0.60418492118E-01 -0.68701641163E-01 -0.92023595170E-01  0.13137706925E+00  0.20525169148E-01 0.  0.
         14    1    1    2    0    0  0.74631917246E-02  0.22277159565E-01 -0.27381196679E-02  0.23653083696E-01  0.00000000000E+00 0.  1.
     999901    1    3    3    0    0 -0.67881683842E-01  0.46424481598E-01  0.94761714838E-01  0.88889984705E+00  0.88000000000E+00 0. -1.
        -11    1    4    4    0    0  0.54214785861E-01 -0.59257470330E-01 -0.88539488107E-01  0.11954159473E+00  0.51100000000E-03 0. -1.
         11    1    4    4    0    0  0.62037062571E-02 -0.94441708332E-02 -0.34841070627E-02  0.11835474518E-01  0.51100000000E-03 0.  1.
</event>
<event>
 8    1  0.9956970E+004  0.1043930E+01  0.7957747E-01            NaN
         13   -1    0    0    0    0  0.00000000000E+00  0.00000000000E+00  0.74505805969E-08  0.10566000000E+00  0.10566000000E+00 0. -1.
     999900   -1    0    0    0    0 -0.00000000000E+00 -0.00000000000E+00 -0.74505805969E-08  0.93827000000E+00  0.93827000000E+00 0. -1.
     999902    2    1    2    0    0  0.12141141188E-01 -0.12751235366E-01 -0.14534854854E-01  0.10210988082E+01  0.10208435300E+01 0.  0.
     999903    2    3    3    0    0 -0.34061043013E-01 -0.46759505299E-01  0.11456301001E+00  0.12983147292E+00  0.19619432016E-01 0.  0.
         14    1    1    2    0    0 -0.12141141188E-01  0.12751235366E-01  0.14534854854E-01  0.22831191785E-01  0.00000000000E+00 0. -1.
     999901    1    3    3    0    0  0.46202184201E-01  0.34008269933E-01 -0.12909786486E+00  0.89126733529E+00  0.88000000000E+00 0. -1.
        -11    1    4    4    0    0 -0.22108600490E-01 -0.31066104385E-01  0.53795521635E-01  0.65940217821E-01  0.51100000000E-03 0.  1.
         11    1    4    4    0    0 -0.11952442523E-01 -0.15693400914E-01  0.60767488370E-01  0.63891255101E-01  0.51100000000E-03 0. -1.
</event>
<event>
 8    1  0.9956970E+004  0.1043930E+01  0.7957747E-01            NaN
         13   -1    0    0    0    0  0.00000000000E+00  0.00000000000E+00  0.74505805969E-08  0.10566000000E+00  0.10566000000E+00 0. -1.
     999900   -1    0    0    0    0 -0.00000000000E+00 -0.00000000000E+00 -0.74505805969E-08  0.93827000000E+00  0.93827000000E+00 0. -1.
     999902    2    1    2    0    0  0.13031809678E-01  0.12551071699E-01 -0.15570995496E-01  0.10200592362E+01  0.10197798939E+01 0.  0.
     999903    2    3    3    0    0  0.83231820037E-01  0.73777081353E-01 -0.70948083125E-01  0.13341201911E+00  0.19863100080E-01 0.  0.
         14    1    1    2    0    0 -0.13031809678E-01 -0.12551071699E-01  0.15570995496E-01  0.23870763813E-01  0.00000000000E+00 0. -1.
     999901    1    3    3    0    0 -0.70200010359E-01 -0.61226009654E-01  0.55377087629E-01  0.88664721707E+00  0.88000000000E+00 0.  1.
        -11    1    4    4    0    0  0.38314542361E-01  0.34390429814E-01 -0.44596763906E-01  0.68116358469E-01  0.51100000000E-03 0.  1.
         11    1    4    4    0    0  0.44917277676E-01  0.39386651539E-01 -0.26351319219E-01  0.65295660643E-01  0.51100000000E-03 0. -1.
</event>
<event>
 8    1  0.9956970E+004  0.1043930E+01  0.7957747E-01            NaN
         13   -1    0    0    0    0  0.00000000000E+00  0.00000000000E+00  0.74505805969E-08  0.10566000000E+00  0.10566000000E+00 0. -1.
     999900   -1    0    0    0    0 -0.00000000000E+00 -0.00000000000E+00 -0.74505805969E-08  0.93827000000E+00  0.93827000000E+00 0. -1.
     999902    2    1    2    0    0  0.14858995330E-01 -0.91036949058E-02 -0.21478980804E-02  0.10263720824E+01  0.10262218918E+01 0.  0.
     999903    2    3    3    0    0  0.12197422027E+00 -0.60499348878E-01  0.12676637627E-01  0.13826457119E+00  0.20457587377E-01 0.  0.
         14    1    1    2    0    0 -0.14858995330E-01  0.91036949058E-02  0.21478980804E-02  0.17557917568E-01  0.00000000000E+00 0.  1.
     999901    1    3    3    0    0 -0.10711522494E+00  0.51395653972E-01 -0.14824535708E-01  0.88810751124E+00  0.88000000000E+00 0. -1.
        -11    1    4    4    0    0  0.64987789680E-01 -0.30240234712E-01  0.16751341137E-01  0.73612180743E-01  0.51100000000E-03 0. -1.
         11    1    4    4    0    0  0.56986430588E-01 -0.30259114166E-01 -0.40747035097E-02  0.64652390450E-01  0.51100000000E-03 0.  1.
</event>
<event>
 8    1  0.9956970E+004  0.1043930E+01  0.7957747E-01            NaN
         13   -1    0    0    0    0  0.00000000000E+00  0.00000000000E+00  0.74505805969E-08  0.10566000000E+00  0.10566000000E+00 0.  1.
     999900   -1    0    0    0    0 -0.00000000000E+00 -0.00000000000E+00 -0.74505805969E-08  0.93827000000E+00  0.93827000000E+00 0.  1.
     999902    2    1    2    0    0  0.81048816280E-02  0.18703548998E-01  0.12512966482E-01  0.10200116769E+01  0.10197312071E+01 0.  0.
     999903    2    3    3    0    0  0.12017968049E+00 -0.45300157338E-01  0.10489423395E-01  0.13059539093E+00  0.21210098354E-01 0.  0.
         14    1    1    2    0    0 -0.81048816280E-02 -0.18703548998E-01 -0.12512966482E-01  0.23918323133E-01  0.00000000000E+00 0. -1.
     999901    1    3    3    0    0 -0.11207479886E+00  0.64003706336E-01  0.20235430872E-02  0.88941628594E+00  0.88000000000E+00 0. -1.
        -11    1    4    4    0    0  0.10727027679E+00 -0.32923201714E-01  0.75469757250E-02  0.11246362727E+00  0.51100000000E-03 0. -1.
         11    1    4    4    0    0  0.12909403694E-01 -0.12376955624E-01  0.29424476700E-02  0.18131763663E-01  0.51100000000E-03 0.  1.
</event>
<event>
 8    1  0.9956970E+004  0.1043930E+01  0.7957747E-01            NaN
         13   -1    0    0    0    0  0.00000000000E+00  0.00000000000E+00  0.74505805969E-08  0.10566000000E+00  0.10566000000E+00 0. -1.
     999900   -1    0    0    0    0 -0.00000000000E+00 -0.00000000000E+00 -0.74505805969E-08  0.93827000000E+00  0.93827000000E+00 0.  1.
     999902    2    1    2    0    0  0.45177951710E-02  0.29933321849E-03 -0.22886757282E-01  0.10205996821E+01  0.10203329885E+01 0.  0.
     999903    2    3    3    0    0  0.60983330976E-01  0.10248677459E+00 -0.53754763009E-01  0.13235227081E+00  0.20125690545E-01 0.  0.
         14    1    1    2    0    0 -0.45177951710E-02 -0.29933321849E-03  0.22886757282E-01  0.23330317882E-01  0.00000000000E+00 0. -1.
     999901    1    3    3    0    0 -0.56465535806E-01 -0.10218744138E+00  0.30868005727E-01  0.88824741130E+00  0.88000000000E+00 0.  1.
        -11    1    4    4    0    0  0.51296572097E-01  0.68857688468E-01 -0.40332665759E-01  0.94866772993E-01  0.51100000000E-03 0. -1.
         11    1    4    4    0    0  0.96867588800E-02  0.33629086127E-01 -0.13422097250E-01  0.37485497822E-01  0.51100000000E-03 0.  1.
</event>
<event>
 8    1  0.9956970E+004  0.1043930E+01  0.7957747E-01            NaN
         13   -1    0    0    0    0  0.00000000000E+00  0.00000000000E+00  0.74505805969E-08  0.10566000000E+00  0.10566000000E+00 0. -1.
     999900   -1    0    0    0    0 -0.00000000000E+00 -0.00000000000E+00 -0.74505805969E-08  0.93827000000E+00  0.93827000000E+00 0. -1.
     999902    2    1    2    0    0  0.24534605117E-02  0.12118463650E-01 -0.18959229242E-01  0.10212953142E+01  0.10210444602E+01 0.  0.
     999903    2    3    3    0    0 -0.12502890701E+00 -0.86582655135E-02 -0.36005046241E-01  0.13170328048E+00  0.18498583294E-01 0.  0.
         14    1    1    2    0    0 -0.24534605117E-02 -0.12118463650E-01  0.18959229242E-01  0.22634685842E-01  0.00000000000E+00 0. -1.
     999901    1    3    3    0    0  0.12748236753E+00  0.20776729164E-01  0.17045816999E-01  0.88959203368E+00  0.88000000000E+00 0.  1.
        -11    1    4    4    0    0 -0.66491831059E-01  0.13546303547E-02 -0.11680694624E-01  0.67525538642E-01  0.51100000000E-03 0. -1.
         11    1    4    4    0    0 -0.58537075955E-01 -0.10012895868E-01 -0.24324351617E-01  0.64177741839E-01  0.51100000000E-03 0.  1.
</event>
<event>
 8    1  0.9956970E+004  0.1043930E+01  0.7957747E-01            NaN
         13   -1    0    0    0    0  0.00000000000E+00  0.00000000000E+00  0.74505805969E-08  0.10566000000E+00  0.10566000000E+00 0. -1.
     999900   -1    0    0    0    0 -0.00000000000E+00 -0.00000000000E+00 -0.74505805969E-08  0.93827000000E+00  0.93827000000E+00 0. -1.
     999902    2    1    2    0    0  0.53426066892E-03  0.18132654812E-01  0.68910379799E-02  0.10245247170E+01  0.10243409250E+01 0.  0.
     999903    2    3    3    0    0  0.98492733341E-01  0.23936925622E-01 -0.85994770990E-01  0.13421166785E+00  0.18543899807E-01 0.  0.
         14    1    1    2    0    0 -0.53426066892E-03 -0.18132654812E-01 -0.68910379799E-02  0.19405283029E-01  0.00000000000E+00 0.  1.
     999901    1    3    3    0    0 -0.97958472672E-01 -0.58042708097E-02  0.92885808970E-01  0.89031304912E+00  0.88000000000E+00 0.  1.
        -11    1    4    4    0    0  0.33674243356E-01 -0.72208339459E-03 -0.27577261826E-01  0.43534383662E-01  0.51100000000E-03 0.  1.
         11    1    4    4    0    0  0.64818489985E-01  0.24659009017E-01 -0.58417509164E-01  0.90677284187E-01  0.51100000000E-03 0. -1.
</event>
<event>
 8    1  0.9956970E+004  0.1043930E+01  0.7957747E-01            NaN
         13   -1    0    0    0    0  0.00000000000E+00  0.00000000000E+00  0.74505805969E-08  0.10566000000E+00  0.10566000000E+00 0. -1.
     999900   -1    0    0    0    0 -0.00000000000E+00 -0.00000000000E+00 -0.74505805969E-08  0.93827000000E+00  0.93827000000E+00 0. -1.
     999902    2    1    2    0    0 -0.18408066696E-01 -0.14205781098E-01  0.29916245904E-02  0.10204862172E+01  0.10202168929E+01 0.  0.
     999903    2    3    3    0    0 -0.13123846627E+00 -0.12189803803E-01  0.12731197733E-02  0.13327839681E+00  0.19732812205E-01 0.  0.
         14    1    1    2    0    0  0.18408066696E-01  0.14205781098E-01 -0.29916245904E-02  0.23443782839E-01  0.00000000000E+00 0. -1.
     999901    1    3    3    0    0  0.11283039957E+00 -0.20159772952E-02  0.17185048171E-02  0.88720782035E+00  0.88000000000E+00 0.  1.
        -11    1    4    4    0    0 -0.85090615093E-01 -0.16611376024E-01  0.44092254990E-02  0.86810442809E-01  0.51100000000E-03 0. -1.
         11    1    4    4    0    0 -0.46147851175E-01  0.44215722211E-02 -0.31361057257E-02  0.46467954002E-01  0.51100000000E-03 0.  1.
</event>
<event>
 8    1  0.9956970E+004  0.1043930E+01  0.7957747E-01            NaN
         13   -1    0    0    0    0  0.00000000000E+00  0.00000000000E+00  0.74505805969E-08  0.10566000000E+00  0.10566000000E+00 0. -1.
     999900   -1    0    0    0    0 -0.00000000000E+00 -0.00000000000E+00 -0.74505805969E-08  0.93827000000E+00  0.93827000000E+00 0. -1.
     999902    2    1    2    0    0  0.13158392792E-01  0.51327297565E-02  0.18694619695E-01  0.10204997413E+01  0.10202307313E+01 0.  0.
     999903    2    3    3    0    0 -0.81360749379E-01  0.99801263181E-01  0.85160229123E-02  0.13033144079E+00  0.18272879919E-01 0.  0.
         14    1    1    2    0    0 -0.13158392792E-01 -0.51327297565E-02 -0.18694619695E-01  0.23430258666E-01  0.00000000000E+00 0.  1.
     999901    1    3    3    0    0  0.94519142171E-01 -0.94668533425E-01  0.10178596783E-01  0.89016830054E+00  0.88000000000E+00 0.  1.
        -11    1    4    4    0    0 -0.66832692077E-01  0.83278350136E-01  0.13881207822E-01  0.10767934520E+00  0.51100000000E-03 0. -1.
         11    1    4    4    0    0 -0.14528057302E-01  0.16522913045E-01 -0.53651849097E-02  0.22652095589E-01  0.51100000000E-03 0.  1.
</event>
<event>
 8    1  0.9956970E+004  0.1043930E+01  0.7957747E-01            NaN
         13   -1    0    0    0    0  0.00000000000E+00  0.00000000000E+00  0.74505805969E-08  0.10566000000E+00  0.10566000000E+00 0.  1.
     999900   -1    0    0    0    0 -0.00000000000E+00 -0.00000000000E+00 -0.74505805969E-08  0.93827000000E+00  0.93827000000E+00 0. -1.
     999902    2    1    2    0    0 -0.14665764864E-01 -0.16475277257E-01 -0.82405300001E-02  0.10203837529E+01  0.10201120416E+01 0.  0.
     999903    2    3    3    0    0  0.50138324173E-02  0.10715807297E+00  0.67246164939E-01  0.12832392698E+00  0.20904363612E-01 0.  0.
         14    1    1    2    0    0  0.14665764864E-01  0.16475277257E-01  0.82405300001E-02  0.23546247141E-01  0.00000000000E+00 0.  1.
     999901    1    3    3    0    0 -0.19679597282E-01 -0.12363335023E+00 -0.75486694939E-01  0.89205982588E+00  0.88000000000E+00 0.  1.
        -11    1    4    4    0    0 -0.49372660135E-02  0.51902783051E-01  0.41085639095E-01  0.66381973042E-01  0.51100000000E-03 0. -1.
         11    1    4    4    0    0  0.99510984308E-02  0.55255289919E-01  0.26160525844E-01  0.61941953936E-01  0.51100000000E-03 0.  1.
</event>
<event>
 8    1  0.9956970E+004  0.1043930E+01  0.7957747E-01            NaN
         13   -1    0    0    0    0  0.00000000000E+00  0.00000000000E+00  0.74505805969E-08  0.10566000000E+00  0.10566000000E+00 0.  1.
     999900   -1    0    0    0    0 -0.00000000000E+00 -0.00000000000E+00 -0.74505805969E-08  0.93827000000E+00  0.93827000000E+00 0. -1.
     999902    2    1    2    0    0 -0.46706856970E-02 -0.20572111888E-01  0.84959354855E-02  0.10211877923E+01  0.10209345224E+01 0.  0.
     999903    2    3    3    0    0  0.10110246215E+00  0.76943181318E-01 -0.11110000209E-01  0.12929004930E+00  0.21225544470E-01 0.  0.
         14    1    1    2    0    0  0.46706856970E-02  0.20572111888E-01 -0.84959354855E-02  0.22742207725E-01  0.00000000000E+00 0.  1.
     999901    1    3    3    0    0 -0.10577314785E+00 -0.97515293206E-01  0.19605935694E-01  0.89189774298E+00  0.88000000000E+00 0.  1.
        -11    1    4    4    0    0  0.76442885493E-01  0.61148391691E-01  0.20258175495E-03  0.97892505889E-01  0.51100000000E-03 0. -1.
         11    1    4    4    0    0  0.24659576660E-01  0.15794789626E-01 -0.11312581964E-01  0.31397543408E-01  0.51100000000E-03 0.  1.
</event>
<event>
 8    1  0.1081384E+005  0.1043930E+01  0.7957747E-01            NaN
         13   -1    0    0    0    0  0.00000000000E+00  0.00000000000E+00  0.74505805969E-08  0.10566000000E+00  0.10566000000E+00 0. -1.
     999900   -1    0    0    0    0 -0.00000000000E+00 -0.00000000000E+00 -0.74505805969E-08  0.93827000000E+00  0.93827000000E+00 0.  1.
     999902    2    1    2    0    0  0.50969839509E-02 -0.90011914295E-02 -0.24078550367E-01  0.10177235641E+01  0.10173860996E+01 0.  0.
     999903    2    3    3    0    0 -0.46288184417E-01  0.94400075449E-01 -0.71770038349E-01  0.12890033338E+00  0.20258017646E-01 0.  0.
         14    1    1    2    0    0 -0.50969839509E-02  0.90011914295E-02  0.24078550367E-01  0.26206435857E-01  0.00000000000E+00 0. -1.
     999901    1    3    3    0    0  0.51385168368E-01 -0.10340126688E+00  0.47691487982E-01  0.88882323076E+00  0.88000000000E+00 0.  1.
        -11    1    4    4    0    0 -0.24459640445E-01  0.69762297356E-01 -0.45756190476E-01  0.86942177515E-01  0.51100000000E-03 0. -1.
         11    1    4    4    0    0 -0.21828543973E-01  0.24637778093E-01 -0.26013847873E-01  0.41958155863E-01  0.51100000000E-03 0.  1.
</event>
<event>
 8    1  0.9956970E+004  0.1043930E+01  0.7957747E-01            NaN
         13   -1    0    0    0    0  0.00000000000E+00  0.00000000000E+00  0.74505805969E-08  0.10566000000E+00  0.10566000000E+00 0. -1.
     999900   -1    0    0    0    0 -0.00000000000E+00 -0.00000000000E+00 -0.74505805969E-08  0.93827000000E+00  0.93827000000E+00 0.  1.
     999902    2    1    2    0    0 -0.14869046887E-01  0.18184491769E-01  0.19522484695E-02  0.10203593494E+01  0.10200870680E+01 0.  0.
     999903    2    3    3    0    0  0.69796366025E-01 -0.10351798493E+00 -0.18951626272E-01  0.12771345265E+00  0.19080249870E-01 0.  0.
         14    1    1    2    0    0  0.14869046887E-01 -0.18184491769E-01 -0.19522484695E-02  0.23570650613E-01  0.00000000000E+00 0. -1.
     999901    1    3    3    0    0 -0.84665412912E-01  0.12170247670E+00  0.20903874741E-01  0.89264589674E+00  0.88000000000E+00 0.  1.
        -11    1    4    4    0    0  0.56330129547E-01 -0.68966395183E-01 -0.16334558002E-01  0.90534667755E-01  0.51100000000E-03 0.  1.
         11    1    4    4    0    0  0.13466236478E-01 -0.34551589750E-01 -0.26170682701E-02  0.37178784897E-01  0.51100000000E-03 0. -1.
</event>
<event>
 8    1  0.9956970E+004  0.1043930E+01  0.7957747E-01            NaN
         13   -1    0    0    0    0  0.00000000000E+00  0.00000000000E+00  0.74505805969E-08  0.10566000000E+00  0.10566000000E+00 0. -1.
     999900   -1    0    0    0    0 -0.00000000000E+00 -0.00000000000E+00 -0.74505805969E-08  0.93827000000E+00  0.93827000000E+00 0. -1.
     999902    2    1    2    0    0  0.23232456927E-01  0.69019045766E-04  0.51730705233E-02  0.10201284774E+01  0.10198507724E+01 0.  0.
     999903    2    3    3    0    0 -0.74319667735E-01 -0.63612913911E-01  0.81920717253E-01  0.12913913580E+00  0.19897151814E-01 0.  0.
         14    1    1    2    0    0 -0.23232456927E-01 -0.69019045766E-04 -0.51730705233E-02  0.23801522580E-01  0.00000000000E+00 0.  1.
     999901    1    3    3    0    0  0.97552124661E-01  0.63681932956E-01 -0.76747646729E-01  0.89098934163E+00  0.88000000000E+00 0. -1.
        -11    1    4    4    0    0 -0.46130665537E-01 -0.49611019172E-01  0.49142909421E-01  0.83693358121E-01  0.51100000000E-03 0. -1.
         11    1    4    4    0    0 -0.28189002198E-01 -0.14001894738E-01  0.32777807831E-01  0.45445777674E-01  0.51100000000E-03 0.  1.
</event>
<event>
 8    1  0.9956970E+004  0.1043930E+01  0.7957747E-01            NaN
         13   -1    0    0    0    0  0.00000000000E+00  0.00000000000E+00  0.74505805969E-08  0.10566000000E+00  0.10566000000E+00 0. -1.
     999900   -1    0    0    0    0 -0.00000000000E+00 -0.00000000000E+00 -0.74505805969E-08  0.93827000000E+00  0.93827000000E+00 0.  1.
     999902    2    1    2    0    0  0.82519640847E-02  0.10007760844E-01 -0.20049534331E-01  0.10200504268E+01  0.10197708759E+01 0.  0.
     999903    2    3    3    0    0 -0.89735192302E-02 -0.10667749520E+00  0.67056084998E-01  0.12791839894E+00  0.20149099800E-01 0.  0.
         14    1    1    2    0    0 -0.82519640847E-02 -0.10007760844E-01  0.20049534331E-01  0.23879573180E-01  0.00000000000E+00 0. -1.
     999901    1    3    3    0    0  0.17225483315E-01  0.11668525604E+00 -0.87105619329E-01  0.89213202788E+00  0.88000000000E+00 0.  1.
        -11    1    4    4    0    0 -0.70728933881E-02 -0.73937163525E-01  0.56952833789E-01  0.93598164344E-01  0.51100000000E-03 0. -1.
         11    1    4    4    0    0 -0.19006258421E-02 -0.32740331673E-01  0.10103251209E-01  0.34320234594E-01  0.51100000000E-03 0.  1.
</event>
<event>
 8    1  0.1119487E+005  0.1043930E+01  0.7957747E-01            NaN
         13   -1    0    0    0    0  0.00000000000E+00  0.00000000000E+00  0.74505805969E-08  0.10566000000E+00  0.10566000000E+00 0.  1.
     999900   -1    0    0    0    0 -0.00000000000E+00 -0.00000000000E+00 -0.74505805969E-08  0.93827000000E+00  0.93827000000E+00 0.  1.
     999902    2    1    2    0    0  0.10444720330E-01 -0.21472683380E-01  0.86521553108E-02  0.10185325965E+01  0.10182159015E+01 0.  0.
     999903    2    3    3    0    0  0.56347621719E-01 -0.10505692248E+00 -0.53351407599E-01  0.13121199872E+00  0.12577936335E-01 0.  0.
         14    1    1    2    0    0 -0.10444720330E-01  0.21472683380E-01 -0.86521553108E-02  0.25397403525E-01  0.00000000000E+00 0. -1.
     999901    1    3    3    0    0 -0.45902901389E-01  0.83584239097E-01  0.62003562910E-01  0.88732059775E+00  0.88000000000E+00 0. -1.
        -11    1    4    4    0    0  0.31736310618E-01 -0.62165614404E-01 -0.24599150653E-01  0.74007677708E-01  0.51100000000E-03 0. -1.
         11    1    4    4    0    0  0.24611311101E-01 -0.42891308072E-01 -0.28752256946E-01  0.57204321015E-01  0.51100000000E-03 0.  1.
</event>
<event>
 8    1  0.9956970E+004  0.1043930E+01  0.7957747E-01            NaN
         13   -1    0    0    0    0  0.00000000000E+00  0.00000000000E+00  0.74505805969E-08  0.10566000000E+00  0.10566000000E+00 0.  1.
     999900   -1    0    0    0    0 -0.00000000000E+00 -0.00000000000E+00 -0.74505805969E-08  0.93827000000E+00  0.93827000000E+00 0.  1.
     999902    2    1    2    0    0 -0.20727282882E-03 -0.13687280142E-01  0.17094837367E-01  0.10220298159E+01  0.10217951490E+01 0.  0.
     999903    2    3    3    0    0  0.30240219023E-01  0.97524038348E-01 -0.77047365466E-01  0.12952896912E+00  0.20397264856E-01 0.  0.
         14    1    1    2    0    0  0.20727282882E-03  0.13687280142E-01 -0.17094837367E-01  0.21900184116E-01  0.00000000000E+00 0. -1.
     999901    1    3    3    0    0 -0.30447491852E-01 -0.11121131849E+00  0.94142202833E-01  0.89250084676E+00  0.88000000000E+00 0. -1.
        -11    1    4    4    0    0  0.24984796767E-01  0.70294346386E-01 -0.44916043449E-01  0.87081842444E-01  0.51100000000E-03 0. -1.
         11    1    4    4    0    0  0.52554222556E-02  0.27229691962E-01 -0.32131322017E-01  0.42447126675E-01  0.51100000000E-03 0.  1.
</event>
<event>
 8    1  0.9956970E+004  0.1043930E+01  0.7957747E-01            NaN
         13   -1    0    0    0    0  0.00000000000E+00  0.00000000000E+00  0.74505805969E-08  0.10566000000E+00  0.10566000000E+00 0. -1.
     999900   -1    0    0    0    0 -0.00000000000E+00 -0.00000000000E+00 -0.74505805969E-08  0.93827000000E+00  0.93827000000E+00 0. -1.
     999902    2    1    2    0    0 -0.17244675978E-01 -0.11290788565E-01  0.12170848431E-01  0.10199927840E+01  0.10197118658E+01 0.  0.
     999903    2    3    3    0    0  0.69117285145E-01 -0.17108129394E-01  0.10744069132E+00  0.13062864448E+00  0.21223887727E-01 0.  0.
         14    1    1    2    0    0  0.17244675978E-01  0.11290788565E-01 -0.12170848431E-01  0.23937215952E-01  0.00000000000E+00 0.  1.
     999901    1    3    3    0    0 -0.86361961123E-01  0.58173408293E-02 -0.95269842890E-01  0.88936413957E+00  0.88000000000E+00 0. -1.
        -11    1    4    4    0    0  0.40523561884E-01  0.80291579383E-03  0.57115716773E-01  0.70037632492E-01  0.51100000000E-03 0. -1.
         11    1    4    4    0    0  0.28593723261E-01 -0.17911045188E-01  0.50324974548E-01  0.60591011989E-01  0.51100000000E-03 0.  1.
</event>
<event>
 8    1  0.9956970E+004  0.1043930E+01  0.7957747E-01            NaN
         13   -1    0    0    0    0  0.00000000000E+00  0.00000000000E+00  0.74505805969E-08  0.10566000000E+00  0.10566000000E+00 0. -1.
     999900   -1    0    0    0    0 -0.00000000000E+00 -0.00000000000E+00 -0.74505805969E-08  0.93827000000E+00  0.93827000000E+00 0. -1.
     999902    2    1    2    0    0  0.46049537666E-02  0.17450497065E-02 -0.23112161695E-01  0.10202990285E+01  0.10200253353E+01 0.  0.
     999903    2    3    3    0    0 -0.24524961489E-01 -0.50163283281E-01 -0.11920130380E+00  0.13306954843E+00  0.19512179955E-01 0.  0.
         14    1    1    2    0    0 -0.46049537666E-02 -0.17450497065E-02  0.23112161695E-01  0.23630971539E-01  0.00000000000E+00 0. -1.
     999901    1    3    3    0    0  0.29129915256E-01  0.51908332988E-01  0.96089142109E-01  0.88722948003E+00  0.88000000000E+00 0.  1.
        -11    1    4    4    0    0  0.23493063908E-02 -0.13223202979E-01 -0.25525746194E-01  0.28847827948E-01  0.51100000000E-03 0. -1.
         11    1    4    4    0    0 -0.26874267880E-01 -0.36940080302E-01 -0.93675557609E-01  0.10422172049E+00  0.51100000000E-03 0.  1.
</event>
<event>
 8    1  0.9956970E+004  0.1043930E+01  0.7957747E-01            NaN
         13   -1    0    0    0    0  0.00000000000E+00  0.00000000000E+00  0.74505805969E-08  0.10566000000E+00  0.10566000000E+00 0. -1.
     999900   -1    0    0    0    0 -0.00000000000E+00 -0.00000000000E+00 -0.74505805969E-08  0.93827000000E+00  0.93827000000E+00 0.  1.
     999902    2    1    2    0    0  0.13625177351E-01 -0.13297832056E-01  0.15172602790E-01  0.10195848635E+01  0.10192941716E+01 0.  0.
     999903    2    3    3    0    0 -0.17887076291E-01  0.92397496021E-01 -0.83237731650E-01  0.12725694260E+00  0.20212983485E-01 0.  0.
         14    1    1    2    0    0 -0.13625177351E-01  0.13297832056E-01 -0.15172602790E-01  0.24345136488E-01  0.00000000000E+00 0. -1.
     999901    1    3    3    0    0  0.31512253642E-01 -0.10569532808E+00  0.98410334440E-01  0.89232792091E+00  0.88000000000E+00 0. -1.
        -11    1    4    4    0    0  0.30566864175E-02  0.35320179590E-01 -0.30217208060E-01  0.46585396876E-01  0.51100000000E-03 0.  1.
         11    1    4    4    0    0 -0.20943762708E-01  0.57077316431E-01 -0.53020523590E-01  0.80671545728E-01  0.51100000000E-03 0. -1.
</event>
<event>
 8    1  0.9956970E+004  0.1043930E+01  0.7957747E-01            NaN
         13   -1    0    0    0    0  0.00000000000E+00  0.00000000000E+00  0.74505805969E-08  0.10566000000E+00  0.10566000000E+00 0.  1.
     999900   -1    0    0    0    0 -0.00000000000E+00 -0.00000000000E+00 -0.74505805969E-08  0.93827000000E+00  0.93827000000E+00 0. -1.
     999902    2    1    2    0    0  0.41026850645E-02 -0.24104553939E-01  0.27613719925E-02  0.10193233602E+01  0.10190263127E+01 0.  0.
     999903    2    3    3    0    0  0.63694403689E-01  0.30349915981E-01 -0.10469337731E+00  0.12911945922E+00  0.27074656725E-01 0.  0.
         14    1    1    2    0    0 -0.41026850645E-02  0.24104553939E-01 -0.27613719925E-02  0.24606639767E-01  0.00000000000E+00 0. -1.
     999901    1    3    3    0    0 -0.59591718625E-01 -0.54454469920E-01  0.10745474930E+00  0.89020390101E+00  0.88000000000E+00 0.  1.
        -11    1    4    4    0    0  0.25446903023E-01  0.27089629758E-01 -0.50361057549E-01  0.62593051949E-01  0.51100000000E-03 0.  1.
         11    1    4    4    0    0  0.38247500666E-01  0.32602862226E-02 -0.54332319760E-01  0.66526407275E-01  0.51100000000E-03 0. -1.
</event>
<event>
 8    1  0.9956970E+004  0.1043930E+01  0.7957747E-01            NaN
         13   -1    0    0    0    0  0.00000000000E+00  0.00000000000E+00  0.74505805969E-08  0.10566000000E+00  0.10566000000E+00 0. -1.
     999900   -1    0    0    0    0 -0.00000000000E+00 -0.00000000000E+00 -0.74505805969E-08  0.93827000000E+00  0.93827000000E+00 0.  1.
     999902    2    1    2    0    0 -0.22523204200E-01 -0.31285798666E-02 -0.13926492048E-01  0.10172648557E+01  0.10169153144E+01 0.  0.
     999903    2    3    3    0    0  0.70800602228E-01  0.23375101022E-03  0.10098760109E+00  0.12489391999E+00  0.19677798688E-01 0.  0.
         14    1    1    2    0    0  0.22523204200E-01  0.31285798666E-02  0.13926492048E-01  0.26665144293E-01  0.00000000000E+00 0.  1.
     999901    1    3    3    0    0 -0.93323806427E-01 -0.33623308768E-02 -0.11491409314E+00  0.89237093572E+00  0.88000000000E+00 0.  1.
        -11    1    4    4    0    0  0.62294801665E-01  0.63287817455E-02  0.90661727328E-01  0.11018396306E+00  0.51100000000E-03 0.  1.
         11    1    4    4    0    0  0.85058005630E-02 -0.60950307353E-02  0.10325873759E-01  0.14709956926E-01  0.51100000000E-03 0. -1.
</event>
<event>
 8    1  0.9956970E+004  0.1043930E+01  0.7957747E-01            NaN
         13   -1    0    0    0    0  0.00000000000E+00  0.00000000000E+00  0.74505805969E-08  0.10566000000E+00  0.10566000000E+00 0.  1.
     999900   -1    0    0    0    0 -0.00000000000E+00 -0.00000000000E+00 -0.74505805969E-08  0.93827000000E+00  0.93827000000E+00 0.  1.
     999902    2    1    2    0    0  0.17676381346E-01  0.13947971271E-01 -0.61450754772E-02  0.10205898562E+01  0.10203229353E+01 0.  0.
     999903    2    3    3    0    0  0.33795781266E-01  0.16952158000E-01 -0.12456279621E+00  0.13250674253E+00  0.24751083337E-01 0.  0.
         14    1    1    2    0    0 -0.17676381346E-01 -0.13947971271E-01  0.61450754772E-02  0.23340143802E-01  0.00000000000E+00 0. -1.
     999901    1    3    3    0    0 -0.16119399920E-01 -0.30041867284E-02  0.11841772073E+00  0.88808311366E+00  0.88000000000E+00 0. -1.
        -11    1    4    4    0    0  0.17831689390E-01  0.22106523854E-01 -0.78076426882E-01  0.83083434565E-01  0.51100000000E-03 0. -1.
         11    1    4    4    0    0  0.15964091875E-01 -0.51543658547E-02 -0.46486369324E-01  0.49423307970E-01  0.51100000000E-03 0.  1.
</event>
<event>
 7    1  0.9956970E+004  0.1043930E+01  0.7957747E-01            NaN
         13   -1    0    0    0    0  0.00000000000E+00  0.00000000000E+00  0.74505805969E-08  0.10566000000E+00  0.10566000000E+00 0. -1.
     999900   -1    0    0    0    0 -0.00000000000E+00 -0.00000000000E+00 -0.74505805969E-08  0.93827000000E+00  0.93827000000E+00 0.  1.
     999902    2    1    2    0    0 -0.18990250479E-01 -0.10490007613E-01  0.96070646925E-02  0.10202031046E+01  0.10199271587E+01 0.  0.
         14    1    1    2    0    0  0.18990250479E-01  0.10490007613E-01 -0.96070646925E-02  0.23726895392E-01  0.00000000000E+00 0.  1.
     999901    1    3    3    0    0 -0.12959585360E+00 -0.95664249907E-02  0.73193824336E-01  0.89254912340E+00  0.88000000000E+00 0. -1.
        -11    1    3    3    0    0  0.70752820924E-01 -0.22593594374E-02 -0.41857959201E-01  0.82239991751E-01  0.51100000000E-03 0. -1.
         11    1    3    3    0    0  0.39852782201E-01  0.13357768152E-02 -0.21728800442E-01  0.45413989458E-01  0.51100000000E-03 0.  1.
</event>
<event>
 8    1  0.9956970E+004  0.1043930E+01  0.7957747E-01            NaN
         13   -1    0    0    0    0  0.00000000000E+00  0.00000000000E+00  0.74505805969E-08  0.10566000000E+00  0.10566000000E+00 0. -1.
     999900   -1    0    0    0    0 -0.00000000000E+00 -0.00000000000E+00 -0.74505805969E-08  0.93827000000E+00  0.93827000000E+00 0.  1.
     999902    2    1    2    0    0 -0.13147006015E-01 -0.61862356337E-02 -0.19423635624E-01  0.10196732298E+01  0.10193846697E+01 0.  0.
     999903    2    3    3    0    0  0.12333799929E+00 -0.27945633129E-01 -0.14048450815E-01  0.12886992905E+00  0.20417619000E-01 0.  0.
         14    1    1    2    0    0  0.13147006015E-01  0.61862356337E-02  0.19423635624E-01  0.24256770175E-01  0.00000000000E+00 0. -1.
     999901    1    3    3    0    0 -0.13648500530E+00  0.21759397495E-01 -0.53751848084E-02  0.89080330077E+00  0.88000000000E+00 0.  1.
        -11    1    4    4    0    0  0.70439737983E-01 -0.60004727258E-02 -0.48375500433E-02  0.70862016423E-01  0.51100000000E-03 0.  1.
         11    1    4    4    0    0  0.52898261302E-01 -0.21945160403E-01 -0.92109007721E-02  0.58007912632E-01  0.51100000000E-03 0. -1.
</event>
<event>
 8    1  0.9956970E+004  0.1043930E+01  0.7957747E-01            NaN
         13   -1    0    0    0    0  0.00000000000E+00  0.00000000000E+00  0.74505805969E-08  0.10566000000E+00  0.10566000000E+00 0. -1.
     999900   -1    0    0    0    0 -0.00000000000E+00 -0.00000000000E+00 -0.74505805969E-08  0.93827000000E+00  0.93827000000E+00 0.  1.
     999902    2    1    2    0    0 -0.85324390650E-02 -0.21053731824E-01 -0.17685828104E-01  0.10151402335E+01  0.10147319070E+01 0.  0.
     999903    2    3    3    0    0 -0.27338271527E-01 -0.79020067827E-01 -0.96791136515E-01  0.12949278373E+00  0.20206551429E-01 0.  0.
         14    1    1    2    0    0  0.85324390650E-02  0.21053731824E-01  0.17685828104E-01  0.28789766512E-01  0.00000000000E+00 0. -1.
     999901    1    3    3    0    0  0.18805832462E-01  0.57966336004E-01  0.79105308411E-01  0.88564744976E+00  0.88000000000E+00 0. -1.
        -11    1    4    4    0    0 -0.21158530627E-01 -0.32148890739E-01 -0.48397980906E-01  0.61837369534E-01  0.51100000000E-03 0. -1.
         11    1    4    4    0    0 -0.61797408994E-02 -0.46871177089E-01 -0.48393155609E-01  0.67655414196E-01  0.51100000000E-03 0.  1.
</event>
<event>
 8    1  0.9956970E+004  0.1043930E+01  0.7957747E-01            NaN
         13   -1    0    0    0    0  0.00000000000E+00  0.00000000000E+00  0.74505805969E-08  0.10566000000E+00  0.10566000000E+00 0.  1.
     999900   -1    0    0    0    0 -0.00000000000E+00 -0.00000000000E+00 -0.74505805969E-08  0.93827000000E+00  0.93827000000E+00 0.  1.
     999902    2    1    2    0    0  0.10501364902E-01  0.20955024438E-01  0.25699201463E-02  0.10203504283E+01  0.10200779383E+01 0.  0.
     999903    2    3    3    0    0 -0.22400603904E-02 -0.67203667233E-01 -0.10816822353E+00  0.12894859109E+00  0.20150032336E-01 0.  0.
         14    1    1    2    0    0 -0.10501364902E-01 -0.20955024438E-01 -0.25699201463E-02  0.23579571742E-01  0.00000000000E+00 0. -1.
     999901    1    3    3    0    0  0.12741425292E-01  0.88158691670E-01  0.11073814368E+00  0.89140183716E+00  0.88000000000E+00 0. -1.
        -11    1    4    4    0    0 -0.10081102417E-01 -0.53095037384E-01 -0.83224203409E-01  0.99233264457E-01  0.51100000000E-03 0.  1.
         11    1    4    4    0    0  0.78410420268E-02 -0.14108629849E-01 -0.24944020122E-01  0.29715326637E-01  0.51100000000E-03 0. -1.
</event>
<event>
 8    1  0.9956970E+004  0.1043930E+01  0.7957747E-01            NaN
         13   -1    0    0    0    0  0.00000000000E+00  0.00000000000E+00  0.74505805969E-08  0.10566000000E+00  0.10566000000E+00 0.  1.
     999900   -1    0    0    0    0 -0.00000000000E+00 -0.00000000000E+00 -0.74505805969E-08  0.93827000000E+00  0.93827000000E+00 0. -1.
     999902    2    1    2    0    0  0.16846876041E-02 -0.21390570643E-01 -0.10996613154E-01  0.10198194176E+01  0.10195343664E+01 0.  0.
     999903    2    3    3    0    0  0.49321240100E-01 -0.10538446953E+00  0.54294226478E-01  0.13213303717E+00  0.31189827511E-01 0.  0.
         14    1    1    2    0    0 -0.16846876041E-02  0.21390570643E-01  0.10996613154E-01  0.24110582440E-01  0.00000000000E+00 0.  1.
     999901    1    3    3    0    0 -0.47636552496E-01  0.83993898890E-01 -0.65290839632E-01  0.88768638039E+00  0.88000000000E+00 0. -1.
        -11    1    4    4    0    0  0.25706942415E-01 -0.22978069368E-01  0.11737016671E-01  0.36426051687E-01  0.51100000000E-03 0.  1.
         11    1    4    4    0    0  0.23614297685E-01 -0.82406400164E-01  0.42557209808E-01  0.95706985486E-01  0.51100000000E-03 0. -1.
</event>
<event>
 8    1  0.9956970E+004  0.1043930E+01  0.7957747E-01            NaN
         13   -1    0    0    0    0  0.00000000000E+00  0.00000000000E+00  0.74505805969E-08  0.10566000000E+00  0.10566000000E+00 0.  1.
     999900   -1    0    0    0    0 -0.00000000000E+00 -0.00000000000E+00 -0.74505805969E-08  0.93827000000E+00  0.93827000000E+00 0.  1.
     999902    2    1    2    0    0  0.54050128227E-02 -0.19826558645E-01 -0.21780213900E-03  0.10233787463E+01  0.10231723727E+01 0.  0.
     999903    2    3    3    0    0 -0.12362107536E+00 -0.13080059928E-01  0.42595415962E-01  0.13291469967E+00  0.19967215298E-01 0.  0.
         14    1    1    2    0    0 -0.54050128227E-02  0.19826558645E-01  0.21780213900E-03  0.20551253710E-01  0.00000000000E+00 0. -1.
     999901    1    3    3    0    0  0.12902608818E+00 -0.67464987168E-02 -0.42813218101E-01  0.89046404662E+00  0.88000000000E+00 0.  1.
        -11    1    4    4    0    0 -0.43082202879E-01  0.37302169203E-02  0.19633778175E-01  0.47494600636E-01  0.51100000000E-03 0.  1.
         11    1    4    4    0    0 -0.80538872481E-01 -0.16810276848E-01  0.22961637787E-01  0.85420099034E-01  0.51100000000E-03 0. -1.
</event>
<event>
 8    1  0.9956970E+004  0.1043930E+01  0.7957747E-01            NaN
         13   -1    0    0    0    0  0.00000000000E+00  0.00000000000E+00  0.74505805969E-08  0.10566000000E+00  0.10566000000E+00 0. -1.
     999900   -1    0    0    0    0 -0.00000000000E+00 -0.00000000000E+00 -0.74505805969E-08  0.93827000000E+00  0.93827000000E+00 0.  1.
     999902    2    1    2    0    0  0.75698970445E-02  0.89674131262E-02  0.20359124257E-01  0.10204308132E+01  0.10201601996E+01 0.  0.
     999903    2    3    3    0    0  0.29822447087E-01  0.12588433616E+00 -0.15108850144E-01  0.13171110482E+00  0.19577878812E-01 0.  0.
         14    1    1    2    0    0 -0.75698970445E-02 -0.89674131262E-02 -0.20359124257E-01  0.23499186794E-01  0.00000000000E+00 0. -1.
     999901    1    3    3    0    0 -0.22252550042E-01 -0.11691692303E+00  0.35467974401E-01  0.88871970839E+00  0.88000000000E+00 0.  1.
        -11    1    4    4    0    0  0.27787242836E-01  0.82492431468E-01 -0.14609110748E-01  0.88265618175E-01  0.51100000000E-03 0. -1.
         11    1    4    4    0    0  0.20352042513E-02  0.43391904690E-01 -0.49973939564E-03  0.43445486640E-01  0.51100000000E-03 0.  1.
</event>
<event>
 8    1  0.9956970E+004  0.1043930E+01  0.7957747E-01            NaN
         13   -1    0    0    0    0  0.00000000000E+00  0.00000000000E+00  0.74505805969E-08  0.10566000000E+00  0.10566000000E+00 0. -1.
     999900   -1    0    0    0    0 -0.00000000000E+00 -0.00000000000E+00 -0.74505805969E-08  0.93827000000E+00  0.93827000000E+00 0.  1.
     999902    2    1    2    0    0 -0.74651713493E-02 -0.56217544740E-02  0.22169561955E-01  0.10198712722E+01  0.10195874604E+01 0.  0.
     999903    2    3    3    0    0 -0.37379886853E-01 -0.53426812169E-01 -0.10871483546E+00  0.12840565915E+00  0.20430801576E-01 0.  0.
         14    1    1    2    0    0  0.74651713493E-02  0.56217544740E-02 -0.22169561955E-01  0.24058727812E-01  0.00000000000E+00 0.  1.
     999901    1    3    3    0    0  0.29914715503E-01  0.47805057695E-01  0.13088439741E+00  0.89146561304E+00  0.88000000000E+00 0. -1.
        -11    1    4    4    0    0 -0.19280843518E-01 -0.32511400050E-01 -0.43892758938E-01  0.57927346462E-01  0.51100000000E-03 0. -1.
         11    1    4    4    0    0 -0.18099043334E-01 -0.20915412120E-01 -0.64822076521E-01  0.70478312687E-01  0.51100000000E-03 0.  1.
</event>
<event>
 8    1  0.9956970E+004  0.1043930E+01  0.7957747E-01            NaN
         13   -1    0    0    0    0  0.00000000000E+00  0.00000000000E+00  0.74505805969E-08  0.10566000000E+00  0.10566000000E+00 0.  1.
     999900   -1    0    0    0    0 -0.00000000000E+00 -0.00000000000E+00 -0.74505805969E-08  0.93827000000E+00  0.93827000000E+00 0. -1.
     999902    2    1    2    0    0 -0.14311828906E-02  0.11698178164E-01  0.20537413205E-01  0.10202512965E+01  0.10199764836E+01 0.  0.
     999903    2    3    3    0    0 -0.64631867198E-01  0.66266261956E-01  0.93654221988E-01  0.13328000613E+00  0.20590070598E-01 0.  0.
         14    1    1    2    0    0  0.14311828906E-02 -0.11698178164E-01 -0.20537413205E-01  0.23678703469E-01  0.00000000000E+00 0. -1.
     999901    1    3    3    0    0  0.63200684307E-01 -0.54568083792E-01 -0.73116808783E-01  0.88697129040E+00  0.88000000000E+00 0. -1.
        -11    1    4    4    0    0 -0.39542675534E-01  0.28114425096E-01  0.55967755329E-01  0.74072227214E-01  0.51100000000E-03 0.  1.
         11    1    4    4    0    0 -0.25089191664E-01  0.38151836860E-01  0.37686466659E-01  0.59207778918E-01  0.51100000000E-03 0. -1.
</event>
<event>
 8    1  0.9956970E+004  0.1043930E+01  0.7957747E-01            NaN
         13   -1    0    0    0    0  0.00000000000E+00  0.00000000000E+00  0.74505805969E-08  0.10566000000E+00  0.10566000000E+00 0. -1.
     999900   -1    0    0    0    0 -0.00000000000E+00 -0.00000000000E+00 -0.74505805969E-08  0.93827000000E+00  0.93827000000E+00 0.  1.
     999902    2    1    2    0    0  0.13861689511E-01 -0.19716451979E-01 -0.54327459749E-02  0.10192237327E+01  0.10189242453E+01 0.  0.
     999903    2    3    3    0    0  0.11811113601E+00  0.50155270045E-01 -0.11203441115E-01  0.13030117952E+00  0.19674570624E-01 0.  0.
         14    1    1    2    0    0 -0.13861689511E-01  0.19716451979E-01  0.54327459749E-02  0.24706267293E-01  0.00000000000E+00 0.  1.
     999901    1    3    3    0    0 -0.10424944650E+00 -0.69871722023E-01  0.57706951397E-02  0.88892255318E+00  0.88000000000E+00 0. -1.
        -11    1    4    4    0    0  0.21076052045E-01  0.37851514837E-02  0.36685419098E-02  0.21731237018E-01  0.51100000000E-03 0.  1.
         11    1    4    4    0    0  0.97035083967E-01  0.46370118561E-01 -0.14871983024E-01  0.10856994251E+00  0.51100000000E-03 0. -1.
</event>
<event>
 8    1  0.9956970E+004  0.1043930E+01  0.7957747E-01            NaN
         13   -1    0    0    0    0  0.00000000000E+00  0.00000000000E+00  0.74505805969E-08  0.10566000000E+00  0.10566000000E+00 0. -1.
     999900   -1    0    0    0    0 -0.00000000000E+00 -0.00000000000E+00 -0.74505805969E-08  0.93827000000E+00  0.93827000000E+00 0.  1.
     999902    2    1    2    0    0 -0.11935007515E-01 -0.20711798289E-01 -0.69043106007E-02  0.10190484306E+01  0.10187446252E+01 0.  0.
     999903    2    3    3    0    0 -0.31998641487E-01  0.41244887235E-01  0.11535185647E+00  0.12821300767E+00  0.20185905102E-01 0.  0.
         14    1    1    2    0    0  0.11935007515E-01  0.20711798289E-01  0.69043106007E-02  0.24881569436E-01  0.00000000000E+00 0.  1.
     999901    1    3    3    0    0  0.20063633972E-01 -0.61956685524E-01 -0.12225616707E+00  0.89083542289E+00  0.88000000000E+00 0.  1.
        -11    1    4    4    0    0 -0.92141737439E-02  0.21237988540E-01  0.69356068882E-01  0.73119618207E-01  0.51100000000E-03 0. -1.
         11    1    4    4    0    0 -0.22784467743E-01  0.20006898695E-01  0.45995787592E-01  0.55093389466E-01  0.51100000000E-03 0.  1.
</event>
<event>
 8    1  0.9956970E+004  0.1043930E+01  0.7957747E-01            NaN
         13   -1    0    0    0    0  0.00000000000E+00  0.00000000000E+00  0.74505805969E-08  0.10566000000E+00  0.10566000000E+00 0. -1.
     999900   -1    0    0    0    0 -0.00000000000E+00 -0.00000000000E+00 -0.74505805969E-08  0.93827000000E+00  0.93827000000E+00 0. -1.
     999902    2    1    2    0    0 -0.68134819497E-03  0.23038600220E-01  0.47686422215E-02  0.10203931930E+01  0.10201217021E+01 0.  0.
     999903    2    3    3    0    0 -0.87730794505E-01  0.60727859819E-01 -0.74841066343E-01  0.13172239225E+00  0.19105971486E-01 0.  0.
         14    1    1    2    0    0  0.68134819497E-03 -0.23038600220E-01 -0.47686422215E-02  0.23536807007E-01  0.00000000000E+00 0.  1.
     999901    1    3    3    0    0  0.87049446310E-01 -0.37689259599E-01  0.79609708565E-01  0.88867080074E+00  0.88000000000E+00 0.  1.
        -11    1    4    4    0    0 -0.57391836281E-01  0.34165386353E-01 -0.56217076828E-01  0.87302447528E-01  0.51100000000E-03 0.  1.
         11    1    4    4    0    0 -0.30338958224E-01  0.26562473466E-01 -0.18623989515E-01  0.44419944723E-01  0.51100000000E-03 0. -1.
</event>
<event>
 8    1  0.9956970E+004  0.1043930E+01  0.7957747E-01            NaN
         13   -1    0    0    0    0  0.00000000000E+00  0.00000000000E+00  0.74505805969E-08  0.10566000000E+00  0.10566000000E+00 0. -1.
     999900   -1    0    0    0    0 -0.00000000000E+00 -0.00000000000E+00 -0.74505805969E-08  0.93827000000E+00  0.93827000000E+00 0. -1.
     999902    2    1    2    0    0  0.20111317981E-01  0.79615478488E-02 -0.11755698751E-01  0.10193119617E+01  0.10190146356E+01 0.  0.
     999903    2    3    3    0    0  0.11885885330E+00 -0.48536112146E-01 -0.22330164546E-01  0.13192541651E+00  0.20554758127E-01 0.  0.
         14    1    1    2    0    0 -0.20111317981E-01 -0.79615478488E-02  0.11755698751E-01  0.24618038269E-01  0.00000000000E+00 0. -1.
     999901    1    3    3    0    0 -0.98747535321E-01  0.56497659995E-01  0.10574465795E-01  0.88738654522E+00  0.88000000000E+00 0.  1.
        -11    1    4    4    0    0  0.46166487607E-01 -0.29570271420E-01 -0.11518177996E-01  0.56023879509E-01  0.51100000000E-03 0. -1.
         11    1    4    4    0    0  0.72692365694E-01 -0.18965840726E-01 -0.10811986550E-01  0.75901536999E-01  0.51100000000E-03 0.  1.
</event>
<event>
 8    1  0.9956970E+004  0.1043930E+01  0.7957747E-01            NaN
         13   -1    0    0    0    0  0.00000000000E+00  0.00000000000E+00  0.74505805969E-08  0.10566000000E+00  0.10566000000E+00 0. -1.
     999900   -1    0    0    0    0 -0.00000000000E+00 -0.00000000000E+00 -0.74505805969E-08  0.93827000000E+00  0.93827000000E+00 0. -1.
     999902    2    1    2    0    0  0.26253498964E-02 -0.21402016243E-01 -0.10928303375E-01  0.10197563247E+01  0.10194697618E+01 0.  0.
     999903    2    3    3    0    0 -0.27854818204E-01 -0.59847822533E-01  0.11061964640E+00  0.13004793163E+00  0.17835514890E-01 0.  0.
         14    1    1    2    0    0 -0.26253498964E-02  0.21402016243E-01  0.10928303375E-01  0.24173675269E-01  0.00000000000E+00 0.  1.
     999901    1    3    3    0    0  0.30480168100E-01  0.38445806289E-01 -0.12154794977E+00  0.88970839311E+00  0.88000000000E+00 0. -1.
        -11    1    4    4    0    0 -0.18914990085E-01 -0.30675378970E-01  0.74521574441E-01  0.82779719153E-01  0.51100000000E-03 0. -1.
         11    1    4    4    0    0 -0.89398281189E-02 -0.29172443563E-01  0.36098071958E-01  0.47268212473E-01  0.51100000000E-03 0.  1.
</event>
<event>
 8    1  0.1960174E+005  0.1043930E+01  0.7957747E-01            NaN
         13   -1    0    0    0    0  0.00000000000E+00  0.00000000000E+00  0.74505805969E-08  0.10566000000E+00  0.10566000000E+00 0. -1.
     999900   -1    0    0    0    0 -0.00000000000E+00 -0.00000000000E+00 -0.74505805969E-08  0.93827000000E+00  0.93827000000E+00 0.  1.
     999902    2    1    2    0    0 -0.11652686365E-01 -0.59266211420E-02 -0.19201765385E-01  0.10207003265E+01  0.10204359552E+01 0.  0.
     999903    2    3    3    0    0 -0.10507470463E+00  0.68154045815E-01  0.33357289956E-01  0.13110599590E+00  0.19758690598E-01 0.  0.
         14    1    1    2    0    0  0.11652686365E-01  0.59266211420E-02  0.19201765385E-01  0.23229673514E-01  0.00000000000E+00 0. -1.
     999901    1    3    3    0    0  0.93422018262E-01 -0.74080666957E-01 -0.52559055341E-01  0.88959433059E+00  0.88000000000E+00 0.  1.
        -11    1    4    4    0    0 -0.55485415515E-01  0.41148279146E-01  0.27432339738E-01  0.74327697368E-01  0.51100000000E-03 0.  1.
         11    1    4    4    0    0 -0.49589289112E-01  0.27005766669E-01  0.59249502178E-02  0.56778298531E-01  0.51100000000E-03 0. -1.
</event>
<event>
 8    1  0.9956970E+004  0.1043930E+01  0.7957747E-01            NaN
         13   -1    0    0    0    0  0.00000000000E+00  0.00000000000E+00  0.74505805969E-08  0.10566000000E+00  0.10566000000E+00 0.  1.
     999900   -1    0    0    0    0 -0.00000000000E+00 -0.00000000000E+00 -0.74505805969E-08  0.93827000000E+00  0.93827000000E+00 0.  1.
     999902    2    1    2    0    0  0.51333175264E-02 -0.24859053128E-02  0.24198544799E-01  0.10190683781E+01  0.10187650656E+01 0.  0.
     999903    2    3    3    0    0 -0.37803847272E-01  0.94344879501E-01 -0.73686511901E-01  0.12732778501E+00  0.21273825291E-01 0.  0.
         14    1    1    2    0    0 -0.51333175264E-02  0.24859053128E-02 -0.24198544799E-01  0.24861621919E-01  0.00000000000E+00 0. -1.
     999901    1    3    3    0    0  0.42937164799E-01 -0.96830784814E-01  0.97885056700E-01  0.89174059307E+00  0.88000000000E+00 0. -1.
        -11    1    4    4    0    0 -0.13037060161E-01  0.16679031164E-01 -0.80019996060E-02  0.22637317353E-01  0.51100000000E-03 0. -1.
         11    1    4    4    0    0 -0.24766787111E-01  0.77665848337E-01 -0.65684512295E-01  0.10469046766E+00  0.51100000000E-03 0.  1.
</event>
<event>
 8    1  0.9956970E+004  0.1043930E+01  0.7957747E-01            NaN
         13   -1    0    0    0    0  0.00000000000E+00  0.00000000000E+00  0.74505805969E-08  0.10566000000E+00  0.10566000000E+00 0.  1.
     999900   -1    0    0    0    0 -0.00000000000E+00 -0.00000000000E+00 -0.74505805969E-08  0.93827000000E+00  0.93827000000E+00 0. -1.
     999902    2    1    2    0    0 -0.24279027037E-01  0.13183040733E-02  0.12336868062E-04  0.10196152055E+01  0.10193252464E+01 0.  0.
     999903    2    3    3    0    0 -0.50137616329E-01 -0.46851578594E-01 -0.10989988804E+00  0.13109413010E+00  0.19970842944E-01 0.  0.
         14    1    1    2    0    0  0.24279027037E-01 -0.13183040733E-02 -0.12336868062E-04  0.24314794502E-01  0.00000000000E+00 0.  1.
     999901    1    3    3    0    0  0.25858589292E-01  0.48169882668E-01  0.10991222491E+00  0.88852107539E+00  0.88000000000E+00 0.  1.
        -11    1    4    4    0    0 -0.23511408636E-01 -0.30000607202E-01 -0.74589063045E-01  0.83765220798E-01  0.51100000000E-03 0. -1.
         11    1    4    4    0    0 -0.26626207693E-01 -0.16850971392E-01 -0.35310824997E-01  0.47328909304E-01  0.51100000000E-03 0.  1.
</event>
<event>
 8    1  0.9956970E+004  0.1043930E+01  0.7957747E-01            NaN
         13   -1    0    0    0    0  0.00000000000E+00  0.00000000000E+00  0.74505805969E-08  0.10566000000E+00  0.10566000000E+00 0. -1.
     999900   -1    0    0    0    0 -0.00000000000E+00 -0.00000000000E+00 -0.74505805969E-08  0.93827000000E+00  0.93827000000E+00 0. -1.
     999902    2    1    2    0    0  0.59092008424E-02  0.53012053555E-02  0.22499385268E-01  0.10200711700E+01  0.10197921102E+01 0.  0.
     999903    2    3    3    0    0  0.72434243473E-01 -0.85543948298E-02 -0.10525806575E+00  0.12825306899E+00  0.70492553866E-02 0.  0.
         14    1    1    2    0    0 -0.59092008424E-02 -0.53012053555E-02 -0.22499385268E-01  0.23858830027E-01  0.00000000000E+00 0.  1.
     999901    1    3    3    0    0 -0.66525042631E-01  0.13855600185E-01  0.12775745102E+00  0.89181810098E+00  0.88000000000E+00 0.  1.
        -11    1    4    4    0    0  0.47736776467E-01 -0.23082205365E-02 -0.68204447091E-01  0.83284064703E-01  0.51100000000E-03 0. -1.
         11    1    4    4    0    0  0.24697467006E-01 -0.62461742933E-02 -0.37053618656E-01  0.44969004285E-01  0.51100000000E-03 0.  1.
</event>
<event>
 8    1  0.1121764E+005  0.1043930E+01  0.7957747E-01            NaN
         13   -1    0    0    0    0  0.00000000000E+00  0.00000000000E+00  0.74505805969E-08  0.10566000000E+00  0.10566000000E+00 0. -1.
     999900   -1    0    0    0    0 -0.00000000000E+00 -0.00000000000E+00 -0.74505805969E-08  0.93827000000E+00  0.93827000000E+00 0.  1.
     999902    2    1    2    0    0 -0.11693449606E-01  0.17234740711E-01  0.76558982336E-02  0.10217402314E+01  0.10214992485E+01 0.  0.
     999903    2    3    3    0    0 -0.50956961290E-01  0.69421397937E-01  0.10120563521E+00  0.13437524237E+00  0.19954517462E-01 0.  0.
         14    1    1    2    0    0  0.11693449606E-01 -0.17234740711E-01 -0.76558982336E-02  0.22189768561E-01  0.00000000000E+00 0.  1.
     999901    1    3    3    0    0  0.39263511684E-01 -0.52186657227E-01 -0.93549736978E-01  0.88736498907E+00  0.88000000000E+00 0.  1.
        -11    1    4    4    0    0 -0.27749364646E-01  0.21464671251E-01  0.38417973537E-01  0.52028464919E-01  0.51100000000E-03 0.  1.
         11    1    4    4    0    0 -0.23207596644E-01  0.47956726686E-01  0.62787661675E-01  0.82346777447E-01  0.51100000000E-03 0. -1.
</event>
<event>
 8    1  0.9956970E+004  0.1043930E+01  0.7957747E-01            NaN
         13   -1    0    0    0    0  0.00000000000E+00  0.00000000000E+00  0.74505805969E-08  0.10566000000E+00  0.10566000000E+00 0.  1.
     999900   -1    0    0    0    0 -0.00000000000E+00 -0.00000000000E+00 -0.74505805969E-08  0.93827000000E+00  0.93827000000E+00 0. -1.
     999902    2    1    2    0    0 -0.85611961389E-02 -0.23349101929E-01 -0.19004493667E-02  0.10189883411E+01  0.10186830483E+01 0.  0.
     999903    2    3    3    0    0  0.39978987410E-01 -0.81153730368E-02  0.12069872030E+00  0.12903397581E+00  0.20430543746E-01 0.  0.
         14    1    1    2    0    0  0.85611961389E-02  0.23349101929E-01  0.19004493667E-02  0.24941658887E-01  0.00000000000E+00 0.  1.
     999901    1    3    3    0    0 -0.48540183549E-01 -0.15233728892E-01 -0.12259916967E+00  0.88995436530E+00  0.88000000000E+00 0. -1.
        -11    1    4    4    0    0  0.18664504300E-01 -0.12567600612E-01  0.45781186542E-01  0.51014571135E-01  0.51100000000E-03 0. -1.
         11    1    4    4    0    0  0.21314483111E-01  0.44522275757E-02  0.74917533759E-01  0.78019404677E-01  0.51100000000E-03 0.  1.
</event>
<event>
 8    1  0.9956970E+004  0.1043930E+01  0.7957747E-01            NaN
         13   -1    0    0    0    0  0.00000000000E+00  0.00000000000E+00  0.74505805969E-08  0.10566000000E+00  0.10566000000E+00 0.  1.
     999900   -1    0    0    0    0 -0.00000000000E+00 -0.00000000000E+00 -0.74505805969E-08  0.93827000000E+00  0.93827000000E+00 0.  1.
     999902    2    1    2    0    0  0.16721998519E-01 -0.15072622740E-01 -0.63101353457E-02  0.10205499444E+01  0.10202820993E+01 0.  0.
     999903    2    3    3    0    0  0.19476307715E-01  0.44453573133E-02 -0.12895607090E+00  0.13182582341E+00  0.18689348073E-01 0.  0.
         14    1    1    2    0    0 -0.16721998519E-01  0.15072622740E-01  0.63101353457E-02  0.23380055578E-01  0.00000000000E+00 0.  1.
     999901    1    3    3    0    0 -0.27543091960E-02 -0.19517980053E-01  0.12264593555E+00  0.88872412101E+00  0.88000000000E+00 0. -1.
        -11    1    4    4    0    0  0.14376198698E-01  0.84088952558E-03 -0.37781566471E-01  0.40436246985E-01  0.51100000000E-03 0. -1.
         11    1    4    4    0    0  0.51001090177E-02  0.36044677877E-02 -0.91174504428E-01  0.91389576423E-01  0.51100000000E-03 0.  1.
</event>
<event>
 8    1  0.9956970E+004  0.1043930E+01  0.7957747E-01            NaN
         13   -1    0    0    0    0  0.00000000000E+00  0.00000000000E+00  0.74505805969E-08  0.10566000000E+00  0.10566000000E+00 0.  1.
     999900   -1    0    0    0    0 -0.00000000000E+00 -0.00000000000E+00 -0.74505805969E-08  0.93827000000E+00  0.93827000000E+00 0. -1.
     999902    2    1    2    0    0  0.14557041404E-01  0.17457253409E-01 -0.24962602588E-02  0.10210631142E+01  0.10208070281E+01 0.  0.
     999903    2    3    3    0    0 -0.94384742029E-01  0.52267682320E-01 -0.71583428583E-01  0.13097709871E+00  0.19759124374E-01 0.  0.
         14    1    1    2    0    0 -0.14557041404E-01 -0.17457253409E-01  0.24962602588E-02  0.22866885802E-01  0.00000000000E+00 0.  1.
     999901    1    3    3    0    0  0.10894178343E+00 -0.34810428912E-01  0.69087168324E-01  0.89008601549E+00  0.88000000000E+00 0.  1.
        -11    1    4    4    0    0 -0.21671162937E-01  0.13401424224E-01 -0.75449975693E-02  0.26578667830E-01  0.51100000000E-03 0.  1.
         11    1    4    4    0    0 -0.72713579091E-01  0.38866258096E-01 -0.64038431014E-01  0.10439843088E+00  0.51100000000E-03 0. -1.
</event>
<event>
 8    1  0.9956970E+004  0.1043930E+01  0.7957747E-01            NaN
         13   -1    0    0    0    0  0.00000000000E+00  0.00000000000E+00  0.74505805969E-08  0.10566000000E+00  0.10566000000E+00 0. -1.
     999900   -1    0    0    0    0 -0.00000000000E+00 -0.00000000000E+00 -0.74505805969E-08  0.93827000000E+00  0.93827000000E+00 0. -1.
     999902    2    1    2    0    0  0.23012420619E-01  0.61164380713E-02 -0.25481198746E-03  0.10201172461E+01  0.10198392759E+01 0.  0.
     999903    2    3    3    0    0 -0.90297998468E-01 -0.26540844643E-01  0.84690757627E-01  0.12819712696E+00  0.20095620732E-01 0.  0.
         14    1    1    2    0    0 -0.23012420619E-01 -0.61164380713E-02  0.25481198746E-03  0.23812753864E-01  0.00000000000E+00 0. -1.
     999901    1    3    3    0    0  0.11331041909E+00  0.32657282715E-01 -0.84945569614E-01  0.89192011917E+00  0.88000000000E+00 0.  1.
        -11    1    4    4    0    0 -0.49474732853E-01 -0.18704178175E-01  0.35075025723E-01  0.63467424893E-01  0.51100000000E-03 0.  1.
         11    1    4    4    0    0 -0.40823265615E-01 -0.78366664683E-02  0.49615731903E-01  0.64729702070E-01  0.51100000000E-03 0. -1.
</event>
<event>
 8    1  0.9956970E+004  0.1043930E+01  0.7957747E-01            NaN
         13   -1    0    0    0    0  0.00000000000E+00  0.00000000000E+00  0.74505805969E-08  0.10566000000E+00  0.10566000000E+00 0. -1.
     999900   -1    0    0    0    0 -0.00000000000E+00 -0.00000000000E+00 -0.74505805969E-08  0.93827000000E+00  0.93827000000E+00 0.  1.
     999902    2    1    2    0    0  0.10495004698E-01 -0.14633021891E-01  0.15444665936E-01  0.10202064219E+01  0.10199305540E+01 0.  0.
     999903    2    3    3    0    0 -0.95194282086E-02  0.12645659295E+00 -0.14052590671E-02  0.12858386893E+00  0.21211958482E-01 0.  0.
         14    1    1    2    0    0 -0.10495004698E-01  0.14633021891E-01 -0.15444665936E-01  0.23723578127E-01  0.00000000000E+00 0.  1.
     999901    1    3    3    0    0  0.20014432907E-01 -0.14108961484E+00  0.16849925003E-01  0.89162255294E+00  0.88000000000E+00 0.  1.
        -11    1    4    4    0    0 -0.12261162614E-01  0.35216469410E-01 -0.46447368137E-03  0.37296282431E-01  0.51100000000E-03 0.  1.
         11    1    4    4    0    0  0.27417344054E-02  0.91240123540E-01 -0.94078538574E-03  0.91287586501E-01  0.51100000000E-03 0. -1.
</event>
<event>
 8    1  0.9956970E+004  0.1043930E+01  0.7957747E-01            NaN
         13   -1    0    0    0    0  0.00000000000E+00  0.00000000000E+00  0.74505805969E-08  0.10566000000E+00  0.10566000000E+00 0.  1.
     999900   -1    0    0    0    0 -0.00000000000E+00 -0.00000000000E+00 -0.74505805969E-08  0.93827000000E+00  0.93827000000E+00 0. -1.
     999902    2    1    2    0    0 -0.19927611794E-01 -0.59504389753E-02  0.11422700019E-01  0.10202024735E+01  0.10199265128E+01 0.  0.
     999903    2    3    3    0    0  0.99269402977E-01  0.14194778664E-01 -0.73233494370E-01  0.12791304216E+00  0.30703347496E-01 0.  0.
         14    1    1    2    0    0  0.19927611794E-01  0.59504389753E-02 -0.11422700019E-01  0.23727526452E-01  0.00000000000E+00 0.  1.
     999901    1    3    3    0    0 -0.11919701477E+00 -0.20145217639E-01  0.84656194389E-01  0.89228943139E+00  0.88000000000E+00 0.  1.
        -11    1    4    4    0    0  0.42022100987E-01 -0.87339842259E-02 -0.25488692330E-01  0.49920677174E-01  0.51100000000E-03 0. -1.
         11    1    4    4    0    0  0.57247301989E-01  0.22928762890E-01 -0.47744802039E-01  0.77992364982E-01  0.51100000000E-03 0.  1.
</event>
<event>
 8    1  0.9956970E+004  0.1043930E+01  0.7957747E-01            NaN
         13   -1    0    0    0    0  0.00000000000E+00  0.00000000000E+00  0.74505805969E-08  0.10566000000E+00  0.10566000000E+00 0.  1.
     999900   -1    0    0    0    0 -0.00000000000E+00 -0.00000000000E+00 -0.74505805969E-08  0.93827000000E+00  0.93827000000E+00 0.  1.
     999902    2    1    2    0    0 -0.12287787914E-01  0.20507705892E-01  0.12116646854E-02  0.10199920831E+01  0.10197111482E+01 0.  0.
     999903    2    3    3    0    0 -0.10153969752E+00  0.65752158379E-01  0.51182856950E-01  0.13291255800E+00  0.20307799602E-01 0.  0.
         14    1    1    2    0    0  0.12287787914E-01 -0.20507705892E-01 -0.12116646854E-02  0.23937916870E-01  0.00000000000E+00 0. -1.
     999901    1    3    3    0    0  0.89251909605E-01 -0.45244452488E-01 -0.49971192265E-01  0.88707952513E+00  0.88000000000E+00 0.  1.
        -11    1    4    4    0    0 -0.46160363305E-01  0.36063761753E-01  0.15273961429E-01  0.60538657657E-01  0.51100000000E-03 0. -1.
         11    1    4    4    0    0 -0.55379334214E-01  0.29688396627E-01  0.35908895521E-01  0.72373900343E-01  0.51100000000E-03 0.  1.
</event>
<event>
 8    1  0.9956970E+004  0.1043930E+01  0.7957747E-01            NaN
         13   -1    0    0    0    0  0.00000000000E+00  0.00000000000E+00  0.74505805969E-08  0.10566000000E+00  0.10566000000E+00 0.  1.
     999900   -1    0    0    0    0 -0.00000000000E+00 -0.00000000000E+00 -0.74505805969E-08  0.93827000000E+00  0.93827000000E+00 0. -1.
     999902    2    1    2    0    0 -0.16765561040E-01 -0.14592240353E-01  0.85458982823E-02  0.10201171906E+01  0.10198392190E+01 0.  0.
     999903    2    3    3    0    0  0.11736959439E-01 -0.42784569664E-02 -0.12715924670E+00  0.12919931884E+00  0.19155379274E-01 0.  0.
         14    1    1    2    0    0  0.16765561040E-01  0.14592240353E-01 -0.85458982823E-02  0.23812809430E-01  0.00000000000E+00 0.  1.
     999901    1    3    3    0    0 -0.28502520478E-01 -0.10313783386E-01  0.13570514498E+00  0.89091787173E+00  0.88000000000E+00 0.  1.
        -11    1    4    4    0    0  0.71799901162E-02 -0.11421456922E-01 -0.94297303349E-01  0.95258828862E-01  0.51100000000E-03 0.  1.
         11    1    4    4    0    0  0.45569693225E-02  0.71429999555E-02 -0.32861943352E-01  0.33940489974E-01  0.51100000000E-03 0. -1.
</event>
<event>
 8    1  0.9956970E+004  0.1043930E+01  0.7957747E-01            NaN
         13   -1    0    0    0    0  0.00000000000E+00  0.00000000000E+00  0.74505805969E-08  0.10566000000E+00  0.10566000000E+00 0. -1.
     999900   -1    0    0    0    0 -0.00000000000E+00 -0.00000000000E+00 -0.74505805969E-08  0.93827000000E+00  0.93827000000E+00 0.  1.
     999902    2    1    2    0    0  0.82748516653E-02 -0.17075349741E-01  0.15549474353E-01  0.10193978396E+01  0.10191026095E+01 0.  0.
     999903    2    3    3    0    0  0.56801238190E-01  0.11015946615E+00 -0.25204351368E-01  0.12799199332E+00  0.19626573381E-01 0.  0.
         14    1    1    2    0    0 -0.82748516653E-02  0.17075349741E-01 -0.15549474353E-01  0.24532160352E-01  0.00000000000E+00 0. -1.
     999901    1    3    3    0    0 -0.48526386525E-01 -0.12723481589E+00  0.40753825721E-01  0.89140584633E+00  0.88000000000E+00 0.  1.
        -11    1    4    4    0    0  0.51765819691E-02  0.26755079849E-01 -0.30043515291E-02  0.27421133232E-01  0.51100000000E-03 0.  1.
         11    1    4    4    0    0  0.51624656221E-01  0.83404386302E-01 -0.22199999839E-01  0.10057086008E+00  0.51100000000E-03 0. -1.
</event>
<event>
 8    1  0.9956970E+004  0.1043930E+01  0.7957747E-01            NaN
         13   -1    0    0    0    0  0.00000000000E+00  0.00000000000E+00  0.74505805969E-08  0.10566000000E+00  0.10566000000E+00 0. -1.
     999900   -1    0    0    0    0 -0.00000000000E+00 -0.00000000000E+00 -0.74505805969E-08  0.93827000000E+00  0.93827000000E+00 0.  1.
     999902    2    1    2    0    0 -0.11935914172E-01 -0.21733024689E-02 -0.20298823771E-01  0.10202819232E+01  0.10200078290E+01 0.  0.
     999903    2    3    3    0    0 -0.11053671597E+00  0.53900953764E-01  0.40100557300E-01  0.13094816943E+00  0.20388476847E-01 0.  0.
         14    1    1    2    0    0  0.11935914172E-01  0.21733024689E-02  0.20298823771E-01  0.23648076819E-01  0.00000000000E+00 0. -1.
     999901    1    3    3    0    0  0.98600801793E-01 -0.56074256233E-01 -0.60399381071E-01  0.88933375375E+00  0.88000000000E+00 0.  1.
        -11    1    4    4    0    0 -0.69033837068E-01  0.25842276078E-01  0.16360081051E-01  0.75507663626E-01  0.51100000000E-03 0.  1.
         11    1    4    4    0    0 -0.41502878897E-01  0.28058677687E-01  0.23740476249E-01  0.55440505804E-01  0.51100000000E-03 0. -1.
</event>
<event>
 8    1  0.9956970E+004  0.1043930E+01  0.7957747E-01            NaN
         13   -1    0    0    0    0  0.00000000000E+00  0.00000000000E+00  0.74505805969E-08  0.10566000000E+00  0.10566000000E+00 0. -1.
     999900   -1    0    0    0    0 -0.00000000000E+00 -0.00000000000E+00 -0.74505805969E-08  0.93827000000E+00  0.93827000000E+00 0. -1.
     999902    2    1    2    0    0 -0.13139349703E-02 -0.69980822574E-02 -0.21672309756E-01  0.10211179727E+01  0.10208631277E+01 0.  0.
     999903    2    3    3    0    0  0.41685584118E-01  0.60975744002E-01 -0.10888221777E+00  0.13315684304E+00  0.20486049425E-01 0.  0.
         14    1    1    2    0    0  0.13139349703E-02  0.69980822574E-02  0.21672309756E-01  0.22812027322E-01  0.00000000000E+00 0. -1.
     999901    1    3    3    0    0 -0.42999519088E-01 -0.67973826259E-01  0.87209908014E-01  0.88796112964E+00  0.88000000000E+00 0.  1.
        -11    1    4    4    0    0  0.67717944789E-02  0.24118403050E-01 -0.27202230146E-01  0.36983469443E-01  0.51100000000E-03 0. -1.
         11    1    4    4    0    0  0.34913789639E-01  0.36857340952E-01 -0.81679987624E-01  0.96173373593E-01  0.51100000000E-03 0.  1.
</event>
<event>
 8    1  0.9956970E+004  0.1043930E+01  0.7957747E-01            NaN
         13   -1    0    0    0    0  0.00000000000E+00  0.00000000000E+00  0.74505805969E-08  0.10566000000E+00  0.10566000000E+00 0.  1.
     999900   -1    0    0    0    0 -0.00000000000E+00 -0.00000000000E+00 -0.74505805969E-08  0.93827000000E+00  0.93827000000E+00 0.  1.
     999902    2    1    2    0    0  0.16586836954E-01 -0.13714519008E-01 -0.11819743843E-01  0.10193756208E+01  0.10190798491E+01 0.  0.
     999903    2    3    3    0    0 -0.45328666593E-01 -0.16024043102E-01  0.11683439700E+00  0.12786524432E+00  0.19692293162E-01 0.  0.
         14    1    1    2    0    0 -0.16586836954E-01  0.13714519008E-01  0.11819743843E-01  0.24554379167E-01  0.00000000000E+00 0.  1.
     999901    1    3    3    0    0  0.61915503547E-01  0.23095240936E-02 -0.12865414084E+00  0.89151037652E+00  0.88000000000E+00 0. -1.
        -11    1    4    4    0    0 -0.33953871162E-01 -0.48937751174E-02  0.63132622766E-01  0.71852651866E-01  0.51100000000E-03 0.  1.
         11    1    4    4    0    0 -0.11374795431E-01 -0.11130267984E-01  0.53701774231E-01  0.56012592451E-01  0.51100000000E-03 0. -1.
</event>
<event>
 8    1  0.9956970E+004  0.1043930E+01  0.7957747E-01            NaN
         13   -1    0    0    0    0  0.00000000000E+00  0.00000000000E+00  0.74505805969E-08  0.10566000000E+00  0.10566000000E+00 0.  1.
     999900   -1    0    0    0    0 -0.00000000000E+00 -0.00000000000E+00 -0.74505805969E-08  0.93827000000E+00  0.93827000000E+00 0.  1.
     999902    2    1    2    0    0 -0.12748712957E-01  0.14593968872E-01  0.17163833946E-01  0.10180435015E+01  0.10177143313E+01 0.  0.
     999903    2    3    3    0    0 -0.17016730042E-02 -0.11929923450E-01  0.12867357077E+00  0.13054140269E+00  0.18410628401E-01 0.  0.
         14    1    1    2    0    0  0.12748712957E-01 -0.14593968872E-01 -0.17163833946E-01  0.25886498512E-01  0.00000000000E+00 0. -1.
     999901    1    3    3    0    0 -0.11047039952E-01  0.26523892323E-01 -0.11150973682E+00  0.88750209879E+00  0.88000000000E+00 0.  1.
        -11    1    4    4    0    0  0.72526216316E-02 -0.55035980166E-03  0.52270530711E-01  0.52776632312E-01  0.51100000000E-03 0. -1.
         11    1    4    4    0    0 -0.89542946358E-02 -0.11379563649E-01  0.76403040060E-01  0.77764770383E-01  0.51100000000E-03 0.  1.
</event>
<event>
 8    1  0.9956970E+004  0.1043930E+01  0.7957747E-01            NaN
         13   -1    0    0    0    0  0.00000000000E+00  0.00000000000E+00  0.74505805969E-08  0.10566000000E+00  0.10566000000E+00 0.  1.
     999900   -1    0    0    0    0 -0.00000000000E+00 -0.00000000000E+00 -0.74505805969E-08  0.93827000000E+00  0.93827000000E+00 0.  1.
     999902    2    1    2    0    0  0.21446801340E-01 -0.41728792903E-02 -0.92022418056E-02  0.10202222067E+01  0.10199467102E+01 0.  0.
     999903    2    3    3    0    0  0.23406490027E-01  0.47754740653E-01  0.11664121923E+00  0.12975216521E+00  0.20051716181E-01 0.  0.
         14    1    1    2    0    0 -0.21446801340E-01  0.41728792903E-02  0.92022418056E-02  0.23707793308E-01  0.00000000000E+00 0.  1.
     999901    1    3    3    0    0 -0.19596886868E-02 -0.51927619943E-01 -0.12584346104E+00  0.89047004148E+00  0.88000000000E+00 0.  1.
        -11    1    4    4    0    0  0.53362831452E-02  0.20558593665E-01  0.27058267546E-01  0.34402654765E-01  0.51100000000E-03 0. -1.
         11    1    4    4    0    0  0.18070206882E-01  0.27196146988E-01  0.89582951688E-01  0.95349510444E-01  0.51100000000E-03 0.  1.
</event>
<event>
 8    1  0.9956970E+004  0.1043930E+01  0.7957747E-01            NaN
         13   -1    0    0    0    0  0.00000000000E+00  0.00000000000E+00  0.74505805969E-08  0.10566000000E+00  0.10566000000E+00 0.  1.
     999900   -1    0    0    0    0 -0.00000000000E+00 -0.00000000000E+00 -0.74505805969E-08  0.93827000000E+00  0.93827000000E+00 0. -1.
     999902    2    1    2    0    0  0.22188050691E-01 -0.50213782838E-02 -0.28557012168E-02  0.10210023123E+01  0.10207448471E+01 0.  0.
     999903    2    3    3    0    0 -0.61567742434E-01  0.89587885023E-02 -0.11254353552E+00  0.13013649809E+00  0.19965318656E-01 0.  0.
         14    1    1    2    0    0 -0.22188050691E-01  0.50213782838E-02  0.28557012168E-02  0.22927687689E-01  0.00000000000E+00 0.  1.
     999901    1    3    3    0    0  0.83755793125E-01 -0.13980166786E-01  0.10968783430E+00  0.89086581422E+00  0.88000000000E+00 0.  1.
        -11    1    4    4    0    0 -0.12222272196E-01  0.69721222670E-02 -0.39750172601E-01  0.42170271155E-01  0.51100000000E-03 0. -1.
         11    1    4    4    0    0 -0.49345470238E-01  0.19866662353E-02 -0.72793362920E-01  0.87966226939E-01  0.51100000000E-03 0.  1.
</event>
<event>
 8    1  0.9956970E+004  0.1043930E+01  0.7957747E-01            NaN
         13   -1    0    0    0    0  0.00000000000E+00  0.00000000000E+00  0.74505805969E-08  0.10566000000E+00  0.10566000000E+00 0. -1.
     999900   -1    0    0    0    0 -0.00000000000E+00 -0.00000000000E+00 -0.74505805969E-08  0.93827000000E+00  0.93827000000E+00 0.  1.
     999902    2    1    2    0    0  0.21371807835E-01 -0.78817914475E-02  0.71636207048E-02  0.10200512591E+01  0.10197717278E+01 0.  0.
     999903    2    3    3    0    0  0.27727774028E-01  0.11514717988E+00 -0.48363681284E-01  0.12973681611E+00  0.21561384426E-01 0.  0.
         14    1    1    2    0    0 -0.21371807835E-01  0.78817914475E-02 -0.71636207048E-02  0.23878740925E-01  0.00000000000E+00 0.  1.
     999901    1    3    3    0    0 -0.63559661928E-02 -0.12302897133E+00  0.55527301989E-01  0.89031444297E+00  0.88000000000E+00 0. -1.
        -11    1    4    4    0    0  0.16749907974E-01  0.66071970394E-01 -0.39156865823E-01  0.78610342519E-01  0.51100000000E-03 0. -1.
         11    1    4    4    0    0  0.10977866054E-01  0.49075209489E-01 -0.92068154615E-02  0.51126473587E-01  0.51100000000E-03 0.  1.
</event>
<event>
 8    1  0.9956970E+004  0.1043930E+01  0.7957747E-01            NaN
         13   -1    0    0    0    0  0.00000000000E+00  0.00000000000E+00  0.74505805969E-08  0.10566000000E+00  0.10566000000E+00 0.  1.
     999900   -1    0    0    0    0 -0.00000000000E+00 -0.00000000000E+00 -0.74505805969E-08  0.93827000000E+00  0.93827000000E+00 0.  1.
     999902    2    1    2    0    0 -0.53476724261E-02  0.15548341044E-01  0.17622436627E-01  0.10198281581E+01  0.10195433160E+01 0.  0.
     999903    2    3    3    0    0 -0.45601336183E-01  0.12121167620E+00 -0.15654598592E-01  0.13196980290E+00  0.19980243033E-01 0.  0.
         14    1    1    2    0    0  0.53476724261E-02 -0.15548341044E-01 -0.17622436627E-01  0.24101841885E-01  0.00000000000E+00 0. -1.
     999901    1    3    3    0    0  0.40253663757E-01 -0.10566333516E+00  0.33277035219E-01  0.88785835521E+00  0.88000000000E+00 0.  1.
        -11    1    4    4    0    0 -0.20421891855E-01  0.37604451019E-01  0.21744259131E-02  0.42850176807E-01  0.51100000000E-03 0. -1.
         11    1    4    4    0    0 -0.25179444328E-01  0.83607225186E-01 -0.17829024505E-01  0.89119626098E-01  0.51100000000E-03 0.  1.
</event>
<event>
 8    1  0.9956970E+004  0.1043930E+01  0.7957747E-01            NaN
         13   -1    0    0    0    0  0.00000000000E+00  0.00000000000E+00  0.74505805969E-08  0.10566000000E+00  0.10566000000E+00 0. -1.
     999900   -1    0    0    0    0 -0.00000000000E+00 -0.00000000000E+00 -0.74505805969E-08  0.93827000000E+00  0.93827000000E+00 0.  1.
     999902    2    1    2    0    0  0.18606641068E-01  0.12766209032E-01 -0.11363586284E-01  0.10186651177E+01  0.10183517603E+01 0.  0.
     999903    2    3    3    0    0 -0.49642398855E-01 -0.71839138377E-01  0.88826622778E-01  0.12633441988E+00  0.21094718905E-01 0.  0.
         14    1    1    2    0    0 -0.18606641068E-01 -0.12766209032E-01  0.11363586284E-01  0.25264882310E-01  0.00000000000E+00 0. -1.
     999901    1    3    3    0    0  0.68249039922E-01  0.84605347409E-01 -0.10019020906E+00  0.89233069781E+00  0.88000000000E+00 0.  1.
        -11    1    4    4    0    0 -0.25487481638E-01 -0.20339401038E-01  0.27197322671E-01  0.42464790548E-01  0.51100000000E-03 0.  1.
         11    1    4    4    0    0 -0.24154917217E-01 -0.51499737339E-01  0.61629300107E-01  0.83869629333E-01  0.51100000000E-03 0. -1.
</event>
<event>
 8    1  0.9956970E+004  0.1043930E+01  0.7957747E-01            NaN
         13   -1    0    0    0    0  0.00000000000E+00  0.00000000000E+00  0.74505805969E-08  0.10566000000E+00  0.10566000000E+00 0.  1.
     999900   -1    0    0    0    0 -0.00000000000E+00 -0.00000000000E+00 -0.74505805969E-08  0.93827000000E+00  0.93827000000E+00 0. -1.
     999902    2    1    2    0    0 -0.75039635868E-02  0.17389050465E-01 -0.63884180388E-02  0.10239424931E+01  0.10237473950E+01 0.  0.
     999903    2    3    3    0    0 -0.76817621863E-01  0.75843514295E-01  0.78989726759E-01  0.13517326821E+00  0.19474337375E-01 0.  0.
         14    1    1    2    0    0  0.75039635868E-02 -0.17389050465E-01  0.63884180388E-02  0.19987506864E-01  0.00000000000E+00 0.  1.
     999901    1    3    3    0    0  0.69313658276E-01 -0.58454463829E-01 -0.85378144798E-01  0.88876922493E+00  0.88000000000E+00 0. -1.
        -11    1    4    4    0    0 -0.42622175216E-01  0.35329217125E-01  0.29914737618E-01  0.62928181688E-01  0.51100000000E-03 0.  1.
         11    1    4    4    0    0 -0.34195446646E-01  0.40514297170E-01  0.49074989141E-01  0.72245086523E-01  0.51100000000E-03 0. -1.
</event>
<event>
 8    1  0.9956970E+004  0.1043930E+01  0.7957747E-01            NaN
         13   -1    0    0    0    0  0.00000000000E+00  0.00000000000E+00  0.74505805969E-08  0.10566000000E+00  0.10566000000E+00 0.  1.
     999900   -1    0    0    0    0 -0.00000000000E+00 -0.00000000000E+00 -0.74505805969E-08  0.93827000000E+00  0.93827000000E+00 0.  1.
     999902    2    1    2    0    0 -0.72296247846E-02 -0.18146228811E-01 -0.17827648858E-01  0.10174842412E+01  0.10171405030E+01 0.  0.
     999903    2    3    3    0    0  0.58230254278E-01  0.57005284391E-01 -0.97081554147E-01  0.12831950551E+00  0.20017551695E-01 0.  0.
         14    1    1    2    0    0  0.72296247846E-02  0.18146228811E-01  0.17827648858E-01  0.26445758798E-01  0.00000000000E+00 0.  1.
     999901    1    3    3    0    0 -0.65459879062E-01 -0.75151513202E-01  0.79253905288E-01  0.88916473570E+00  0.88000000000E+00 0.  1.
        -11    1    4    4    0    0  0.41665164634E-01  0.45336817788E-01 -0.59532279158E-01  0.85649088575E-01  0.51100000000E-03 0.  1.
         11    1    4    4    0    0  0.16565089644E-01  0.11668466603E-01 -0.37549274989E-01  0.42670416930E-01  0.51100000000E-03 0. -1.
</event>
<event>
 8    1  0.9956970E+004  0.1043930E+01  0.7957747E-01            NaN
         13   -1    0    0    0    0  0.00000000000E+00  0.00000000000E+00  0.74505805969E-08  0.10566000000E+00  0.10566000000E+00 0. -1.
     999900   -1    0    0    0    0 -0.00000000000E+00 -0.00000000000E+00 -0.74505805969E-08  0.93827000000E+00  0.93827000000E+00 0. -1.
     999902    2    1    2    0    0 -0.19263648165E-01  0.13882525214E-01  0.13281874760E-02  0.10201481429E+01  0.10198709020E+01 0.  0.
     999903    2    3    3    0    0 -0.34449824779E-01 -0.12311640077E+00  0.42940078049E-02  0.12941354616E+00  0.19621132979E-01 0.  0.
         14    1    1    2    0    0  0.19263648165E-01 -0.13882525214E-01 -0.13281874760E-02  0.23781857137E-01  0.00000000000E+00 0. -1.
     999901    1    3    3    0    0  0.15186176614E-01  0.13699892599E+00 -0.29658203288E-02  0.89073459671E+00  0.88000000000E+00 0. -1.
        -11    1    4    4    0    0 -0.17752759190E-01 -0.87736339471E-01 -0.32170835098E-02  0.89573637137E-01  0.51100000000E-03 0.  1.
         11    1    4    4    0    0 -0.16697065588E-01 -0.35380061300E-01  0.75110913146E-02  0.39839909018E-01  0.51100000000E-03 0. -1.
</event>
<event>
 8    1  0.9956970E+004  0.1043930E+01  0.7957747E-01            NaN
         13   -1    0    0    0    0  0.00000000000E+00  0.00000000000E+00  0.74505805969E-08  0.10566000000E+00  0.10566000000E+00 0.  1.
     999900   -1    0    0    0    0 -0.00000000000E+00 -0.00000000000E+00 -0.74505805969E-08  0.93827000000E+00  0.93827000000E+00 0.  1.
     999902    2    1    2    0    0 -0.11277087964E-01 -0.12663761203E-03  0.20874126927E-01  0.10202041086E+01  0.10199281863E+01 0.  0.
     999903    2    3    3    0    0 -0.11555318563E+00  0.16549118013E-01 -0.55279216269E-01  0.13062504121E+00  0.19511474158E-01 0.  0.
         14    1    1    2    0    0  0.11277087964E-01  0.12663761203E-03 -0.20874126927E-01  0.23725891447E-01  0.00000000000E+00 0. -1.
     999901    1    3    3    0    0  0.10427609767E+00 -0.16675755625E-01  0.76153343196E-01  0.88957906734E+00  0.88000000000E+00 0. -1.
        -11    1    4    4    0    0 -0.11617949790E-01  0.11226736975E-02 -0.12683554459E-01  0.17244443402E-01  0.51100000000E-03 0.  1.
         11    1    4    4    0    0 -0.10393523584E+00  0.15426444315E-01 -0.42595661810E-01  0.11338059781E+00  0.51100000000E-03 0. -1.
</event>
<event>
 8    1  0.9956970E+004  0.1043930E+01  0.7957747E-01            NaN
         13   -1    0    0    0    0  0.00000000000E+00  0.00000000000E+00  0.74505805969E-08  0.10566000000E+00  0.10566000000E+00 0.  1.
     999900   -1    0    0    0    0 -0.00000000000E+00 -0.00000000000E+00 -0.74505805969E-08  0.93827000000E+00  0.93827000000E+00 0.  1.
     999902    2    1    2    0    0  0.26207357873E-02 -0.16289562112E-01 -0.17172975988E-01  0.10201155255E+01  0.10198375146E+01 0.  0.
     999903    2    3    3    0    0  0.77741413180E-01  0.62702212271E-01  0.78125585662E-01  0.12828334825E+00  0.19434905586E-01 0.  0.
         14    1    1    2    0    0 -0.26207357873E-02  0.16289562112E-01  0.17172975988E-01  0.23814474467E-01  0.00000000000E+00 0.  1.
     999901    1    3    3    0    0 -0.75120677392E-01 -0.78991774383E-01 -0.95298561650E-01  0.89183217729E+00  0.88000000000E+00 0.  1.
        -11    1    4    4    0    0  0.57646248981E-01  0.43138763340E-01  0.66177927530E-01  0.97794796064E-01  0.51100000000E-03 0.  1.
         11    1    4    4    0    0  0.20095164198E-01  0.19563448932E-01  0.11947658132E-01  0.30488552181E-01  0.51100000000E-03 0. -1.
</event>
<event>
 8    1  0.9956970E+004  0.1043930E+01  0.7957747E-01            NaN
         13   -1    0    0    0    0  0.00000000000E+00  0.00000000000E+00  0.74505805969E-08  0.10566000000E+00  0.10566000000E+00 0.  1.
     999900   -1    0    0    0    0 -0.00000000000E+00 -0.00000000000E+00 -0.74505805969E-08  0.93827000000E+00  0.93827000000E+00 0.  1.
     999902    2    1    2    0    0  0.18811441898E-01  0.95404747817E-02 -0.13397941244E-01  0.10189420862E+01  0.10186356460E+01 0.  0.
     999903    2    3    3    0    0  0.93329427585E-01  0.91102537393E-01 -0.27789986010E-02  0.13197080022E+00  0.19962838106E-01 0.  0.
         14    1    1    2    0    0 -0.18811441898E-01 -0.95404747817E-02  0.13397941244E-01  0.24987913777E-01  0.00000000000E+00 0.  1.
     999901    1    3    3    0    0 -0.74517985687E-01 -0.81562062611E-01 -0.10618942643E-01  0.88697128600E+00  0.88000000000E+00 0.  1.
        -11    1    4    4    0    0  0.58568457387E-01  0.58773024107E-01 -0.11292134984E-01  0.83739512758E-01  0.51100000000E-03 0.  1.
         11    1    4    4    0    0  0.34760970198E-01  0.32329513286E-01  0.85131363827E-02  0.48231287464E-01  0.51100000000E-03 0. -1.
</event>
<event>
 8    1  0.9956970E+004  0.1043930E+01  0.7957747E-01            NaN
         13   -1    0    0    0    0  0.00000000000E+00  0.00000000000E+00  0.74505805969E-08  0.10566000000E+00  0.10566000000E+00 0.  1.
     999900   -1    0    0    0    0 -0.00000000000E+00 -0.00000000000E+00 -0.74505805969E-08  0.93827000000E+00  0.93827000000E+00 0.  1.
     999902    2    1    2    0    0  0.33194182611E-02  0.21158105974E-01  0.84609925307E-02  0.10209023562E+01  0.10206426154E+01 0.  0.
     999903    2    3    3    0    0  0.12574684752E+00  0.41617034450E-02 -0.33048901456E-01  0.13129546296E+00  0.17795484526E-01 0.  0.
         14    1    1    2    0    0 -0.33194182611E-02 -0.21158105974E-01 -0.84609925307E-02  0.23027643835E-01  0.00000000000E+00 0. -1.
     999901    1    3    3    0    0 -0.12242742926E+00  0.16996402529E-01  0.41509893987E-01  0.88960689320E+00  0.88000000000E+00 0. -1.
        -11    1    4    4    0    0  0.39961511859E-01  0.96896260926E-03 -0.19167516531E-01  0.44334141804E-01  0.51100000000E-03 0. -1.
         11    1    4    4    0    0  0.85785335664E-01  0.31927408357E-02 -0.13881384925E-01  0.86961321158E-01  0.51100000000E-03 0.  1.
</event>
<event>
 8    1  0.9956970E+004  0.1043930E+01  0.7957747E-01            NaN
         13   -1    0    0    0    0  0.00000000000E+00  0.00000000000E+00  0.74505805969E-08  0.10566000000E+00  0.10566000000E+00 0. -1.
     999900   -1    0    0    0    0 -0.00000000000E+00 -0.00000000000E+00 -0.74505805969E-08  0.93827000000E+00  0.93827000000E+00 0. -1.
     999902    2    1    2    0    0 -0.94474458352E-02  0.14286994862E-01  0.15144783508E-01  0.10210665593E+01  0.10208105512E+01 0.  0.
     999903    2    3    3    0    0  0.11572757401E+00  0.55599177091E-01  0.18901685297E-01  0.13124096045E+00  0.19564664914E-01 0.  0.
         14    1    1    2    0    0  0.94474458352E-02 -0.14286994862E-01 -0.15144783508E-01  0.22863440740E-01  0.00000000000E+00 0.  1.
     999901    1    3    3    0    0 -0.12517501984E+00 -0.41312182229E-01 -0.37569017891E-02  0.88982559881E+00  0.88000000000E+00 0.  1.
        -11    1    4    4    0    0  0.98836236794E-01  0.39281467781E-01  0.14510833791E-01  0.10734272604E+00  0.51100000000E-03 0.  1.
         11    1    4    4    0    0  0.16891337212E-01  0.16317709311E-01  0.43908515061E-02  0.23898234410E-01  0.51100000000E-03 0. -1.
</event>
<event>
 8    1  0.9956970E+004  0.1043930E+01  0.7957747E-01            NaN
         13   -1    0    0    0    0  0.00000000000E+00  0.00000000000E+00  0.74505805969E-08  0.10566000000E+00  0.10566000000E+00 0. -1.
     999900   -1    0    0    0    0 -0.00000000000E+00 -0.00000000000E+00 -0.74505805969E-08  0.93827000000E+00  0.93827000000E+00 0. -1.
     999902    2    1    2    0    0  0.74498161890E-02  0.72773894464E-04  0.22282446576E-01  0.10204350541E+01  0.10201645393E+01 0.  0.
     999903    2    3    3    0    0 -0.10971199539E+00 -0.23481676306E-01  0.65239525353E-01  0.13131919392E+00  0.20010596400E-01 0.  0.
         14    1    1    2    0    0 -0.74498161890E-02 -0.72773894464E-04 -0.22282446576E-01  0.23494945897E-01  0.00000000000E+00 0.  1.
     999901    1    3    3    0    0  0.11716181158E+00  0.23554450201E-01 -0.42957078777E-01  0.88911586019E+00  0.88000000000E+00 0. -1.
        -11    1    4    4    0    0 -0.76575143217E-01 -0.22700794070E-01  0.38178765282E-01  0.88526594025E-01  0.51100000000E-03 0.  1.
         11    1    4    4    0    0 -0.33136852172E-01 -0.78088223650E-03  0.27060760071E-01  0.42792599892E-01  0.51100000000E-03 0. -1.
</event>
<event>
 8    1  0.9956970E+004  0.1043930E+01  0.7957747E-01            NaN
         13   -1    0    0    0    0  0.00000000000E+00  0.00000000000E+00  0.74505805969E-08  0.10566000000E+00  0.10566000000E+00 0.  1.
     999900   -1    0    0    0    0 -0.00000000000E+00 -0.00000000000E+00 -0.74505805969E-08  0.93827000000E+00  0.93827000000E+00 0.  1.
     999902    2    1    2    0    0 -0.12815629336E-01  0.15716360519E-01 -0.15064676709E-01  0.10186676005E+01  0.10183543055E+01 0.  0.
     999903    2    3    3    0    0  0.11614475817E+00 -0.14643771094E-01  0.44140918691E-01  0.12678317882E+00  0.20530680610E-01 0.  0.
         14    1    1    2    0    0  0.12815629336E-01 -0.15716360519E-01  0.15064676709E-01  0.25262399482E-01  0.00000000000E+00 0.  1.
     999901    1    3    3    0    0 -0.12896038751E+00  0.30360131612E-01 -0.59205595400E-01  0.89188442170E+00  0.88000000000E+00 0. -1.
        -11    1    4    4    0    0  0.90741696271E-01 -0.14610397326E-01  0.25855416242E-01  0.95479227176E-01  0.51100000000E-03 0. -1.
         11    1    4    4    0    0  0.25403061903E-01 -0.33373767708E-04  0.18285502449E-01  0.31303951646E-01  0.51100000000E-03 0.  1.
</event>
<event>
 8    1  0.9956970E+004  0.1043930E+01  0.7957747E-01            NaN
         13   -1    0    0    0    0  0.00000000000E+00  0.00000000000E+00  0.74505805969E-08  0.10566000000E+00  0.10566000000E+00 0.  1.
     999900   -1    0    0    0    0 -0.00000000000E+00 -0.00000000000E+00 -0.74505805969E-08  0.93827000000E+00  0.93827000000E+00 0. -1.
     999902    2    1    2    0    0 -0.21546781519E-01 -0.50025550781E-02  0.68039385263E-02  0.10207873353E+01  0.10205249634E+01 0.  0.
     999903    2    3    3    0    0  0.28826881895E-02  0.98351005293E-01  0.84011537472E-01  0.13104592859E+00  0.20829470435E-01 0.  0.
         14    1    1    2    0    0  0.21546781519E-01  0.50025550781E-02 -0.68039385263E-02  0.23142664726E-01  0.00000000000E+00 0. -1.
     999901    1    3    3    0    0 -0.24429469709E-01 -0.10335356037E+00 -0.77207598945E-01  0.88974140668E+00  0.88000000000E+00 0. -1.
        -11    1    4    4    0    0  0.73599238047E-02  0.88140563571E-01  0.79768815265E-01  0.11910605541E+00  0.51100000000E-03 0.  1.
         11    1    4    4    0    0 -0.44772356153E-02  0.10210441722E-01  0.42427222068E-02  0.11939873183E-01  0.51100000000E-03 0. -1.
</event>
<event>
 8    1  0.9956970E+004  0.1043930E+01  0.7957747E-01            NaN
         13   -1    0    0    0    0  0.00000000000E+00  0.00000000000E+00  0.74505805969E-08  0.10566000000E+00  0.10566000000E+00 0. -1.
     999900   -1    0    0    0    0 -0.00000000000E+00 -0.00000000000E+00 -0.74505805969E-08  0.93827000000E+00  0.93827000000E+00 0.  1.
     999902    2    1    2    0    0 -0.11283309853E-01 -0.58280119285E-02 -0.20806098566E-01  0.10195543453E+01  0.10192629153E+01 0.  0.
     999903    2    3    3    0    0 -0.71284426770E-01 -0.52668229079E-01  0.91653571673E-01  0.12913797225E+00  0.20514064009E-01 0.  0.
         14    1    1    2    0    0  0.11283309853E-01  0.58280119285E-02  0.20806098566E-01  0.24375654695E-01  0.00000000000E+00 0. -1.
     999901    1    3    3    0    0  0.60001116917E-01  0.46840217151E-01 -0.11245967024E+00  0.89041637305E+00  0.88000000000E+00 0. -1.
        -11    1    4    4    0    0 -0.16715607704E-02  0.15620461796E-02  0.46923588798E-02  0.52453271141E-02  0.51100000000E-03 0. -1.
         11    1    4    4    0    0 -0.69612866000E-01 -0.54230275259E-01  0.86961212793E-01  0.12389264514E+00  0.51100000000E-03 0.  1.
</event>
<event>
 8    1  0.9956970E+004  0.1043930E+01  0.7957747E-01            NaN
         13   -1    0    0    0    0  0.00000000000E+00  0.00000000000E+00  0.74505805969E-08  0.10566000000E+00  0.10566000000E+00 0. -1.
     999900   -1    0    0    0    0 -0.00000000000E+00 -0.00000000000E+00 -0.74505805969E-08  0.93827000000E+00  0.93827000000E+00 0. -1.
     999902    2    1    2    0    0  0.19737670837E-01  0.13048142753E-01 -0.25313251261E-02  0.10201342591E+01  0.10198566905E+01 0.  0.
     999903    2    3    3    0    0 -0.48263282021E-01  0.68064707137E-01 -0.98404759122E-01  0.13061603706E+00  0.20369186790E-01 0.  0.
         14    1    1    2    0    0 -0.19737670837E-01 -0.13048142753E-01  0.25313251261E-02  0.23795740927E-01  0.00000000000E+00 0.  1.
     999901    1    3    3    0    0  0.68000952858E-01 -0.55016564383E-01  0.95873433995E-01  0.88951822201E+00  0.88000000000E+00 0.  1.
        -11    1    4    4    0    0 -0.25414483742E-01  0.35485652588E-01 -0.35897959104E-01  0.56515945647E-01  0.51100000000E-03 0. -1.
         11    1    4    4    0    0 -0.22848798278E-01  0.32579054548E-01 -0.62506800017E-01  0.74100091413E-01  0.51100000000E-03 0.  1.
</event>
<event>
 8    1  0.9956970E+004  0.1043930E+01  0.7957747E-01            NaN
         13   -1    0    0    0    0  0.00000000000E+00  0.00000000000E+00  0.74505805969E-08  0.10566000000E+00  0.10566000000E+00 0. -1.
     999900   -1    0    0    0    0 -0.00000000000E+00 -0.00000000000E+00 -0.74505805969E-08  0.93827000000E+00  0.93827000000E+00 0.  1.
     999902    2    1    2    0    0  0.95690551887E-02  0.47221392540E-02  0.22059961690E-01  0.10194247490E+01  0.10191301740E+01 0.  0.
     999903    2    3    3    0    0 -0.74479892652E-01 -0.10244556845E+00  0.13817408772E-01  0.12890968295E+00  0.19607056606E-01 0.  0.
         14    1    1    2    0    0 -0.95690551887E-02 -0.47221392540E-02 -0.22059961690E-01  0.24505250990E-01  0.00000000000E+00 0.  1.
     999901    1    3    3    0    0  0.84048947841E-01  0.10716770770E+00  0.82425529178E-02  0.89051506606E+00  0.88000000000E+00 0. -1.
        -11    1    4    4    0    0 -0.48585972023E-01 -0.71155571011E-01  0.18175327305E-01  0.88058591898E-01  0.51100000000E-03 0.  1.
         11    1    4    4    0    0 -0.25893920629E-01 -0.31289997434E-01 -0.43579185332E-02  0.40851091049E-01  0.51100000000E-03 0. -1.
</event>
<event>
 8    1  0.9956970E+004  0.1043930E+01  0.7957747E-01            NaN
         13   -1    0    0    0    0  0.00000000000E+00  0.00000000000E+00  0.74505805969E-08  0.10566000000E+00  0.10566000000E+00 0.  1.
     999900   -1    0    0    0    0 -0.00000000000E+00 -0.00000000000E+00 -0.74505805969E-08  0.93827000000E+00  0.93827000000E+00 0.  1.
     999902    2    1    2    0    0 -0.11684860736E-01 -0.19187625693E-02 -0.20522249541E-01  0.10202365337E+01  0.10199613739E+01 0.  0.
     999903    2    3    3    0    0  0.10848950976E+00  0.55567500918E-01 -0.40828196631E-01  0.12997877252E+00  0.19230672853E-01 0.  0.
         14    1    1    2    0    0  0.11684860736E-01  0.19187625693E-02  0.20522249541E-01  0.23693466324E-01  0.00000000000E+00 0.  1.
     999901    1    3    3    0    0 -0.12017437050E+00 -0.57486263487E-01  0.20305947090E-01  0.89025776116E+00  0.88000000000E+00 0. -1.
        -11    1    4    4    0    0  0.10993638834E-01  0.44325802800E-02 -0.10350520906E-01  0.15744912409E-01  0.51100000000E-03 0. -1.
         11    1    4    4    0    0  0.97495870929E-01  0.51134920638E-01 -0.30477675726E-01  0.11423386011E+00  0.51100000000E-03 0.  1.
</event>
<event>
 8    1  0.9956970E+004  0.1043930E+01  0.7957747E-01            NaN
         13   -1    0    0    0    0  0.00000000000E+00  0.00000000000E+00  0.74505805969E-08  0.10566000000E+00  0.10566000000E+00 0. -1.
     999900   -1    0    0    0    0 -0.00000000000E+00 -0.00000000000E+00 -0.74505805969E-08  0.93827000000E+00  0.93827000000E+00 0.  1.
     999902    2    1    2    0    0 -0.15795555471E-01  0.18890601842E-01 -0.12621422619E-02  0.10192734103E+01  0.10189751408E+01 0.  0.
     999903    2    3    3    0    0 -0.33587611418E-01 -0.10382069925E+00 -0.64573152982E-01  0.12832845988E+00  0.19789802848E-01 0.  0.
         14    1    1    2    0    0  0.15795555471E-01 -0.18890601842E-01  0.12621422619E-02  0.24656589660E-01  0.00000000000E+00 0.  1.
     999901    1    3    3    0    0  0.17792055947E-01  0.12271130109E+00  0.63311010720E-01  0.89094495046E+00  0.88000000000E+00 0. -1.
        -11    1    4    4    0    0 -0.40288121699E-02 -0.39310049971E-01 -0.28499970143E-01  0.48723924056E-01  0.51100000000E-03 0. -1.
         11    1    4    4    0    0 -0.29558799248E-01 -0.64510649275E-01 -0.36073182839E-01  0.79604535825E-01  0.51100000000E-03 0.  1.
</event>
<event>
 8    1  0.9956970E+004  0.1043930E+01  0.7957747E-01            NaN
         13   -1    0    0    0    0  0.00000000000E+00  0.00000000000E+00  0.74505805969E-08  0.10566000000E+00  0.10566000000E+00 0.  1.
     999900   -1    0    0    0    0 -0.00000000000E+00 -0.00000000000E+00 -0.74505805969E-08  0.93827000000E+00  0.93827000000E+00 0. -1.
     999902    2    1    2    0    0 -0.21606136796E-01 -0.28319361250E-02 -0.83685090110E-02  0.10205874005E+01  0.10203204227E+01 0.  0.
     999903    2    3    3    0    0 -0.81878394066E-01 -0.97008417055E-01 -0.34699515964E-01  0.13312175242E+00  0.20065895556E-01 0.  0.
         14    1    1    2    0    0  0.21606136796E-01  0.28319361250E-02  0.83685090110E-02  0.23342599524E-01  0.00000000000E+00 0.  1.
     999901    1    3    3    0    0  0.60272257270E-01  0.94176480930E-01  0.26331006953E-01  0.88746564806E+00  0.88000000000E+00 0.  1.
        -11    1    4    4    0    0 -0.58280123964E-01 -0.54268666833E-01 -0.19546240253E-01  0.81999863890E-01  0.51100000000E-03 0. -1.
         11    1    4    4    0    0 -0.23598270102E-01 -0.42739750222E-01 -0.15153275711E-01  0.51121888527E-01  0.51100000000E-03 0.  1.
</event>
<event>
 8    1  0.9956970E+004  0.1043930E+01  0.7957747E-01            NaN
         13   -1    0    0    0    0  0.00000000000E+00  0.00000000000E+00  0.74505805969E-08  0.10566000000E+00  0.10566000000E+00 0. -1.
     999900   -1    0    0    0    0 -0.00000000000E+00 -0.00000000000E+00 -0.74505805969E-08  0.93827000000E+00  0.93827000000E+00 0.  1.
     999902    2    1    2    0    0  0.41192628397E-02 -0.96377334961E-02  0.20924505313E-01  0.10205272404E+01  0.10202588688E+01 0.  0.
     999903    2    3    3    0    0  0.12210629024E-01  0.98658148061E-01  0.84047719756E-01  0.13160766680E+00  0.19339832573E-01 0.  0.
         14    1    1    2    0    0 -0.41192628397E-02  0.96377334961E-02 -0.20924505313E-01  0.23402759579E-01  0.00000000000E+00 0.  1.
     999901    1    3    3    0    0 -0.80913661840E-02 -0.10829588156E+00 -0.63123214442E-01  0.88891957362E+00  0.88000000000E+00 0.  1.
        -11    1    4    4    0    0 -0.34614247191E-02  0.32968019277E-01  0.21191592147E-01  0.39347381804E-01  0.51100000000E-03 0. -1.
         11    1    4    4    0    0  0.15672053743E-01  0.65690128784E-01  0.62856127609E-01  0.92260284994E-01  0.51100000000E-03 0.  1.
</event>
<event>
 8    1  0.9956970E+004  0.1043930E+01  0.7957747E-01            NaN
         13   -1    0    0    0    0  0.00000000000E+00  0.00000000000E+00  0.74505805969E-08  0.10566000000E+00  0.10566000000E+00 0. -1.
     999900   -1    0    0    0    0 -0.00000000000E+00 -0.00000000000E+00 -0.74505805969E-08  0.93827000000E+00  0.93827000000E+00 0. -1.
     999902    2    1    2    0    0  0.17790731447E-01 -0.12285681656E-01  0.21095607194E-02  0.10222067787E+01  0.10219759293E+01 0.  0.
     999903    2    3    3    0    0 -0.59563923581E-01 -0.57453476916E-01  0.10103892170E+00  0.13214448261E+00  0.20113119686E-01 0.  0.
         14    1    1    2    0    0 -0.17790731447E-01  0.12285681656E-01 -0.21095607194E-02  0.21723221345E-01  0.00000000000E+00 0.  1.
     999901    1    3    3    0    0  0.77354655028E-01  0.45167795260E-01 -0.98929360978E-01  0.89006229605E+00  0.88000000000E+00 0. -1.
        -11    1    4    4    0    0 -0.18873084309E-01 -0.30568252139E-01  0.49753891684E-01  0.61370369144E-01  0.51100000000E-03 0.  1.
         11    1    4    4    0    0 -0.40690839271E-01 -0.26885224777E-01  0.51285030014E-01  0.70774113462E-01  0.51100000000E-03 0. -1.
</event>
<event>
 8    1  0.9956970E+004  0.1043930E+01  0.7957747E-01            NaN
         13   -1    0    0    0    0  0.00000000000E+00  0.00000000000E+00  0.74505805969E-08  0.10566000000E+00  0.10566000000E+00 0. -1.
     999900   -1    0    0    0    0 -0.00000000000E+00 -0.00000000000E+00 -0.74505805969E-08  0.93827000000E+00  0.93827000000E+00 0. -1.
     999902    2    1    2    0    0  0.13189092399E-01  0.19748702966E-01  0.31397493517E-02  0.10199754294E+01  0.10196940988E+01 0.  0.
     999903    2    3    3    0    0 -0.57094618532E-01 -0.10650983602E+00 -0.35028290967E-01  0.12737371642E+00  0.19822760476E-01 0.  0.
         14    1    1    2    0    0 -0.13189092399E-01 -0.19748702966E-01 -0.31397493517E-02  0.23954570611E-01  0.00000000000E+00 0.  1.
     999901    1    3    3    0    0  0.70283710931E-01  0.12625853899E+00  0.38168040319E-01  0.89260171297E+00  0.88000000000E+00 0. -1.
        -11    1    4    4    0    0 -0.15938769795E-01 -0.30225108457E-01 -0.80873573465E-03  0.34183574101E-01  0.51100000000E-03 0. -1.
         11    1    4    4    0    0 -0.41155848737E-01 -0.76284727563E-01 -0.34219555233E-01  0.93190142322E-01  0.51100000000E-03 0.  1.
</event>
<event>
 8    1  0.9956970E+004  0.1043930E+01  0.7957747E-01            NaN
         13   -1    0    0    0    0  0.00000000000E+00  0.00000000000E+00  0.74505805969E-08  0.10566000000E+00  0.10566000000E+00 0.  1.
     999900   -1    0    0    0    0 -0.00000000000E+00 -0.00000000000E+00 -0.74505805969E-08  0.93827000000E+00  0.93827000000E+00 0.  1.
     999902    2    1    2    0    0 -0.11842471422E-02 -0.79072683762E-02 -0.22307029904E-01  0.10202333564E+01  0.10199581220E+01 0.  0.
     999903    2    3    3    0    0 -0.30324383991E-01  0.19401500667E-01  0.12078281166E+00  0.12778189039E+00  0.21065075974E-01 0.  0.
         14    1    1    2    0    0  0.11842471422E-02  0.79072683762E-02  0.22307029904E-01  0.23696643593E-01  0.00000000000E+00 0.  1.
     999901    1    3    3    0    0  0.29140136849E-01 -0.27308769043E-01 -0.14308984156E+00  0.89245146602E+00  0.88000000000E+00 0.  1.
        -11    1    4    4    0    0 -0.20059715405E-01  0.23151816367E-01  0.93300434241E-01  0.98201990478E-01  0.51100000000E-03 0. -1.
         11    1    4    4    0    0 -0.10264668586E-01 -0.37503157002E-02  0.27482377419E-01  0.29579899909E-01  0.51100000000E-03 0.  1.
</event>
<event>
 7    1  0.9956970E+004  0.1043930E+01  0.7957747E-01            NaN
         13   -1    0    0    0    0  0.00000000000E+00  0.00000000000E+00  0.74505805969E-08  0.10566000000E+00  0.10566000000E+00 0. -1.
     999900   -1    0    0    0    0 -0.00000000000E+00 -0.00000000000E+00 -0.74505805969E-08  0.93827000000E+00  0.93827000000E+00 0. -1.
     999902    2    1    2    0    0  0.53620863024E-05 -0.22028508166E-01  0.81037892259E-02  0.10204581743E+01  0.10201881978E+01 0.  0.
         14    1    1    2    0    0 -0.53620863024E-05  0.22028508166E-01 -0.81037892259E-02  0.23471825676E-01  0.00000000000E+00 0.  1.
     999901    1    3    3    0    0 -0.77405401103E-02 -0.68197503934E-01  0.78810905095E-01  0.88618393930E+00  0.88000000000E+00 0.  1.
        -11    1    3    3    0    0 -0.34386935326E-01  0.47665984950E-01 -0.88873938793E-02  0.59445389505E-01  0.51100000000E-03 0.  1.
         11    1    3    3    0    0  0.42132837523E-01 -0.14969891828E-02 -0.61819721990E-01  0.74828845523E-01  0.51100000000E-03 0. -1.
</event>
<event>
 8    1  0.9956970E+004  0.1043930E+01  0.7957747E-01            NaN
         13   -1    0    0    0    0  0.00000000000E+00  0.00000000000E+00  0.74505805969E-08  0.10566000000E+00  0.10566000000E+00 0. -1.
     999900   -1    0    0    0    0 -0.00000000000E+00 -0.00000000000E+00 -0.74505805969E-08  0.93827000000E+00  0.93827000000E+00 0.  1.
     999902    2    1    2    0    0  0.14526038147E-01  0.18027884742E-01 -0.52794117921E-02  0.10201837876E+01  0.10199073870E+01 0.  0.
     999903    2    3    3    0    0 -0.61566058900E-01 -0.10458115928E+00 -0.35125744490E-01  0.12793169967E+00  0.20127179894E-01 0.  0.
         14    1    1    2    0    0 -0.14526038147E-01 -0.18027884742E-01  0.52794117921E-02  0.23746212358E-01  0.00000000000E+00 0. -1.
     999901    1    3    3    0    0  0.76092097046E-01  0.12260904402E+00  0.29846332698E-01  0.89225208797E+00  0.88000000000E+00 0. -1.
        -11    1    4    4    0    0 -0.40672200467E-01 -0.56931178489E-01 -0.11993800794E-01  0.70989431280E-01  0.51100000000E-03 0. -1.
         11    1    4    4    0    0 -0.20893858433E-01 -0.47649980791E-01 -0.23131943696E-01  0.56942268393E-01  0.51100000000E-03 0.  1.
</event>
<event>
 8    1  0.1347237E+005  0.1043930E+01  0.7957747E-01            NaN
         13   -1    0    0    0    0  0.00000000000E+00  0.00000000000E+00  0.74505805969E-08  0.10566000000E+00  0.10566000000E+00 0. -1.
     999900   -1    0    0    0    0 -0.00000000000E+00 -0.00000000000E+00 -0.74505805969E-08  0.93827000000E+00  0.93827000000E+00 0. -1.
     999902    2    1    2    0    0 -0.64466091389E-02  0.26527164269E-01 -0.38418432774E-03  0.10166280438E+01  0.10162613752E+01 0.  0.
     999903    2    3    3    0    0  0.36098793486E-03 -0.91231772819E-01  0.82920982274E-01  0.12485830817E+00  0.19757052761E-01 0.  0.
         14    1    1    2    0    0  0.64466091389E-02 -0.26527164269E-01  0.38418432774E-03  0.27301956178E-01  0.00000000000E+00 0.  1.
     999901    1    3    3    0    0 -0.68075970737E-02  0.11775893709E+00 -0.83305166601E-01  0.89176973565E+00  0.88000000000E+00 0. -1.
        -11    1    4    4    0    0 -0.66459312379E-02 -0.39848575748E-01  0.45843658849E-01  0.61106297292E-01  0.51100000000E-03 0.  1.
         11    1    4    4    0    0  0.70069191728E-02 -0.51383197072E-01  0.37077323425E-01  0.63752010878E-01  0.51100000000E-03 0. -1.
</event>
<event>
 8    1  0.9956970E+004  0.1043930E+01  0.7957747E-01            NaN
         13   -1    0    0    0    0  0.00000000000E+00  0.00000000000E+00  0.74505805969E-08  0.10566000000E+00  0.10566000000E+00 0. -1.
     999900   -1    0    0    0    0 -0.00000000000E+00 -0.00000000000E+00 -0.74505805969E-08  0.93827000000E+00  0.93827000000E+00 0. -1.
     999902    2    1    2    0    0 -0.17524573852E-01 -0.14862922145E-01  0.40544149684E-02  0.10205964314E+01  0.10203296626E+01 0.  0.
     999903    2    3    3    0    0 -0.72804217753E-01  0.14758413488E-02 -0.10784991178E+00  0.13163896752E+00  0.19864089905E-01 0.  0.
         14    1    1    2    0    0  0.17524573852E-01  0.14862922145E-01 -0.40544149684E-02  0.23333568611E-01  0.00000000000E+00 0.  1.
     999901    1    3    3    0    0  0.55279643901E-01 -0.16338763494E-01  0.11190432675E+00  0.88895746387E+00  0.88000000000E+00 0.  1.
        -11    1    4    4    0    0 -0.70002450755E-01 -0.77917656751E-03 -0.93316216259E-01  0.11665816545E+00  0.51100000000E-03 0. -1.
         11    1    4    4    0    0 -0.28017669974E-02  0.22550179163E-02 -0.14533695525E-01  0.14980802072E-01  0.51100000000E-03 0.  1.
</event>
<event>
 8    1  0.9956970E+004  0.1043930E+01  0.7957747E-01            NaN
         13   -1    0    0    0    0  0.00000000000E+00  0.00000000000E+00  0.74505805969E-08  0.10566000000E+00  0.10566000000E+00 0.  1.
     999900   -1    0    0    0    0 -0.00000000000E+00 -0.00000000000E+00 -0.74505805969E-08  0.93827000000E+00  0.93827000000E+00 0.  1.
     999902    2    1    2    0    0  0.67381847429E-02 -0.11476605484E-01 -0.16947043668E-01  0.10223819631E+01  0.10221548613E+01 0.  0.
     999903    2    3    3    0    0  0.70985998324E-01  0.90864056455E-01 -0.63364538568E-01  0.13291247147E+00  0.18851302604E-01 0.  0.
         14    1    1    2    0    0 -0.67381847429E-02  0.11476605484E-01  0.16947043668E-01  0.21548036944E-01  0.00000000000E+00 0.  1.
     999901    1    3    3    0    0 -0.64247813581E-01 -0.10234066194E+00  0.46417494900E-01  0.88946949159E+00  0.88000000000E+00 0.  1.
        -11    1    4    4    0    0  0.49440887307E-01  0.69958298771E-01 -0.38465263554E-01  0.93906349764E-01  0.51100000000E-03 0.  1.
         11    1    4    4    0    0  0.21545111017E-01  0.20905757684E-01 -0.24899275014E-01  0.39006121702E-01  0.51100000000E-03 0. -1.
</event>
<event>
 8    1  0.9956970E+004  0.1043930E+01  0.7957747E-01            NaN
         13   -1    0    0    0    0  0.00000000000E+00  0.00000000000E+00  0.74505805969E-08  0.10566000000E+00  0.10566000000E+00 0.  1.
     999900   -1    0    0    0    0 -0.00000000000E+00 -0.00000000000E+00 -0.74505805969E-08  0.93827000000E+00  0.93827000000E+00 0. -1.
     999902    2    1    2    0    0  0.11849027685E-01  0.32684335028E-02 -0.18646543415E-01  0.10215967133E+01  0.10213525684E+01 0.  0.
     999903    2    3    3    0    0 -0.69038481999E-01  0.10988925122E+00 -0.43021375829E-02  0.13136272719E+00  0.19892163745E-01 0.  0.
         14    1    1    2    0    0 -0.11849027685E-01 -0.32684335028E-02  0.18646543415E-01  0.22333286726E-01  0.00000000000E+00 0.  1.
     999901    1    3    3    0    0  0.80887509684E-01 -0.10662081771E+00 -0.14344405832E-01  0.89023398608E+00  0.88000000000E+00 0. -1.
        -11    1    4    4    0    0 -0.23268566542E-01  0.31252032045E-01  0.72773384012E-02  0.39640086669E-01  0.51100000000E-03 0.  1.
         11    1    4    4    0    0 -0.45769915457E-01  0.78637219171E-01 -0.11579475984E-01  0.91722640526E-01  0.51100000000E-03 0. -1.
</event>
<event>
 8    1  0.9956970E+004  0.1043930E+01  0.7957747E-01            NaN
         13   -1    0    0    0    0  0.00000000000E+00  0.00000000000E+00  0.74505805969E-08  0.10566000000E+00  0.10566000000E+00 0.  1.
     999900   -1    0    0    0    0 -0.00000000000E+00 -0.00000000000E+00 -0.74505805969E-08  0.93827000000E+00  0.93827000000E+00 0.  1.
     999902    2    1    2    0    0  0.62946715826E-02 -0.20904395901E-01 -0.85581287609E-02  0.10204809440E+01  0.10202114971E+01 0.  0.
     999903    2    3    3    0    0 -0.76300243106E-01  0.98303969377E-01  0.22622915823E-01  0.12806578737E+00  0.20091094568E-01 0.  0.
         14    1    1    2    0    0 -0.62946715826E-02  0.20904395901E-01  0.85581287609E-02  0.23449055977E-01  0.00000000000E+00 0.  1.
     999901    1    3    3    0    0  0.82594914688E-01 -0.11920836528E+00 -0.31181044584E-01  0.89241515665E+00  0.88000000000E+00 0.  1.
        -11    1    4    4    0    0 -0.46536238267E-01  0.45624008296E-01  0.16631060548E-01  0.67260871991E-01  0.51100000000E-03 0.  1.
         11    1    4    4    0    0 -0.29764004839E-01  0.52679961081E-01  0.59918552742E-02  0.60804915379E-01  0.51100000000E-03 0. -1.
</event>
<event>
 8    1  0.9956970E+004  0.1043930E+01  0.7957747E-01            NaN
         13   -1    0    0    0    0  0.00000000000E+00  0.00000000000E+00  0.74505805969E-08  0.10566000000E+00  0.10566000000E+00 0.  1.
     999900   -1    0    0    0    0 -0.00000000000E+00 -0.00000000000E+00 -0.74505805969E-08  0.93827000000E+00  0.93827000000E+00 0. -1.
     999902    2    1    2    0    0  0.14187681363E-01  0.61472837034E-03  0.14426094958E-01  0.10236869664E+01  0.10234867976E+01 0.  0.
     999903    2    3    3    0    0 -0.12602871521E+00  0.20248247288E-01 -0.24535293796E-01  0.13151876323E+00  0.20049335758E-01 0.  0.
         14    1    1    2    0    0 -0.14187681363E-01 -0.61472837034E-03 -0.14426094958E-01  0.20243033596E-01  0.00000000000E+00 0. -1.
     999901    1    3    3    0    0  0.14021639658E+00 -0.19633518918E-01  0.38961388754E-01  0.89216820317E+00  0.88000000000E+00 0.  1.
        -11    1    4    4    0    0 -0.88312829089E-01  0.23375612973E-01 -0.17904962916E-01  0.93093629651E-01  0.51100000000E-03 0.  1.
         11    1    4    4    0    0 -0.37715886125E-01 -0.31273656852E-02 -0.66303308798E-02  0.38425133583E-01  0.51100000000E-03 0. -1.
</event>
<event>
 8    1  0.9956970E+004  0.1043930E+01  0.7957747E-01            NaN
         13   -1    0    0    0    0  0.00000000000E+00  0.00000000000E+00  0.74505805969E-08  0.10566000000E+00  0.10566000000E+00 0.  1.
     999900   -1    0    0    0    0 -0.00000000000E+00 -0.00000000000E+00 -0.74505805969E-08  0.93827000000E+00  0.93827000000E+00 0. -1.
     999902    2    1    2    0    0  0.20655080966E-01  0.84550091297E-02  0.77524924126E-02  0.10203033056E+01  0.10200297127E+01 0.  0.
     999903    2    3    3    0    0 -0.44046492772E-01 -0.10171702867E+00  0.63898330604E-01  0.12930581588E+00  0.18722978391E-01 0.  0.
         14    1    1    2    0    0 -0.20655080966E-01 -0.84550091297E-02 -0.77524924126E-02  0.23626694388E-01  0.00000000000E+00 0. -1.
     999901    1    3    3    0    0  0.64701573738E-01  0.11017203780E+00 -0.56145838191E-01  0.89099748973E+00  0.88000000000E+00 0. -1.
        -11    1    4    4    0    0 -0.24136976701E-01 -0.54869137630E-01  0.23772932366E-01  0.64487435543E-01  0.51100000000E-03 0.  1.
         11    1    4    4    0    0 -0.19909516071E-01 -0.46847891042E-01  0.40125398237E-01  0.64818380340E-01  0.51100000000E-03 0. -1.
</event>
<event>
 8    1  0.9956970E+004  0.1043930E+01  0.7957747E-01            NaN
         13   -1    0    0    0    0  0.00000000000E+00  0.00000000000E+00  0.74505805969E-08  0.10566000000E+00  0.10566000000E+00 0. -1.
     999900   -1    0    0    0    0 -0.00000000000E+00 -0.00000000000E+00 -0.74505805969E-08  0.93827000000E+00  0.93827000000E+00 0.  1.
     999902    2    1    2    0    0 -0.33502846430E-02  0.26136152636E-01 -0.32654801094E-02  0.10173784230E+01  0.10170318920E+01 0.  0.
     999903    2    3    3    0    0 -0.57217874356E-01  0.74533915513E-01 -0.88078168111E-01  0.13033994990E+00  0.20038690970E-01 0.  0.
         14    1    1    2    0    0  0.33502846430E-02 -0.26136152636E-01  0.32654801094E-02  0.26551577018E-01  0.00000000000E+00 0.  1.
     999901    1    3    3    0    0  0.53867589713E-01 -0.48397762877E-01  0.84812688002E-01  0.88703847308E+00  0.88000000000E+00 0. -1.
        -11    1    4    4    0    0 -0.48386355841E-01  0.71816900267E-01 -0.76764806619E-01  0.11572382318E+00  0.51100000000E-03 0.  1.
         11    1    4    4    0    0 -0.88315185148E-02  0.27170152459E-02 -0.11313361492E-01  0.14616126723E-01  0.51100000000E-03 0. -1.
</event>
<event>
 8    1  0.9956970E+004  0.1043930E+01  0.7957747E-01            NaN
         13   -1    0    0    0    0  0.00000000000E+00  0.00000000000E+00  0.74505805969E-08  0.10566000000E+00  0.10566000000E+00 0.  1.
     999900   -1    0    0    0    0 -0.00000000000E+00 -0.00000000000E+00 -0.74505805969E-08  0.93827000000E+00  0.93827000000E+00 0.  1.
     999902    2    1    2    0    0  0.71237137441E-02 -0.19449499594E-01  0.11180153914E-01  0.10203922394E+01  0.10201207262E+01 0.  0.
     999903    2    3    3    0    0  0.87197329874E-03  0.12311641547E+00  0.31736704765E-01  0.12865982653E+00  0.19690618054E-01 0.  0.
         14    1    1    2    0    0 -0.71237137441E-02  0.19449499594E-01 -0.11180153914E-01  0.23537760588E-01  0.00000000000E+00 0.  1.
     999901    1    3    3    0    0  0.62517404454E-02 -0.14256591506E+00 -0.20556550851E-01  0.89173241288E+00  0.88000000000E+00 0.  1.
        -11    1    4    4    0    0  0.10122356397E-01  0.60589862348E-01  0.17336156361E-01  0.63831003100E-01  0.51100000000E-03 0.  1.
         11    1    4    4    0    0 -0.92503830981E-02  0.62526553119E-01  0.14400548404E-01  0.64828823433E-01  0.51100000000E-03 0. -1.
</event>
<event>
 8    1  0.9956970E+004  0.1043930E+01  0.7957747E-01            NaN
         13   -1    0    0    0    0  0.00000000000E+00  0.00000000000E+00  0.74505805969E-08  0.10566000000E+00  0.10566000000E+00 0.  1.
     999900   -1    0    0    0    0 -0.00000000000E+00 -0.00000000000E+00 -0.74505805969E-08  0.93827000000E+00  0.93827000000E+00 0. -1.
     999902    2    1    2    0    0 -0.18506126524E-01 -0.17147601565E-01 -0.20395886828E-03  0.10186998879E+01  0.10183874032E+01 0.  0.
     999903    2    3    3    0    0  0.73021696143E-01 -0.80697370411E-01  0.66413143369E-01  0.12917543417E+00  0.20769051049E-01 0.  0.
         14    1    1    2    0    0  0.18506126524E-01  0.17147601565E-01  0.20395886828E-03  0.25230112119E-01  0.00000000000E+00 0.  1.
     999901    1    3    3    0    0 -0.91527822667E-01  0.63549768846E-01 -0.66617102237E-01  0.88952445371E+00  0.88000000000E+00 0. -1.
        -11    1    4    4    0    0  0.21164831439E-01 -0.38460666014E-01  0.27155918926E-01  0.51622456100E-01  0.51100000000E-03 0. -1.
         11    1    4    4    0    0  0.51856864704E-01 -0.42236704397E-01  0.39257224443E-01  0.77552978068E-01  0.51100000000E-03 0.  1.
</event>
<event>
 8    1  0.9956970E+004  0.1043930E+01  0.7957747E-01            NaN
         13   -1    0    0    0    0  0.00000000000E+00  0.00000000000E+00  0.74505805969E-08  0.10566000000E+00  0.10566000000E+00 0.  1.
     999900   -1    0    0    0    0 -0.00000000000E+00 -0.00000000000E+00 -0.74505805969E-08  0.93827000000E+00  0.93827000000E+00 0. -1.
     999902    2    1    2    0    0 -0.65401408960E-02  0.10126199833E-01 -0.20730045152E-01  0.10199498387E+01  0.10196678995E+01 0.  0.
     999903    2    3    3    0    0  0.91511862236E-01  0.60294215033E-01  0.64876284693E-01  0.12896192136E+00  0.20308410773E-01 0.  0.
         14    1    1    2    0    0  0.65401408960E-02 -0.10126199833E-01  0.20730045152E-01  0.23980161342E-01  0.00000000000E+00 0.  1.
     999901    1    3    3    0    0 -0.98052003132E-01 -0.50168015200E-01 -0.85606329844E-01  0.89098791730E+00  0.88000000000E+00 0. -1.
        -11    1    4    4    0    0  0.41363984248E-01  0.38657610989E-01  0.28990001715E-01  0.63608736827E-01  0.51100000000E-03 0.  1.
         11    1    4    4    0    0  0.50147877988E-01  0.21636604044E-01  0.35886282978E-01  0.65353184530E-01  0.51100000000E-03 0. -1.
</event>
<event>
 7    1  0.9956970E+004  0.1043930E+01  0.7957747E-01            NaN
         13   -1    0    0    0    0  0.00000000000E+00  0.00000000000E+00  0.74505805969E-08  0.10566000000E+00  0.10566000000E+00 0. -1.
     999900   -1    0    0    0    0 -0.00000000000E+00 -0.00000000000E+00 -0.74505805969E-08  0.93827000000E+00  0.93827000000E+00 0.  1.
     999903    2    1    2    0    0  0.33801431598E-01 -0.68077957350E-01  0.71091433922E-01  0.10577008425E+00  0.18872564461E-01 0.  0.
         14    1    1    2    0    0  0.21894894441E-02 -0.37830050242E-01 -0.33021979368E-01  0.50262885778E-01  0.00000000000E+00 0.  1.
     999901    1    1    2    0    0 -0.35990921043E-01  0.10590800759E+00 -0.38069454554E-01  0.88789702998E+00  0.88000000000E+00 0. -1.
        -11    1    3    3    0    0  0.23543025692E-01 -0.29397831211E-01  0.27802923763E-01  0.46816345750E-01  0.51100000000E-03 0.  1.
         11    1    3    3    0    0  0.10258405907E-01 -0.38680126139E-01  0.43288510160E-01  0.58953738496E-01  0.51100000000E-03 0. -1.
</event>
<event>
 8    1  0.9956970E+004  0.1043930E+01  0.7957747E-01            NaN
         13   -1    0    0    0    0  0.00000000000E+00  0.00000000000E+00  0.74505805969E-08  0.10566000000E+00  0.10566000000E+00 0. -1.
     999900   -1    0    0    0    0 -0.00000000000E+00 -0.00000000000E+00 -0.74505805969E-08  0.93827000000E+00  0.93827000000E+00 0.  1.
     999902    2    1    2    0    0  0.11960875095E-01 -0.20151710692E-01 -0.11469468440E-03  0.10204956847E+01  0.10202265804E+01 0.  0.
     999903    2    3    3    0    0 -0.10492249205E+00 -0.38703736784E-01  0.64910402336E-01  0.13019564406E+00  0.15193315029E-01 0.  0.
         14    1    1    2    0    0 -0.11960875095E-01  0.20151710692E-01  0.11469468440E-03  0.23434315260E-01  0.00000000000E+00 0.  1.
     999901    1    3    3    0    0  0.11688336715E+00  0.18552026092E-01 -0.65025097020E-01  0.89030004068E+00  0.88000000000E+00 0. -1.
        -11    1    4    4    0    0 -0.61494362229E-01 -0.29437289967E-01  0.43698568702E-01  0.80981088250E-01  0.51100000000E-03 0. -1.
         11    1    4    4    0    0 -0.43428129824E-01 -0.92664468169E-02  0.21211833634E-01  0.49214555812E-01  0.51100000000E-03 0.  1.
</event>
<event>
 8    1  0.9956970E+004  0.1043930E+01  0.7957747E-01            NaN
         13   -1    0    0    0    0  0.00000000000E+00  0.00000000000E+00  0.74505805969E-08  0.10566000000E+00  0.10566000000E+00 0.  1.
     999900   -1    0    0    0    0 -0.00000000000E+00 -0.00000000000E+00 -0.74505805969E-08  0.93827000000E+00  0.93827000000E+00 0. -1.
     999902    2    1    2    0    0 -0.12287190297E-01  0.15871329151E-01  0.14096654498E-01  0.10194026723E+01  0.10191075599E+01 0.  0.
     999903    2    3    3    0    0  0.91873559476E-01 -0.63140727126E-01  0.60144470571E-01  0.12855320795E+00  0.21933252856E-01 0.  0.
         14    1    1    2    0    0  0.12287190297E-01 -0.15871329151E-01 -0.14096654498E-01  0.24527327666E-01  0.00000000000E+00 0. -1.
     999901    1    3    3    0    0 -0.10416074977E+00  0.79012056276E-01 -0.46047816073E-01  0.89084946439E+00  0.88000000000E+00 0.  1.
        -11    1    4    4    0    0  0.29508596649E-01 -0.12744704252E-01  0.26237591406E-01  0.41495265832E-01  0.51100000000E-03 0. -1.
         11    1    4    4    0    0  0.62364962827E-01 -0.50396022873E-01  0.33906879165E-01  0.87057942117E-01  0.51100000000E-03 0.  1.
</event>
<event>
 8    1  0.9956970E+004  0.1043930E+01  0.7957747E-01            NaN
         13   -1    0    0    0    0  0.00000000000E+00  0.00000000000E+00  0.74505805969E-08  0.10566000000E+00  0.10566000000E+00 0. -1.
     999900   -1    0    0    0    0 -0.00000000000E+00 -0.00000000000E+00 -0.74505805969E-08  0.93827000000E+00  0.93827000000E+00 0. -1.
     999902    2    1    2    0    0 -0.93390951622E-02 -0.18679174934E-01 -0.10663483635E-01  0.10204813293E+01  0.10202118914E+01 0.  0.
     999903    2    3    3    0    0 -0.19433693613E-01 -0.51345323430E-01 -0.11947622329E+00  0.13312052867E+00  0.20796551048E-01 0.  0.
         14    1    1    2    0    0  0.93390951622E-02  0.18679174934E-01  0.10663483635E-01  0.23448670706E-01  0.00000000000E+00 0.  1.
     999901    1    3    3    0    0  0.10094598451E-01  0.32666148496E-01  0.10881273966E+00  0.88736080063E+00  0.88000000000E+00 0.  1.
        -11    1    4    4    0    0 -0.13959102579E-01 -0.19931972501E-01 -0.33407766173E-01  0.41333763854E-01  0.51100000000E-03 0.  1.
         11    1    4    4    0    0 -0.54745910340E-02 -0.31413350928E-01 -0.86068457118E-01  0.91786764815E-01  0.51100000000E-03 0. -1.
</event>
<event>
 8    1  0.9956970E+004  0.1043930E+01  0.7957747E-01            NaN
         13   -1    0    0    0    0  0.00000000000E+00  0.00000000000E+00  0.74505805969E-08  0.10566000000E+00  0.10566000000E+00 0.  1.
     999900   -1    0    0    0    0 -0.00000000000E+00 -0.00000000000E+00 -0.74505805969E-08  0.93827000000E+00  0.93827000000E+00 0.  1.
     999902    2    1    2    0    0 -0.20692845060E-01 -0.47118269620E-03  0.10785401454E-01  0.10205903185E+01  0.10203234082E+01 0.  0.
     999903    2    3    3    0    0 -0.37235577664E-03 -0.53450615458E-02  0.13060465233E+00  0.13222478004E+00  0.19927591751E-01 0.  0.
         14    1    1    2    0    0  0.20692845060E-01  0.47118269620E-03 -0.10785401454E-01  0.23339681539E-01  0.00000000000E+00 0. -1.
     999901    1    3    3    0    0 -0.20320489284E-01  0.48738788496E-02 -0.11981925088E+00  0.88836553842E+00  0.88000000000E+00 0.  1.
        -11    1    4    4    0    0 -0.81689589155E-02 -0.71161441979E-02  0.10009103769E+00  0.10067695041E+00  0.51100000000E-03 0. -1.
         11    1    4    4    0    0  0.77966031388E-02  0.17710826521E-02  0.30513614646E-01  0.31547829625E-01  0.51100000000E-03 0.  1.
</event>
<event>
 8    1  0.9956970E+004  0.1043930E+01  0.7957747E-01            NaN
         13   -1    0    0    0    0  0.00000000000E+00  0.00000000000E+00  0.74505805969E-08  0.10566000000E+00  0.10566000000E+00 0. -1.
     999900   -1    0    0    0    0 -0.00000000000E+00 -0.00000000000E+00 -0.74505805969E-08  0.93827000000E+00  0.93827000000E+00 0. -1.
     999902    2    1    2    0    0 -0.19824154933E-01 -0.94535979319E-02 -0.76338390800E-02  0.10206782660E+01  0.10204133866E+01 0.  0.
     999903    2    3    3    0    0  0.17372482056E-01 -0.11607583924E+00 -0.57094820762E-01  0.13208483773E+00  0.20277628372E-01 0.  0.
         14    1    1    2    0    0  0.19824154933E-01  0.94535979319E-02  0.76338390800E-02  0.23251733952E-01  0.00000000000E+00 0.  1.
     999901    1    3    3    0    0 -0.37196636989E-01  0.10662224131E+00  0.49460981682E-01  0.88859342832E+00  0.88000000000E+00 0.  1.
        -11    1    4    4    0    0  0.40708088624E-02 -0.27298182909E-02 -0.15893516161E-02  0.51778907148E-02  0.51100000000E-03 0.  1.
         11    1    4    4    0    0  0.13301673194E-01 -0.11334602095E+00 -0.55505469146E-01  0.12690694701E+00  0.51100000000E-03 0. -1.
</event>
<event>
 8    1  0.9956970E+004  0.1043930E+01  0.7957747E-01            NaN
         13   -1    0    0    0    0  0.00000000000E+00  0.00000000000E+00  0.74505805969E-08  0.10566000000E+00  0.10566000000E+00 0.  1.
     999900   -1    0    0    0    0 -0.00000000000E+00 -0.00000000000E+00 -0.74505805969E-08  0.93827000000E+00  0.93827000000E+00 0. -1.
     999902    2    1    2    0    0  0.15130788375E-01  0.59842945302E-02 -0.18648506447E-01  0.10191808721E+01  0.10188803319E+01 0.  0.
     999903    2    3    3    0    0  0.11289733745E+00 -0.10904065933E-01 -0.65208430409E-01  0.13238250645E+00  0.20205968461E-01 0.  0.
         14    1    1    2    0    0 -0.15130788375E-01 -0.59842945302E-02  0.18648506447E-01  0.24749127876E-01  0.00000000000E+00 0.  1.
     999901    1    3    3    0    0 -0.97766549074E-01  0.16888360463E-01  0.46559923962E-01  0.88679836567E+00  0.88000000000E+00 0. -1.
        -11    1    4    4    0    0  0.79316845464E-01 -0.17969136922E-02 -0.36782839758E-01  0.87450724953E-01  0.51100000000E-03 0. -1.
         11    1    4    4    0    0  0.33580491985E-01 -0.91071522407E-02 -0.28425590651E-01  0.44931781500E-01  0.51100000000E-03 0.  1.
</event>
<event>
 8    1  0.9956970E+004  0.1043930E+01  0.7957747E-01            NaN
         13   -1    0    0    0    0  0.00000000000E+00  0.00000000000E+00  0.74505805969E-08  0.10566000000E+00  0.10566000000E+00 0. -1.
     999900   -1    0    0    0    0 -0.00000000000E+00 -0.00000000000E+00 -0.74505805969E-08  0.93827000000E+00  0.93827000000E+00 0. -1.
     999902    2    1    2    0    0  0.18993768580E-03  0.91180382113E-03  0.22988404130E-01  0.10209227362E+01  0.10206634603E+01 0.  0.
     999903    2    3    3    0    0  0.98173769988E-01 -0.11019583900E-01  0.87313882413E-01  0.13307085861E+00  0.18017186411E-01 0.  0.
         14    1    1    2    0    0 -0.18993768580E-03 -0.91180382113E-03 -0.22988404130E-01  0.23007263788E-01  0.00000000000E+00 0.  1.
     999901    1    3    3    0    0 -0.97983832302E-01  0.11931387721E-01 -0.64325478283E-01  0.88785187760E+00  0.88000000000E+00 0. -1.
        -11    1    4    4    0    0  0.71543751454E-01 -0.77712257266E-02  0.73598727894E-01  0.10293655420E+00  0.51100000000E-03 0.  1.
         11    1    4    4    0    0  0.26630018535E-01 -0.32483581734E-02  0.13715154519E-01  0.30134304413E-01  0.51100000000E-03 0. -1.
</event>
<event>
 8    1  0.9956970E+004  0.1043930E+01  0.7957747E-01            NaN
         13   -1    0    0    0    0  0.00000000000E+00  0.00000000000E+00  0.74505805969E-08  0.10566000000E+00  0.10566000000E+00 0. -1.
     999900   -1    0    0    0    0 -0.00000000000E+00 -0.00000000000E+00 -0.74505805969E-08  0.93827000000E+00  0.93827000000E+00 0. -1.
     999902    2    1    2    0    0  0.21335689367E-01 -0.88385018004E-02  0.14489885821E-02  0.10207906326E+01  0.10205283364E+01 0.  0.
     999903    2    3    3    0    0  0.12051955901E+00 -0.30806873373E-01  0.45354459848E-01  0.13385898939E+00  0.19676749293E-01 0.  0.
         14    1    1    2    0    0 -0.21335689367E-01  0.88385018004E-02 -0.14489885821E-02  0.23139367380E-01  0.00000000000E+00 0.  1.
     999901    1    3    3    0    0 -0.99183869642E-01  0.21968371572E-01 -0.43905471266E-01  0.88693164323E+00  0.88000000000E+00 0. -1.
        -11    1    4    4    0    0  0.21878352528E-01 -0.83208200406E-02  0.16529827629E-01  0.28659983914E-01  0.51100000000E-03 0.  1.
         11    1    4    4    0    0  0.98641206481E-01 -0.22486053332E-01  0.28824632219E-01  0.10519900548E+00  0.51100000000E-03 0. -1.
</event>
<event>
 8    1  0.9956970E+004  0.1043930E+01  0.7957747E-01            NaN
         13   -1    0    0    0    0  0.00000000000E+00  0.00000000000E+00  0.74505805969E-08  0.10566000000E+00  0.10566000000E+00 0.  1.
     999900   -1    0    0    0    0 -0.00000000000E+00 -0.00000000000E+00 -0.74505805969E-08  0.93827000000E+00  0.93827000000E+00 0. -1.
     999902    2    1    2    0    0  0.17522670426E-01  0.15392037537E-01  0.10279027120E-01  0.10184424109E+01  0.10181234342E+01 0.  0.
     999903    2    3    3    0    0  0.30198541307E-01 -0.11423209866E+00  0.45353940555E-01  0.12816529455E+00  0.20209862496E-01 0.  0.
         14    1    1    2    0    0 -0.17522670426E-01 -0.15392037537E-01 -0.10279027120E-01  0.25487589077E-01  0.00000000000E+00 0.  1.
     999901    1    3    3    0    0 -0.12675870881E-01  0.12962413620E+00 -0.35074913435E-01  0.89027711637E+00  0.88000000000E+00 0. -1.
        -11    1    4    4    0    0  0.63036684864E-02 -0.75170726238E-02  0.12979434725E-03  0.98244890346E-02  0.51100000000E-03 0.  1.
         11    1    4    4    0    0  0.23894872821E-01 -0.10671502603E+00  0.45224146208E-01  0.11834080551E+00  0.51100000000E-03 0. -1.
</event>
<event>
 8    1  0.9956970E+004  0.1043930E+01  0.7957747E-01            NaN
         13   -1    0    0    0    0  0.00000000000E+00  0.00000000000E+00  0.74505805969E-08  0.10566000000E+00  0.10566000000E+00 0. -1.
     999900   -1    0    0    0    0 -0.00000000000E+00 -0.00000000000E+00 -0.74505805969E-08  0.93827000000E+00  0.93827000000E+00 0.  1.
     999902    2    1    2    0    0 -0.13813195658E-01  0.59309663381E-02 -0.17523276322E-01  0.10208422121E+01  0.10205810973E+01 0.  0.
     999903    2    3    3    0    0  0.53795394073E-02  0.54270315796E-01  0.11552735176E+00  0.12932242916E+00  0.20087684205E-01 0.  0.
         14    1    1    2    0    0  0.13813195658E-01 -0.59309663381E-02  0.17523276322E-01  0.23087787877E-01  0.00000000000E+00 0.  1.
     999901    1    3    3    0    0 -0.19192735065E-01 -0.48339349458E-01 -0.13305062809E+00  0.89151978297E+00  0.88000000000E+00 0.  1.
        -11    1    4    4    0    0  0.95346666433E-02  0.18559779867E-01  0.56195191418E-01  0.59946108766E-01  0.51100000000E-03 0.  1.
         11    1    4    4    0    0 -0.41551272359E-02  0.35710535929E-01  0.59332160346E-01  0.69376320391E-01  0.51100000000E-03 0. -1.
</event>
<event>
 8    1  0.9956970E+004  0.1043930E+01  0.7957747E-01            NaN
         13   -1    0    0    0    0  0.00000000000E+00  0.00000000000E+00  0.74505805969E-08  0.10566000000E+00  0.10566000000E+00 0. -1.
     999900   -1    0    0    0    0 -0.00000000000E+00 -0.00000000000E+00 -0.74505805969E-08  0.93827000000E+00  0.93827000000E+00 0. -1.
     999902    2    1    2    0    0  0.13898957146E-01  0.78498578835E-02  0.17616806889E-01  0.10201570498E+01  0.10198800189E+01 0.  0.
     999903    2    3    3    0    0  0.97808495118E-02  0.10367487647E+00  0.81339216149E-01  0.13265497176E+00  0.11710184528E-01 0.  0.
         14    1    1    2    0    0 -0.13898957146E-01 -0.78498578835E-02 -0.17616806889E-01  0.23772950248E-01  0.00000000000E+00 0.  1.
     999901    1    3    3    0    0  0.41181076340E-02 -0.95825018583E-01 -0.63722409260E-01  0.88750207799E+00  0.88000000000E+00 0. -1.
        -11    1    4    4    0    0 -0.75078400827E-03  0.49914343591E-01  0.41439517002E-01  0.64880660162E-01  0.51100000000E-03 0.  1.
         11    1    4    4    0    0  0.10531633520E-01  0.53760532875E-01  0.39899699147E-01  0.67774311599E-01  0.51100000000E-03 0. -1.
</event>
<event>
 8    1  0.9956970E+004  0.1043930E+01  0.7957747E-01            NaN
         13   -1    0    0    0    0  0.00000000000E+00  0.00000000000E+00  0.74505805969E-08  0.10566000000E+00  0.10566000000E+00 0.  1.
     999900   -1    0    0    0    0 -0.00000000000E+00 -0.00000000000E+00 -0.74505805969E-08  0.93827000000E+00  0.93827000000E+00 0.  1.
     999902    2    1    2    0    0 -0.17927839765E-01  0.14909151780E-01 -0.43944029674E-02  0.10202023574E+01  0.10199263939E+01 0.  0.
     999903    2    3    3    0    0  0.94303645503E-01 -0.75422409740E-01  0.35070335380E-01  0.12761445537E+00  0.21767024374E-01 0.  0.
         14    1    1    2    0    0  0.17927839765E-01 -0.14909151780E-01  0.43944029674E-02  0.23727642590E-01  0.00000000000E+00 0.  1.
     999901    1    3    3    0    0 -0.11223148527E+00  0.90331561520E-01 -0.39464738347E-01  0.89258790204E+00  0.88000000000E+00 0.  1.
        -11    1    4    4    0    0  0.38738964527E-01 -0.17778817094E-01  0.12902510383E-01  0.44536834250E-01  0.51100000000E-03 0.  1.
         11    1    4    4    0    0  0.55564680977E-01 -0.57643592646E-01  0.22167824997E-01  0.83077621122E-01  0.51100000000E-03 0. -1.
</event>
<event>
 8    1  0.9956970E+004  0.1043930E+01  0.7957747E-01            NaN
         13   -1    0    0    0    0  0.00000000000E+00  0.00000000000E+00  0.74505805969E-08  0.10566000000E+00  0.10566000000E+00 0. -1.
     999900   -1    0    0    0    0 -0.00000000000E+00 -0.00000000000E+00 -0.74505805969E-08  0.93827000000E+00  0.93827000000E+00 0.  1.
     999902    2    1    2    0    0 -0.15020727775E-01 -0.86678328731E-02  0.15905923924E-01  0.10203980641E+01  0.10201266869E+01 0.  0.
     999903    2    3    3    0    0  0.51947351885E-01 -0.80547954040E-01  0.87564973197E-01  0.13203637268E+00  0.24072368197E-01 0.  0.
         14    1    1    2    0    0  0.15020727775E-01  0.86678328731E-02 -0.15905923924E-01  0.23531935863E-01  0.00000000000E+00 0.  1.
     999901    1    3    3    0    0 -0.66968079660E-01  0.71880121167E-01 -0.71659049273E-01  0.88836169146E+00  0.88000000000E+00 0.  1.
        -11    1    4    4    0    0  0.13057674818E-01 -0.16638478846E-01  0.33920724751E-01  0.39977725531E-01  0.51100000000E-03 0. -1.
         11    1    4    4    0    0  0.38889677066E-01 -0.63909475194E-01  0.53644248445E-01  0.92058647145E-01  0.51100000000E-03 0.  1.
</event>
<event>
 8    1  0.9956970E+004  0.1043930E+01  0.7957747E-01            NaN
         13   -1    0    0    0    0  0.00000000000E+00  0.00000000000E+00  0.74505805969E-08  0.10566000000E+00  0.10566000000E+00 0. -1.
     999900   -1    0    0    0    0 -0.00000000000E+00 -0.00000000000E+00 -0.74505805969E-08  0.93827000000E+00  0.93827000000E+00 0. -1.
     999902    2    1    2    0    0  0.21156085243E-01  0.75047499725E-02  0.51389948967E-02  0.10209015288E+01  0.10206417692E+01 0.  0.
     999903    2    3    3    0    0  0.39252608469E-01 -0.46363733906E-01 -0.11405050548E+00  0.13105017345E+00  0.21823543868E-01 0.  0.
         14    1    1    2    0    0 -0.21156085243E-01 -0.75047499725E-02 -0.51389948967E-02  0.23028471150E-01  0.00000000000E+00 0.  1.
     999901    1    3    3    0    0 -0.18096523226E-01  0.53868483878E-01  0.11918950038E+00  0.88985135540E+00  0.88000000000E+00 0.  1.
        -11    1    4    4    0    0  0.32887970895E-01 -0.34632291671E-01 -0.10363815950E+00  0.11411460679E+00  0.51100000000E-03 0.  1.
         11    1    4    4    0    0  0.63646375738E-02 -0.11731442235E-01 -0.10412345977E-01  0.16935566660E-01  0.51100000000E-03 0. -1.
</event>
<event>
 8    1  0.9956970E+004  0.1043930E+01  0.7957747E-01            NaN
         13   -1    0    0    0    0  0.00000000000E+00  0.00000000000E+00  0.74505805969E-08  0.10566000000E+00  0.10566000000E+00 0. -1.
     999900   -1    0    0    0    0 -0.00000000000E+00 -0.00000000000E+00 -0.74505805969E-08  0.93827000000E+00  0.93827000000E+00 0. -1.
     999902    2    1    2    0    0  0.20468976370E-01 -0.35185978951E-02  0.94893674396E-02  0.10210956483E+01  0.10208402986E+01 0.  0.
     999903    2    3    3    0    0  0.67675982873E-01  0.11140515117E+00 -0.77807076800E-02  0.13220070225E+00  0.20623770201E-01 0.  0.
         14    1    1    2    0    0 -0.20468976370E-01  0.35185978951E-02 -0.94893674396E-02  0.22834351736E-01  0.00000000000E+00 0.  1.
     999901    1    3    3    0    0 -0.47207006503E-01 -0.11492374907E+00  0.17270075120E-01  0.88889494602E+00  0.88000000000E+00 0. -1.
        -11    1    4    4    0    0  0.65059718606E-01  0.11039209918E+00 -0.50277272772E-02  0.12823697482E+00  0.51100000000E-03 0. -1.
         11    1    4    4    0    0  0.26162642671E-02  0.10130519857E-02 -0.27529804029E-02  0.39637274300E-02  0.51100000000E-03 0.  1.
</event>
<event>
 8    1  0.9956970E+004  0.1043930E+01  0.7957747E-01            NaN
         13   -1    0    0    0    0  0.00000000000E+00  0.00000000000E+00  0.74505805969E-08  0.10566000000E+00  0.10566000000E+00 0.  1.
     999900   -1    0    0    0    0 -0.00000000000E+00 -0.00000000000E+00 -0.74505805969E-08  0.93827000000E+00  0.93827000000E+00 0. -1.
     999902    2    1    2    0    0 -0.11247978721E-02 -0.19982656921E-01 -0.11602814032E-01  0.10207956740E+01  0.10205334933E+01 0.  0.
     999903    2    3    3    0    0 -0.51099533007E-02 -0.77051531260E-01  0.10429536916E+00  0.13135476713E+00  0.20334717295E-01 0.  0.
         14    1    1    2    0    0  0.11247978721E-02  0.19982656921E-01  0.11602814032E-01  0.23134326040E-01  0.00000000000E+00 0.  1.
     999901    1    3    3    0    0  0.39851554286E-02  0.57068874339E-01 -0.11589818319E+00  0.88944090683E+00  0.88000000000E+00 0. -1.
        -11    1    4    4    0    0 -0.37599548037E-02 -0.43788223354E-01  0.42386448659E-01  0.61060772313E-01  0.51100000000E-03 0.  1.
         11    1    4    4    0    0 -0.13499984971E-02 -0.33263307906E-01  0.61908920496E-01  0.70293994813E-01  0.51100000000E-03 0. -1.
</event>
<event>
 8    1  0.9956970E+004  0.1043930E+01  0.7957747E-01            NaN
         13   -1    0    0    0    0  0.00000000000E+00  0.00000000000E+00  0.74505805969E-08  0.10566000000E+00  0.10566000000E+00 0. -1.
     999900   -1    0    0    0    0 -0.00000000000E+00 -0.00000000000E+00 -0.74505805969E-08  0.93827000000E+00  0.93827000000E+00 0. -1.
     999902    2    1    2    0    0  0.89057157076E-02  0.15602270191E-01 -0.15779291952E-01  0.10200191518E+01  0.10197388594E+01 0.  0.
     999903    2    3    3    0    0  0.12438757280E+00  0.16524676566E-01 -0.36897377481E-01  0.13222250634E+00  0.19391789843E-01 0.  0.
         14    1    1    2    0    0 -0.89057157076E-02 -0.15602270191E-01  0.15779291952E-01  0.23910848205E-01  0.00000000000E+00 0.  1.
     999901    1    3    3    0    0 -0.11548185710E+00 -0.92240637510E-03  0.21118085529E-01  0.88779664546E+00  0.88000000000E+00 0. -1.
        -11    1    4    4    0    0  0.88591020853E-01  0.77789611129E-02 -0.17731820575E-01  0.90683845274E-01  0.51100000000E-03 0. -1.
         11    1    4    4    0    0  0.35796551950E-01  0.87457154527E-02 -0.19165556906E-01  0.41538661062E-01  0.51100000000E-03 0.  1.
</event>
<event>
 8    1  0.9956970E+004  0.1043930E+01  0.7957747E-01            NaN
         13   -1    0    0    0    0  0.00000000000E+00  0.00000000000E+00  0.74505805969E-08  0.10566000000E+00  0.10566000000E+00 0. -1.
     999900   -1    0    0    0    0 -0.00000000000E+00 -0.00000000000E+00 -0.74505805969E-08  0.93827000000E+00  0.93827000000E+00 0.  1.
     999902    2    1    2    0    0 -0.86203552240E-02  0.10506888817E-01 -0.19718598625E-01  0.10199815477E+01  0.10197003625E+01 0.  0.
     999903    2    3    3    0    0 -0.85259358828E-01 -0.93296203227E-01 -0.24466210427E-01  0.13055973627E+00  0.21769462057E-01 0.  0.
         14    1    1    2    0    0  0.86203552240E-02 -0.10506888817E-01  0.19718598625E-01  0.23948452320E-01  0.00000000000E+00 0. -1.
     999901    1    3    3    0    0  0.76639003604E-01  0.10380309204E+00  0.47476118019E-02  0.88942181141E+00  0.88000000000E+00 0. -1.
        -11    1    4    4    0    0 -0.38613971317E-01 -0.49605542039E-01 -0.22843996302E-02  0.62906503515E-01  0.51100000000E-03 0. -1.
         11    1    4    4    0    0 -0.46645387511E-01 -0.43690661187E-01 -0.22181810797E-01  0.67653232756E-01  0.51100000000E-03 0.  1.
</event>
<event>
 8    1  0.9956970E+004  0.1043930E+01  0.7957747E-01            NaN
         13   -1    0    0    0    0  0.00000000000E+00  0.00000000000E+00  0.74505805969E-08  0.10566000000E+00  0.10566000000E+00 0. -1.
     999900   -1    0    0    0    0 -0.00000000000E+00 -0.00000000000E+00 -0.74505805969E-08  0.93827000000E+00  0.93827000000E+00 0. -1.
     999902    2    1    2    0    0  0.76195097629E-02  0.12282386447E-01 -0.18544762881E-01  0.10204178292E+01  0.10201469129E+01 0.  0.
     999903    2    3    3    0    0  0.12750481404E+00  0.13986292829E-01  0.20305864764E-01  0.13143821146E+00  0.20262805750E-01 0.  0.
         14    1    1    2    0    0 -0.76195097629E-02 -0.12282386447E-01  0.18544762881E-01  0.23512170809E-01  0.00000000000E+00 0. -1.
     999901    1    3    3    0    0 -0.11988530428E+00 -0.17039063824E-02 -0.38850627645E-01  0.88897961773E+00  0.88000000000E+00 0. -1.
        -11    1    4    4    0    0  0.27860990499E-01 -0.37313322881E-02 -0.47660490139E-03  0.28118426440E-01  0.51100000000E-03 0.  1.
         11    1    4    4    0    0  0.99643823540E-01  0.17717625117E-01  0.20782469665E-01  0.10331978502E+00  0.51100000000E-03 0. -1.
</event>
<event>
 8    1  0.9956970E+004  0.1043930E+01  0.7957747E-01            NaN
         13   -1    0    0    0    0  0.00000000000E+00  0.00000000000E+00  0.74505805969E-08  0.10566000000E+00  0.10566000000E+00 0. -1.
     999900   -1    0    0    0    0 -0.00000000000E+00 -0.00000000000E+00 -0.74505805969E-08  0.93827000000E+00  0.93827000000E+00 0.  1.
     999902    2    1    2    0    0  0.16671910184E-01 -0.16540305727E-01  0.24266694833E-03  0.10204439788E+01  0.10201736719E+01 0.  0.
     999903    2    3    3    0    0 -0.21771814066E-01  0.49448372540E-01  0.11611302724E+00  0.12956892251E+00  0.19665125279E-01 0.  0.
         14    1    1    2    0    0 -0.16671910184E-01  0.16540305727E-01 -0.24266694833E-03  0.23486021161E-01  0.00000000000E+00 0. -1.
     999901    1    3    3    0    0  0.38443724250E-01 -0.65988678267E-01 -0.11587036029E+00  0.89087505633E+00  0.88000000000E+00 0.  1.
        -11    1    4    4    0    0 -0.60428258399E-02  0.36826630817E-01  0.75648782619E-01  0.84354702976E-01  0.51100000000E-03 0.  1.
         11    1    4    4    0    0 -0.15728988226E-01  0.12621741723E-01  0.40464244617E-01  0.45214219535E-01  0.51100000000E-03 0. -1.
</event>
<event>
 8    1  0.9956970E+004  0.1043930E+01  0.7957747E-01            NaN
         13   -1    0    0    0    0  0.00000000000E+00  0.00000000000E+00  0.74505805969E-08  0.10566000000E+00  0.10566000000E+00 0. -1.
     999900   -1    0    0    0    0 -0.00000000000E+00 -0.00000000000E+00 -0.74505805969E-08  0.93827000000E+00  0.93827000000E+00 0.  1.
     999902    2    1    2    0    0 -0.27218917781E-02  0.14809520326E-01 -0.22753919946E-01  0.10166449957E+01  0.10162787884E+01 0.  0.
     999903    2    3    3    0    0 -0.23357913945E-01 -0.12016658557E+00  0.17414274416E-01  0.12520914359E+00  0.19709699491E-01 0.  0.
         14    1    1    2    0    0  0.27218917781E-02 -0.14809520326E-01  0.22753919946E-01  0.27285004307E-01  0.00000000000E+00 0. -1.
     999901    1    3    3    0    0  0.20636022167E-01  0.13497610590E+00 -0.40168194361E-01  0.89143585210E+00  0.88000000000E+00 0.  1.
        -11    1    4    4    0    0 -0.70029384740E-02 -0.38464534699E-01 -0.36299169532E-02  0.39268295036E-01  0.51100000000E-03 0. -1.
         11    1    4    4    0    0 -0.16354975472E-01 -0.81702050871E-01  0.21044191369E-01  0.85940848556E-01  0.51100000000E-03 0.  1.
</event>
<event>
 8    1  0.9956970E+004  0.1043930E+01  0.7957747E-01            NaN
         13   -1    0    0    0    0  0.00000000000E+00  0.00000000000E+00  0.74505805969E-08  0.10566000000E+00  0.10566000000E+00 0.  1.
     999900   -1    0    0    0    0 -0.00000000000E+00 -0.00000000000E+00 -0.74505805969E-08  0.93827000000E+00  0.93827000000E+00 0.  1.
     999902    2    1    2    0    0 -0.21196267060E-01 -0.88681607776E-02  0.13649485256E-02  0.10209128521E+01  0.10206533508E+01 0.  0.
     999903    2    3    3    0    0 -0.89695977575E-01 -0.90233552633E-01  0.36347690954E-01  0.13381853378E+00  0.19969550110E-01 0.  0.
         14    1    1    2    0    0  0.21196267060E-01  0.88681607776E-02 -0.13649485256E-02  0.23017147897E-01  0.00000000000E+00 0. -1.
     999901    1    3    3    0    0  0.68499710515E-01  0.81365391855E-01 -0.34982742428E-01  0.88709431832E+00  0.88000000000E+00 0. -1.
        -11    1    4    4    0    0 -0.39668318666E-01 -0.26706872515E-01  0.10941911428E-01  0.49059342556E-01  0.51100000000E-03 0.  1.
         11    1    4    4    0    0 -0.50027658908E-01 -0.63526680118E-01  0.25405779526E-01  0.84759191224E-01  0.51100000000E-03 0. -1.
</event>
<event>
 8    1  0.9956970E+004  0.1043930E+01  0.7957747E-01            NaN
         13   -1    0    0    0    0  0.00000000000E+00  0.00000000000E+00  0.74505805969E-08  0.10566000000E+00  0.10566000000E+00 0.  1.
     999900   -1    0    0    0    0 -0.00000000000E+00 -0.00000000000E+00 -0.74505805969E-08  0.93827000000E+00  0.93827000000E+00 0.  1.
     999902    2    1    2    0    0 -0.17494572313E-02  0.21341483788E-01 -0.58537999693E-02  0.10217312049E+01  0.10214900237E+01 0.  0.
     999903    2    3    3    0    0  0.11160069524E+00  0.50164789198E-01 -0.48804953570E-01  0.13295460663E+00  0.17993962270E-01 0.  0.
         14    1    1    2    0    0  0.17494572313E-02 -0.21341483788E-01  0.58537999693E-02  0.22198795124E-01  0.00000000000E+00 0. -1.
     999901    1    3    3    0    0 -0.11335015247E+00 -0.28823305411E-01  0.42951153601E-01  0.88877659825E+00  0.88000000000E+00 0. -1.
        -11    1    4    4    0    0  0.61159871243E-01  0.27220953284E-01 -0.17042633512E-01  0.69081275511E-01  0.51100000000E-03 0. -1.
         11    1    4    4    0    0  0.50440823992E-01  0.22943835915E-01 -0.31762320059E-01  0.63873331117E-01  0.51100000000E-03 0.  1.
</event>
<event>
 8    1  0.9956970E+004  0.1043930E+01  0.7957747E-01            NaN
         13   -1    0    0    0    0  0.00000000000E+00  0.00000000000E+00  0.74505805969E-08  0.10566000000E+00  0.10566000000E+00 0.  1.
     999900   -1    0    0    0    0 -0.00000000000E+00 -0.00000000000E+00 -0.74505805969E-08  0.93827000000E+00  0.93827000000E+00 0. -1.
     999902    2    1    2    0    0  0.22663018434E-01  0.62367321594E-02  0.79935964955E-02  0.10191024585E+01  0.10187999873E+01 0.  0.
     999903    2    3    3    0    0 -0.96399429738E-01 -0.66649909978E-01  0.46023593251E-01  0.12728711335E+00  0.18675586627E-01 0.  0.
         14    1    1    2    0    0 -0.22663018434E-01 -0.62367321594E-02 -0.79935964955E-02  0.24827541512E-01  0.00000000000E+00 0. -1.
     999901    1    3    3    0    0  0.11906244817E+00  0.72886642137E-01 -0.38029996755E-01  0.89181534514E+00  0.88000000000E+00 0.  1.
        -11    1    4    4    0    0 -0.77404819235E-01 -0.47321697715E-01  0.41662876938E-01  0.99834390624E-01  0.51100000000E-03 0.  1.
         11    1    4    4    0    0 -0.18994610504E-01 -0.19328212263E-01  0.43607163126E-02  0.27452722729E-01  0.51100000000E-03 0. -1.
</event>
<event>
 8    1  0.9956970E+004  0.1043930E+01  0.7957747E-01            NaN
         13   -1    0    0    0    0  0.00000000000E+00  0.00000000000E+00  0.74505805969E-08  0.10566000000E+00  0.10566000000E+00 0.  1.
     999900   -1    0    0    0    0 -0.00000000000E+00 -0.00000000000E+00 -0.74505805969E-08  0.93827000000E+00  0.93827000000E+00 0.  1.
     999902    2    1    2    0    0  0.29563051797E-02 -0.17851693230E-01 -0.15302028169E-01  0.10202324314E+01  0.10199571752E+01 0.  0.
     999903    2    3    3    0    0  0.26894268967E-01  0.51446272437E-01  0.11225111579E+00  0.12801887026E+00  0.20457211332E-01 0.  0.
         14    1    1    2    0    0 -0.29563051797E-02  0.17851693230E-01  0.15302028169E-01  0.23697568601E-01  0.00000000000E+00 0.  1.
     999901    1    3    3    0    0 -0.23937963787E-01 -0.69297965667E-01 -0.12755314395E+00  0.89221356114E+00  0.88000000000E+00 0.  1.
        -11    1    4    4    0    0  0.23142155409E-01  0.45386479788E-01  0.78966421021E-01  0.93975787703E-01  0.51100000000E-03 0.  1.
         11    1    4    4    0    0  0.37521135579E-02  0.60597926485E-02  0.33284694765E-01  0.34043082553E-01  0.51100000000E-03 0. -1.
</event>
<event>
 8    1  0.9956970E+004  0.1043930E+01  0.7957747E-01            NaN
         13   -1    0    0    0    0  0.00000000000E+00  0.00000000000E+00  0.74505805969E-08  0.10566000000E+00  0.10566000000E+00 0. -1.
     999900   -1    0    0    0    0 -0.00000000000E+00 -0.00000000000E+00 -0.74505805969E-08  0.93827000000E+00  0.93827000000E+00 0.  1.
     999902    2    1    2    0    0  0.18929338054E-01  0.12828914421E-01 -0.10127754448E-01  0.10189205559E+01  0.10186135808E+01 0.  0.
     999903    2    3    3    0    0 -0.54470593232E-01 -0.90240593727E-01 -0.69621118401E-01  0.12788164890E+00  0.19904916836E-01 0.  0.
         14    1    1    2    0    0 -0.18929338054E-01 -0.12828914421E-01  0.10127754448E-01  0.25009444108E-01  0.00000000000E+00 0. -1.
     999901    1    3    3    0    0  0.73399931287E-01  0.10306950815E+00  0.59493363953E-01  0.89103890699E+00  0.88000000000E+00 0. -1.
        -11    1    4    4    0    0 -0.23718208814E-01 -0.50408634459E-01 -0.46190559374E-01  0.72369971353E-01  0.51100000000E-03 0. -1.
         11    1    4    4    0    0 -0.30752384419E-01 -0.39831959268E-01 -0.23430559027E-01  0.55511677545E-01  0.51100000000E-03 0.  1.
</event>
<event>
 8    1  0.9956970E+004  0.1043930E+01  0.7957747E-01            NaN
         13   -1    0    0    0    0  0.00000000000E+00  0.00000000000E+00  0.74505805969E-08  0.10566000000E+00  0.10566000000E+00 0.  1.
     999900   -1    0    0    0    0 -0.00000000000E+00 -0.00000000000E+00 -0.74505805969E-08  0.93827000000E+00  0.93827000000E+00 0. -1.
     999902    2    1    2    0    0  0.18060855140E-03 -0.21709349898E-01  0.68459562153E-02  0.10211660898E+01  0.10209123309E+01 0.  0.
     999903    2    3    3    0    0  0.23125978316E-01 -0.70784870600E-01  0.10911252275E+00  0.13358885518E+00  0.19877898006E-01 0.  0.
         14    1    1    2    0    0 -0.18060855140E-03  0.21709349898E-01 -0.68459562153E-02  0.22763910230E-01  0.00000000000E+00 0.  1.
     999901    1    3    3    0    0 -0.22945369765E-01  0.49075520702E-01 -0.10226656654E+00  0.88757723459E+00  0.88000000000E+00 0. -1.
        -11    1    4    4    0    0 -0.21544134655E-02 -0.50638550106E-02  0.31482410923E-02  0.63605556302E-02  0.51100000000E-03 0.  1.
         11    1    4    4    0    0  0.25280391782E-01 -0.65721015589E-01  0.10596428166E+00  0.12722829955E+00  0.51100000000E-03 0. -1.
</event>
<event>
 8    1  0.9956970E+004  0.1043930E+01  0.7957747E-01            NaN
         13   -1    0    0    0    0  0.00000000000E+00  0.00000000000E+00  0.74505805969E-08  0.10566000000E+00  0.10566000000E+00 0. -1.
     999900   -1    0    0    0    0 -0.00000000000E+00 -0.00000000000E+00 -0.74505805969E-08  0.93827000000E+00  0.93827000000E+00 0.  1.
     999902    2    1    2    0    0 -0.14152674588E-01 -0.18118781968E-01 -0.24285837806E-02  0.10208110364E+01  0.10205492078E+01 0.  0.
     999903    2    3    3    0    0 -0.83766991915E-01  0.96105533219E-01 -0.20451780028E-01  0.13051996999E+00  0.19078910076E-01 0.  0.
         14    1    1    2    0    0  0.14152674588E-01  0.18118781968E-01  0.24285837806E-02  0.23118963584E-01  0.00000000000E+00 0.  1.
     999901    1    3    3    0    0  0.69614317327E-01 -0.11422431519E+00  0.18023196247E-01  0.89029106643E+00  0.88000000000E+00 0.  1.
        -11    1    4    4    0    0 -0.69375600643E-01  0.69571805259E-01 -0.10897409945E-01  0.98854563456E-01  0.51100000000E-03 0.  1.
         11    1    4    4    0    0 -0.14391391273E-01  0.26533727960E-01 -0.95543700832E-02  0.31665406533E-01  0.51100000000E-03 0. -1.
</event>
<event>
 8    1  0.9956970E+004  0.1043930E+01  0.7957747E-01            NaN
         13   -1    0    0    0    0  0.00000000000E+00  0.00000000000E+00  0.74505805969E-08  0.10566000000E+00  0.10566000000E+00 0.  1.
     999900   -1    0    0    0    0 -0.00000000000E+00 -0.00000000000E+00 -0.74505805969E-08  0.93827000000E+00  0.93827000000E+00 0.  1.
     999902    2    1    2    0    0  0.20223621691E-01  0.47123693253E-02 -0.68517511798E-02  0.10220634092E+01  0.10218294694E+01 0.  0.
     999903    2    3    3    0    0 -0.11977104312E+00 -0.31973130204E-01  0.30822697229E-01  0.12944720046E+00  0.20956030536E-01 0.  0.
         14    1    1    2    0    0 -0.20223621691E-01 -0.47123693253E-02  0.68517511798E-02  0.21866590799E-01  0.00000000000E+00 0.  1.
     999901    1    3    3    0    0  0.13999466481E+00  0.36685499529E-01 -0.37674448409E-01  0.89261620875E+00  0.88000000000E+00 0. -1.
        -11    1    4    4    0    0 -0.39429054273E-01 -0.12032121675E-01  0.33020449776E-03  0.41228539010E-01  0.51100000000E-03 0. -1.
         11    1    4    4    0    0 -0.80341988849E-01 -0.19941008528E-01  0.30492492732E-01  0.88218661446E-01  0.51100000000E-03 0.  1.
</event>
<event>
 8    1  0.9956970E+004  0.1043930E+01  0.7957747E-01            NaN
         13   -1    0    0    0    0  0.00000000000E+00  0.00000000000E+00  0.74505805969E-08  0.10566000000E+00  0.10566000000E+00 0.  1.
     999900   -1    0    0    0    0 -0.00000000000E+00 -0.00000000000E+00 -0.74505805969E-08  0.93827000000E+00  0.93827000000E+00 0.  1.
     999902    2    1    2    0    0  0.13879968947E-01  0.16131707676E-02  0.19189546726E-01  0.10201919596E+01  0.10199157514E+01 0.  0.
     999903    2    3    3    0    0 -0.87321081735E-01 -0.32537319096E-01  0.89696162816E-01  0.13093435266E+00  0.20365525587E-01 0.  0.
         14    1    1    2    0    0 -0.13879968947E-01 -0.16131707676E-02 -0.19189546726E-01  0.23738040387E-01  0.00000000000E+00 0. -1.
     999901    1    3    3    0    0  0.10120105068E+00  0.34150489864E-01 -0.70506616090E-01  0.88925760696E+00  0.88000000000E+00 0.  1.
        -11    1    4    4    0    0 -0.75957628837E-01 -0.25556855986E-01  0.66358514897E-01  0.10405012199E+00  0.51100000000E-03 0.  1.
         11    1    4    4    0    0 -0.11363452898E-01 -0.69804631103E-02  0.23337647919E-01  0.26884230664E-01  0.51100000000E-03 0. -1.
</event>
<event>
 8    1  0.9956970E+004  0.1043930E+01  0.7957747E-01            NaN
         13   -1    0    0    0    0  0.00000000000E+00  0.00000000000E+00  0.74505805969E-08  0.10566000000E+00  0.10566000000E+00 0.  1.
     999900   -1    0    0    0    0 -0.00000000000E+00 -0.00000000000E+00 -0.74505805969E-08  0.93827000000E+00  0.93827000000E+00 0.  1.
     999902    2    1    2    0    0 -0.17038988879E-01  0.22960863572E-02 -0.18357570617E-01  0.10187784682E+01  0.10184679512E+01 0.  0.
     999903    2    3    3    0    0  0.71757355486E-01  0.75142674541E-01 -0.74658617947E-01  0.12953090752E+00  0.20218980347E-01 0.  0.
         14    1    1    2    0    0  0.17038988879E-01 -0.22960863572E-02  0.18357570617E-01  0.25151531833E-01  0.00000000000E+00 0.  1.
     999901    1    3    3    0    0 -0.88796344365E-01 -0.72846588184E-01  0.56301047330E-01  0.88924756064E+00  0.88000000000E+00 0. -1.
        -11    1    4    4    0    0  0.20084172622E-01  0.31589397914E-01 -0.19012928006E-01  0.41988291258E-01  0.51100000000E-03 0.  1.
         11    1    4    4    0    0  0.51673182865E-01  0.43553276628E-01 -0.55645689941E-01  0.87542616264E-01  0.51100000000E-03 0. -1.
</event>
<event>
 8    1  0.9956970E+004  0.1043930E+01  0.7957747E-01            NaN
         13   -1    0    0    0    0  0.00000000000E+00  0.00000000000E+00  0.74505805969E-08  0.10566000000E+00  0.10566000000E+00 0. -1.
     999900   -1    0    0    0    0 -0.00000000000E+00 -0.00000000000E+00 -0.74505805969E-08  0.93827000000E+00  0.93827000000E+00 0.  1.
     999902    2    1    2    0    0 -0.74166864912E-02  0.22501511534E-01 -0.15447767976E-02  0.10201873886E+01  0.10199110727E+01 0.  0.
     999903    2    3    3    0    0  0.49006751707E-01 -0.11225391012E+00  0.30468348941E-01  0.12756906690E+00  0.18518760567E-01 0.  0.
         14    1    1    2    0    0  0.74166864912E-02 -0.22501511534E-01  0.15447767976E-02  0.23742611381E-01  0.00000000000E+00 0. -1.
     999901    1    3    3    0    0 -0.56423438198E-01  0.13475542166E+00 -0.32013125739E-01  0.89261832172E+00  0.88000000000E+00 0.  1.
        -11    1    4    4    0    0  0.28724315928E-01 -0.65965161034E-01  0.84607828461E-02  0.72445391594E-01  0.51100000000E-03 0. -1.
         11    1    4    4    0    0  0.20282435779E-01 -0.46288749087E-01  0.22007566095E-01  0.55123675309E-01  0.51100000000E-03 0.  1.
</event>
<event>
 8    1  0.9956970E+004  0.1043930E+01  0.7957747E-01            NaN
         13   -1    0    0    0    0  0.00000000000E+00  0.00000000000E+00  0.74505805969E-08  0.10566000000E+00  0.10566000000E+00 0. -1.
     999900   -1    0    0    0    0 -0.00000000000E+00 -0.00000000000E+00 -0.74505805969E-08  0.93827000000E+00  0.93827000000E+00 0. -1.
     999902    2    1    2    0    0 -0.87542424812E-02  0.11476216989E-01  0.15859064904E-01  0.10224858806E+01  0.10222609871E+01 0.  0.
     999903    2    3    3    0    0 -0.61781408839E-01  0.31625463097E-01 -0.11016346294E+00  0.13169996354E+00  0.19793418959E-01 0.  0.
         14    1    1    2    0    0  0.87542424812E-02 -0.11476216989E-01 -0.15859064904E-01  0.21444119414E-01  0.00000000000E+00 0.  1.
     999901    1    3    3    0    0  0.53027166357E-01 -0.20149246108E-01  0.12602252784E+00  0.89078591705E+00  0.88000000000E+00 0.  1.
        -11    1    4    4    0    0 -0.19505079468E-01  0.92697373222E-02 -0.19070512419E-01  0.28815303573E-01  0.51100000000E-03 0.  1.
         11    1    4    4    0    0 -0.42276329371E-01  0.22355725775E-01 -0.91092950521E-01  0.10288465996E+00  0.51100000000E-03 0. -1.
</event>
<event>
 8    1  0.9956970E+004  0.1043930E+01  0.7957747E-01            NaN
         13   -1    0    0    0    0  0.00000000000E+00  0.00000000000E+00  0.74505805969E-08  0.10566000000E+00  0.10566000000E+00 0.  1.
     999900   -1    0    0    0    0 -0.00000000000E+00 -0.00000000000E+00 -0.74505805969E-08  0.93827000000E+00  0.93827000000E+00 0. -1.
     999902    2    1    2    0    0 -0.19417675531E-01  0.32832196922E-02 -0.80460200616E-02  0.10226564462E+01  0.10224351533E+01 0.  0.
     999903    2    3    3    0    0 -0.96357668015E-01 -0.53242355491E-01  0.73586120674E-01  0.13373647816E+00  0.18734455714E-01 0.  0.
         14    1    1    2    0    0  0.19417675531E-01 -0.32832196922E-02  0.80460200616E-02  0.21273553850E-01  0.00000000000E+00 0.  1.
     999901    1    3    3    0    0  0.76939992484E-01  0.56525575183E-01 -0.81632140736E-01  0.88891996799E+00  0.88000000000E+00 0. -1.
        -11    1    4    4    0    0 -0.50879306471E-01 -0.26517348516E-01  0.49361883827E-01  0.75688376222E-01  0.51100000000E-03 0.  1.
         11    1    4    4    0    0 -0.45478361544E-01 -0.26725006975E-01  0.24224236847E-01  0.58048101936E-01  0.51100000000E-03 0. -1.
</event>
<event>
 8    1  0.9956970E+004  0.1043930E+01  0.7957747E-01            NaN
         13   -1    0    0    0    0  0.00000000000E+00  0.00000000000E+00  0.74505805969E-08  0.10566000000E+00  0.10566000000E+00 0. -1.
     999900   -1    0    0    0    0 -0.00000000000E+00 -0.00000000000E+00 -0.74505805969E-08  0.93827000000E+00  0.93827000000E+00 0.  1.
     999902    2    1    2    0    0 -0.16264633742E-02  0.35145558176E-02 -0.23272806195E-01  0.10203371834E+01  0.10200643837E+01 0.  0.
     999903    2    3    3    0    0 -0.17272152119E-01 -0.42968240207E-01 -0.12332686302E+00  0.13331054787E+00  0.20435021995E-01 0.  0.
         14    1    1    2    0    0  0.16264633742E-02 -0.35145558176E-02  0.23272806195E-01  0.23592816573E-01  0.00000000000E+00 0. -1.
     999901    1    3    3    0    0  0.15645688745E-01  0.46482796025E-01  0.10005405683E+00  0.88702663556E+00  0.88000000000E+00 0. -1.
        -11    1    4    4    0    0  0.40709594407E-02 -0.81204721995E-02 -0.31764770124E-01  0.33042041728E-01  0.51100000000E-03 0.  1.
         11    1    4    4    0    0 -0.21343111560E-01 -0.34847768008E-01 -0.91562092900E-01  0.10026850614E+00  0.51100000000E-03 0. -1.
</event>
<event>
 8    1  0.1031772E+005  0.1043930E+01  0.7957747E-01            NaN
         13   -1    0    0    0    0  0.00000000000E+00  0.00000000000E+00  0.74505805969E-08  0.10566000000E+00  0.10566000000E+00 0.  1.
     999900   -1    0    0    0    0 -0.00000000000E+00 -0.00000000000E+00 -0.74505805969E-08  0.93827000000E+00  0.93827000000E+00 0. -1.
     999902    2    1    2    0    0  0.23172283778E-02 -0.14325359438E-01  0.17933264847E-01  0.10208608115E+01  0.10206001220E+01 0.  0.
     999903    2    3    3    0    0  0.11949711145E+00 -0.18888450772E-01  0.50269505836E-01  0.13249288136E+00  0.19773901410E-01 0.  0.
         14    1    1    2    0    0 -0.23172283778E-02  0.14325359438E-01 -0.17933264847E-01  0.23069188509E-01  0.00000000000E+00 0. -1.
     999901    1    3    3    0    0 -0.11717988307E+00  0.45630913344E-02 -0.32336240989E-01  0.88836793013E+00  0.88000000000E+00 0. -1.
        -11    1    4    4    0    0  0.59398233102E-01 -0.82750663723E-03  0.29951418415E-01  0.66529568231E-01  0.51100000000E-03 0. -1.
         11    1    4    4    0    0  0.60098878349E-01 -0.18060944135E-01  0.20318087420E-01  0.65963313132E-01  0.51100000000E-03 0.  1.
</event>
<event>
 8    1  0.9956970E+004  0.1043930E+01  0.7957747E-01            NaN
         13   -1    0    0    0    0  0.00000000000E+00  0.00000000000E+00  0.74505805969E-08  0.10566000000E+00  0.10566000000E+00 0. -1.
     999900   -1    0    0    0    0 -0.00000000000E+00 -0.00000000000E+00 -0.74505805969E-08  0.93827000000E+00  0.93827000000E+00 0. -1.
     999902    2    1    2    0    0 -0.61131978013E-02  0.22471963988E-01 -0.18456884392E-02  0.10205683451E+01  0.10203009263E+01 0.  0.
     999903    2    3    3    0    0  0.16277570632E-01  0.13105582891E+00 -0.36058492481E-02  0.13361011589E+00  0.19951724826E-01 0.  0.
         14    1    1    2    0    0  0.61131978013E-02 -0.22471963988E-01  0.18456884392E-02  0.23361654878E-01  0.00000000000E+00 0. -1.
     999901    1    3    3    0    0 -0.22390768433E-01 -0.10858386492E+00  0.17601608088E-02  0.88695822923E+00  0.88000000000E+00 0.  1.
        -11    1    4    4    0    0  0.79975958255E-02  0.92514685682E-01 -0.10961816134E-01  0.93505888263E-01  0.51100000000E-03 0. -1.
         11    1    4    4    0    0  0.82799748067E-02  0.38541143225E-01  0.73559668856E-02  0.40104227629E-01  0.51100000000E-03 0.  1.
</event>
<event>
 8    1  0.9956970E+004  0.1043930E+01  0.7957747E-01            NaN
         13   -1    0    0    0    0  0.00000000000E+00  0.00000000000E+00  0.74505805969E-08  0.10566000000E+00  0.10566000000E+00 0. -1.
     999900   -1    0    0    0    0 -0.00000000000E+00 -0.00000000000E+00 -0.74505805969E-08  0.93827000000E+00  0.93827000000E+00 0. -1.
     999902    2    1    2    0    0  0.94726666078E-02  0.55260600655E-02  0.21146820936E-01  0.10201086485E+01  0.10198304751E+01 0.  0.
     999903    2    3    3    0    0  0.83982362992E-01  0.90810939793E-01 -0.37903041527E-01  0.13088871403E+00  0.19888459566E-01 0.  0.
         14    1    1    2    0    0 -0.94726666078E-02 -0.55260600655E-02 -0.21146820936E-01  0.23821351519E-01  0.00000000000E+00 0.  1.
     999901    1    3    3    0    0 -0.74509696384E-01 -0.85284879728E-01  0.59049862463E-01  0.88921993445E+00  0.88000000000E+00 0.  1.
        -11    1    4    4    0    0  0.11631531031E-01  0.13878148948E-01 -0.13237200296E-01  0.22436134359E-01  0.51100000000E-03 0.  1.
         11    1    4    4    0    0  0.72350831962E-01  0.76932790845E-01 -0.24665841231E-01  0.10845257967E+00  0.51100000000E-03 0. -1.
</event>
<event>
 8    1  0.9956970E+004  0.1043930E+01  0.7957747E-01            NaN
         13   -1    0    0    0    0  0.00000000000E+00  0.00000000000E+00  0.74505805969E-08  0.10566000000E+00  0.10566000000E+00 0.  1.
     999900   -1    0    0    0    0 -0.00000000000E+00 -0.00000000000E+00 -0.74505805969E-08  0.93827000000E+00  0.93827000000E+00 0. -1.
     999902    2    1    2    0    0 -0.92792127744E-02 -0.11208715313E-01 -0.16609579408E-01  0.10218479436E+01  0.10216093199E+01 0.  0.
     999903    2    3    3    0    0 -0.19895451944E-01  0.26336521533E-01 -0.12843001572E+00  0.13391429777E+00  0.18690340709E-01 0.  0.
         14    1    1    2    0    0  0.92792127744E-02  0.11208715313E-01  0.16609579408E-01  0.22082056444E-01  0.00000000000E+00 0.  1.
     999901    1    3    3    0    0  0.10616239169E-01 -0.37545236845E-01  0.11182043631E+00  0.88793364579E+00  0.88000000000E+00 0.  1.
        -11    1    4    4    0    0 -0.85604532184E-02  0.98448699435E-03 -0.49327802012E-01  0.50077377590E-01  0.51100000000E-03 0. -1.
         11    1    4    4    0    0 -0.11334998725E-01  0.25352034538E-01 -0.79102213704E-01  0.83836920179E-01  0.51100000000E-03 0.  1.
</event>
<event>
 8    1  0.1358559E+005  0.1043930E+01  0.7957747E-01            NaN
         13   -1    0    0    0    0  0.00000000000E+00  0.00000000000E+00  0.74505805969E-08  0.10566000000E+00  0.10566000000E+00 0.  1.
     999900   -1    0    0    0    0 -0.00000000000E+00 -0.00000000000E+00 -0.74505805969E-08  0.93827000000E+00  0.93827000000E+00 0.  1.
     999902    2    1    2    0    0  0.20056584929E-02 -0.23178266919E-01  0.13366776186E-01  0.10170985739E+01  0.10167446009E+01 0.  0.
     999903    2    3    3    0    0 -0.99596932585E-01  0.41860372283E-01 -0.60962897812E-01  0.12576361351E+00  0.20692313179E-01 0.  0.
         14    1    1    2    0    0 -0.20056584929E-02  0.23178266919E-01 -0.13366776186E-01  0.26831426144E-01  0.00000000000E+00 0. -1.
     999901    1    3    3    0    0  0.10160259108E+00 -0.65038639201E-01  0.74329673997E-01  0.89133496035E+00  0.88000000000E+00 0. -1.
        -11    1    4    4    0    0 -0.34143123751E-01  0.14337194715E-01 -0.99998956379E-02  0.38361009965E-01  0.51100000000E-03 0.  1.
         11    1    4    4    0    0 -0.65453808835E-01  0.27523177567E-01 -0.50963002174E-01  0.87402603542E-01  0.51100000000E-03 0. -1.
</event>
<event>
 8    1  0.9956970E+004  0.1043930E+01  0.7957747E-01            NaN
         13   -1    0    0    0    0  0.00000000000E+00  0.00000000000E+00  0.74505805969E-08  0.10566000000E+00  0.10566000000E+00 0. -1.
     999900   -1    0    0    0    0 -0.00000000000E+00 -0.00000000000E+00 -0.74505805969E-08  0.93827000000E+00  0.93827000000E+00 0. -1.
     999902    2    1    2    0    0 -0.13473755935E-01 -0.21232478956E-01  0.57081693857E-04  0.10187831608E+01  0.10184727612E+01 0.  0.
     999903    2    3    3    0    0 -0.51171033755E-01 -0.41295732649E-01 -0.11110508389E+00  0.13076252709E+00  0.20752990008E-01 0.  0.
         14    1    1    2    0    0  0.13473755935E-01  0.21232478956E-01 -0.57081693858E-04  0.25146839164E-01  0.00000000000E+00 0. -1.
     999901    1    3    3    0    0  0.37697277820E-01  0.20063253693E-01  0.11116216558E+00  0.88802063375E+00  0.88000000000E+00 0.  1.
        -11    1    4    4    0    0 -0.45787258627E-01 -0.38111985351E-01 -0.84262099254E-01  0.10319573136E+00  0.51100000000E-03 0. -1.
         11    1    4    4    0    0 -0.53837751279E-02 -0.31837472980E-02 -0.26842984634E-01  0.27566795725E-01  0.51100000000E-03 0.  1.
</event>
<event>
 8    1  0.1020000E+005  0.1043930E+01  0.7957747E-01            NaN
         13   -1    0    0    0    0  0.00000000000E+00  0.00000000000E+00  0.74505805969E-08  0.10566000000E+00  0.10566000000E+00 0.  1.
     999900   -1    0    0    0    0 -0.00000000000E+00 -0.00000000000E+00 -0.74505805969E-08  0.93827000000E+00  0.93827000000E+00 0. -1.
     999902    2    1    2    0    0 -0.20231590113E-01  0.30746445262E-02 -0.13655676459E-01  0.10193282078E+01  0.10190312788E+01 0.  0.
     999903    2    3    3    0    0 -0.12396295336E+00  0.35068231906E-01  0.19969187045E-01  0.13202081083E+00  0.20835819335E-01 0.  0.
         14    1    1    2    0    0  0.20231590113E-01 -0.30746445262E-02  0.13655676459E-01  0.24601792150E-01  0.00000000000E+00 0. -1.
     999901    1    3    3    0    0  0.10373136325E+00 -0.31993587380E-01 -0.33624863505E-01  0.88730739702E+00  0.88000000000E+00 0.  1.
        -11    1    4    4    0    0 -0.82017185286E-01  0.13617099984E-01  0.88502182214E-02  0.83611192897E-01  0.51100000000E-03 0.  1.
         11    1    4    4    0    0 -0.41945768073E-01  0.21451131922E-01  0.11118968824E-01  0.48409617936E-01  0.51100000000E-03 0. -1.
</event>
<event>
 8    1  0.9956970E+004  0.1043930E+01  0.7957747E-01            NaN
         13   -1    0    0    0    0  0.00000000000E+00  0.00000000000E+00  0.74505805969E-08  0.10566000000E+00  0.10566000000E+00 0.  1.
     999900   -1    0    0    0    0 -0.00000000000E+00 -0.00000000000E+00 -0.74505805969E-08  0.93827000000E+00  0.93827000000E+00 0. -1.
     999902    2    1    2    0    0  0.13065436538E-01  0.12303681143E-01 -0.13960898805E-01  0.10211925222E+01  0.10209393589E+01 0.  0.
     999903    2    3    3    0    0  0.40006066884E-01  0.12544085687E+00  0.74655468568E-02  0.13328210404E+00  0.19300023482E-01 0.  0.
         14    1    1    2    0    0 -0.13065436538E-01 -0.12303681143E-01  0.13960898805E-01  0.22737477808E-01  0.00000000000E+00 0.  1.
     999901    1    3    3    0    0 -0.26940630346E-01 -0.11313717573E+00 -0.21426445662E-01  0.88791041816E+00  0.88000000000E+00 0.  1.
        -11    1    4    4    0    0  0.27571970081E-01  0.10896939821E+00  0.72258710248E-02  0.11263666195E+00  0.51100000000E-03 0.  1.
         11    1    4    4    0    0  0.12434096804E-01  0.16471458658E-01  0.23967583202E-03  0.20645442091E-01  0.51100000000E-03 0. -1.
</event>
<event>
 8    1  0.9956970E+004  0.1043930E+01  0.7957747E-01            NaN
         13   -1    0    0    0    0  0.00000000000E+00  0.00000000000E+00  0.74505805969E-08  0.10566000000E+00  0.10566000000E+00 0. -1.
     999900   -1    0    0    0    0 -0.00000000000E+00 -0.00000000000E+00 -0.74505805969E-08  0.93827000000E+00  0.93827000000E+00 0. -1.
     999902    2    1    2    0    0  0.15130403035E-01 -0.18187096652E-01  0.89931774430E-03  0.10202549424E+01  0.10199802151E+01 0.  0.
     999903    2    3    3    0    0 -0.11769881237E+00 -0.47311962004E-01 -0.17669479486E-01  0.12961659913E+00  0.19920343463E-01 0.  0.
         14    1    1    2    0    0 -0.15130403035E-01  0.18187096652E-01 -0.89931774430E-03  0.23675057614E-01  0.00000000000E+00 0.  1.
     999901    1    3    3    0    0  0.13282921540E+00  0.29124865352E-01  0.18568797230E-01  0.89063834326E+00  0.88000000000E+00 0.  1.
        -11    1    4    4    0    0 -0.77629188720E-01 -0.37015871285E-01 -0.19554468767E-01  0.88199229237E-01  0.51100000000E-03 0.  1.
         11    1    4    4    0    0 -0.40069623647E-01 -0.10296090719E-01  0.18849892809E-02  0.41417369894E-01  0.51100000000E-03 0. -1.
</event>
<event>
 8    1  0.9956970E+004  0.1043930E+01  0.7957747E-01            NaN
         13   -1    0    0    0    0  0.00000000000E+00  0.00000000000E+00  0.74505805969E-08  0.10566000000E+00  0.10566000000E+00 0. -1.
     999900   -1    0    0    0    0 -0.00000000000E+00 -0.00000000000E+00 -0.74505805969E-08  0.93827000000E+00  0.93827000000E+00 0.  1.
     999902    2    1    2    0    0 -0.20501167999E-01  0.51431829627E-02  0.95048051596E-02  0.10207547645E+01  0.10204916451E+01 0.  0.
     999903    2    3    3    0    0  0.36737858566E-01 -0.83968943696E-01  0.90473464700E-01  0.13071364121E+00  0.22364132595E-01 0.  0.
         14    1    1    2    0    0  0.20501167999E-01 -0.51431829627E-02 -0.95048051596E-02  0.23175235520E-01  0.00000000000E+00 0.  1.
     999901    1    3    3    0    0 -0.57239026564E-01  0.89112126659E-01 -0.80968659540E-01  0.89004112327E+00  0.88000000000E+00 0. -1.
        -11    1    4    4    0    0  0.35318263162E-01 -0.57915935256E-01  0.59711827396E-01  0.90373661658E-01  0.51100000000E-03 0. -1.
         11    1    4    4    0    0  0.14195954039E-02 -0.26053008440E-01  0.30761637303E-01  0.40339979554E-01  0.51100000000E-03 0.  1.
</event>
<event>
 8    1  0.9956970E+004  0.1043930E+01  0.7957747E-01            NaN
         13   -1    0    0    0    0  0.00000000000E+00  0.00000000000E+00  0.74505805969E-08  0.10566000000E+00  0.10566000000E+00 0. -1.
     999900   -1    0    0    0    0 -0.00000000000E+00 -0.00000000000E+00 -0.74505805969E-08  0.93827000000E+00  0.93827000000E+00 0.  1.
     999902    2    1    2    0    0  0.91882124512E-02  0.22896990955E-01 -0.84255131116E-04  0.10192581022E+01  0.10189594576E+01 0.  0.
     999903    2    3    3    0    0  0.10957903698E+00  0.50930148728E-01  0.48559250245E-01  0.13177268473E+00  0.20114528586E-01 0.  0.
         14    1    1    2    0    0 -0.91882124512E-02 -0.22896990955E-01  0.84255131116E-04  0.24671897815E-01  0.00000000000E+00 0. -1.
     999901    1    3    3    0    0 -0.10039082453E+00 -0.28033157773E-01 -0.48643505376E-01  0.88748541746E+00  0.88000000000E+00 0.  1.
        -11    1    4    4    0    0  0.36009091890E-01  0.19522374357E-01  0.26512315440E-01  0.48794895125E-01  0.51100000000E-03 0.  1.
         11    1    4    4    0    0  0.73569945094E-01  0.31407774372E-01  0.22046934805E-01  0.82977789603E-01  0.51100000000E-03 0. -1.
</event>
<event>
 8    1  0.9956970E+004  0.1043930E+01  0.7957747E-01            NaN
         13   -1    0    0    0    0  0.00000000000E+00  0.00000000000E+00  0.74505805969E-08  0.10566000000E+00  0.10566000000E+00 0. -1.
     999900   -1    0    0    0    0 -0.00000000000E+00 -0.00000000000E+00 -0.74505805969E-08  0.93827000000E+00  0.93827000000E+00 0. -1.
     999902    2    1    2    0    0 -0.15522168399E-01  0.28091091595E-02 -0.18121023561E-01  0.10199050067E+01  0.10196219998E+01 0.  0.
     999903    2    3    3    0    0  0.10824491495E+00  0.66750851191E-01 -0.93088313741E-02  0.12890304714E+00  0.18886595058E-01 0.  0.
         14    1    1    2    0    0  0.15522168399E-01 -0.28091091595E-02  0.18121023561E-01  0.24024993256E-01  0.00000000000E+00 0. -1.
     999901    1    3    3    0    0 -0.12376708335E+00 -0.63941742031E-01 -0.88121921866E-02  0.89100195961E+00  0.88000000000E+00 0. -1.
        -11    1    4    4    0    0  0.92479120470E-01  0.53137811847E-01 -0.15544941398E-02  0.10667095361E+00  0.51100000000E-03 0.  1.
         11    1    4    4    0    0  0.15765794477E-01  0.13613039343E-01 -0.77543372343E-02  0.22232093527E-01  0.51100000000E-03 0. -1.
</event>
<event>
 8    1  0.9956970E+004  0.1043930E+01  0.7957747E-01            NaN
         13   -1    0    0    0    0  0.00000000000E+00  0.00000000000E+00  0.74505805969E-08  0.10566000000E+00  0.10566000000E+00 0. -1.
     999900   -1    0    0    0    0 -0.00000000000E+00 -0.00000000000E+00 -0.74505805969E-08  0.93827000000E+00  0.93827000000E+00 0. -1.
     999902    2    1    2    0    0  0.80525656845E-02  0.19695274247E-01 -0.10137683791E-01  0.10203605224E+01  0.10200882684E+01 0.  0.
     999903    2    3    3    0    0  0.10891764858E+00 -0.39689390735E-01 -0.58361506612E-01  0.13130155896E+00  0.19893014392E-01 0.  0.
         14    1    1    2    0    0 -0.80525656845E-02 -0.19695274247E-01  0.10137683791E-01  0.23569477601E-01  0.00000000000E+00 0. -1.
     999901    1    3    3    0    0 -0.10086508290E+00  0.59384664982E-01  0.48223822821E-01  0.88905896344E+00  0.88000000000E+00 0.  1.
        -11    1    4    4    0    0  0.55989906037E-01 -0.98701848961E-02 -0.29101302545E-01  0.63870470945E-01  0.51100000000E-03 0. -1.
         11    1    4    4    0    0  0.52927742546E-01 -0.29819205839E-01 -0.29260204066E-01  0.67431088015E-01  0.51100000000E-03 0.  1.
</event>
<event>
 8    1  0.9956970E+004  0.1043930E+01  0.7957747E-01            NaN
         13   -1    0    0    0    0  0.00000000000E+00  0.00000000000E+00  0.74505805969E-08  0.10566000000E+00  0.10566000000E+00 0.  1.
     999900   -1    0    0    0    0 -0.00000000000E+00 -0.00000000000E+00 -0.74505805969E-08  0.93827000000E+00  0.93827000000E+00 0.  1.
     999902    2    1    2    0    0 -0.99082249782E-02  0.20359383116E-01 -0.52620348299E-02  0.10206842173E+01  0.10204194750E+01 0.  0.
     999903    2    3    3    0    0  0.80953063555E-01  0.98065496335E-01  0.30995347156E-01  0.13185993121E+00  0.16002807333E-01 0.  0.
         14    1    1    2    0    0  0.99082249782E-02 -0.20359383116E-01  0.52620348299E-02  0.23245782707E-01  0.00000000000E+00 0.  1.
     999901    1    3    3    0    0 -0.90861288533E-01 -0.77706113219E-01 -0.36257381986E-01  0.88882428608E+00  0.88000000000E+00 0.  1.
        -11    1    4    4    0    0  0.67145492689E-01  0.72118873264E-01  0.20517997254E-01  0.10065236411E+00  0.51100000000E-03 0.  1.
         11    1    4    4    0    0  0.13807570866E-01  0.25946623071E-01  0.10477349902E-01  0.31207567095E-01  0.51100000000E-03 0. -1.
</event>
<event>
 8    1  0.9956970E+004  0.1043930E+01  0.7957747E-01            NaN
         13   -1    0    0    0    0  0.00000000000E+00  0.00000000000E+00  0.74505805969E-08  0.10566000000E+00  0.10566000000E+00 0.  1.
     999900   -1    0    0    0    0 -0.00000000000E+00 -0.00000000000E+00 -0.74505805969E-08  0.93827000000E+00  0.93827000000E+00 0.  1.
     999902    2    1    2    0    0 -0.20752432825E-01  0.85166342415E-02 -0.42662237435E-02  0.10210958766E+01  0.10208405321E+01 0.  0.
     999903    2    3    3    0    0 -0.12409260825E-01 -0.14859629330E-01  0.12822590647E+00  0.13083174568E+00  0.17328134632E-01 0.  0.
         14    1    1    2    0    0  0.20752432825E-01 -0.85166342415E-02  0.42662237435E-02  0.22834123412E-01  0.00000000000E+00 0. -1.
     999901    1    3    3    0    0 -0.83431720003E-02  0.23376263571E-01 -0.13249213021E+00  0.89026413091E+00  0.88000000000E+00 0.  1.
        -11    1    4    4    0    0 -0.14573780725E-01 -0.15724733059E-01  0.89545341660E-01  0.92077639242E-01  0.51100000000E-03 0.  1.
         11    1    4    4    0    0  0.21645198997E-02  0.86510372934E-03  0.38680564807E-01  0.38754106436E-01  0.51100000000E-03 0. -1.
</event>
<event>
 8    1  0.9956970E+004  0.1043930E+01  0.7957747E-01            NaN
         13   -1    0    0    0    0  0.00000000000E+00  0.00000000000E+00  0.74505805969E-08  0.10566000000E+00  0.10566000000E+00 0.  1.
     999900   -1    0    0    0    0 -0.00000000000E+00 -0.00000000000E+00 -0.74505805969E-08  0.93827000000E+00  0.93827000000E+00 0.  1.
     999902    2    1    2    0    0  0.15149134982E-01  0.11958044822E-01  0.14256983928E-01  0.10199351523E+01  0.10196528635E+01 0.  0.
     999903    2    3    3    0    0  0.86400895884E-01 -0.47318875451E-01 -0.82211354733E-01  0.12982464954E+00  0.19787420205E-01 0.  0.
         14    1    1    2    0    0 -0.15149134982E-01 -0.11958044822E-01 -0.14256983928E-01  0.23994847726E-01  0.00000000000E+00 0. -1.
     999901    1    3    3    0    0 -0.71251760901E-01  0.59276920273E-01  0.96468338661E-01  0.89011050273E+00  0.88000000000E+00 0.  1.
        -11    1    4    4    0    0  0.22674085980E-01 -0.77990008480E-02 -0.30200022693E-01  0.38564764759E-01  0.51100000000E-03 0. -1.
         11    1    4    4    0    0  0.63726809904E-01 -0.39519874603E-01 -0.52011332040E-01  0.91259884783E-01  0.51100000000E-03 0.  1.
</event>
<event>
 8    1  0.9956970E+004  0.1043930E+01  0.7957747E-01            NaN
         13   -1    0    0    0    0  0.00000000000E+00  0.00000000000E+00  0.74505805969E-08  0.10566000000E+00  0.10566000000E+00 0. -1.
     999900   -1    0    0    0    0 -0.00000000000E+00 -0.00000000000E+00 -0.74505805969E-08  0.93827000000E+00  0.93827000000E+00 0. -1.
     999902    2    1    2    0    0 -0.17938348026E-02  0.49406841718E-02  0.22041735055E-01  0.10212702055E+01  0.10210187884E+01 0.  0.
     999903    2    3    3    0    0  0.92837727956E-02  0.12652523334E+00  0.34055917489E-01  0.13276029751E+00  0.19252739279E-01 0.  0.
         14    1    1    2    0    0  0.17938348026E-02 -0.49406841718E-02 -0.22041735055E-01  0.22659794518E-01  0.00000000000E+00 0.  1.
     999901    1    3    3    0    0 -0.11077607598E-01 -0.12158454917E+00 -0.12014182435E-01  0.88850990797E+00  0.88000000000E+00 0. -1.
        -11    1    4    4    0    0  0.32963441525E-02  0.11374415801E+00  0.33518027576E-01  0.11862680414E+00  0.51100000000E-03 0.  1.
         11    1    4    4    0    0  0.59874286431E-02  0.12781075325E-01  0.53788991340E-03  0.14133493368E-01  0.51100000000E-03 0. -1.
</event>
<event>
 8    1  0.9956970E+004  0.1043930E+01  0.7957747E-01            NaN
         13   -1    0    0    0    0  0.00000000000E+00  0.00000000000E+00  0.74505805969E-08  0.10566000000E+00  0.10566000000E+00 0. -1.
     999900   -1    0    0    0    0 -0.00000000000E+00 -0.00000000000E+00 -0.74505805969E-08  0.93827000000E+00  0.93827000000E+00 0. -1.
     999902    2    1    2    0    0 -0.60236088150E-02  0.74497071323E-02 -0.20543993011E-01  0.10212620127E+01  0.10210104118E+01 0.  0.
     999903    2    3    3    0    0  0.30274254922E-01 -0.12397608647E+00 -0.20219861016E-01  0.13076194016E+00  0.20080878653E-01 0.  0.
         14    1    1    2    0    0  0.60236088150E-02 -0.74497071323E-02  0.20543993011E-01  0.22667987303E-01  0.00000000000E+00 0. -1.
     999901    1    3    3    0    0 -0.36297863737E-01  0.13142579360E+00 -0.32413199532E-03  0.89050007254E+00  0.88000000000E+00 0.  1.
        -11    1    4    4    0    0  0.32482708549E-01 -0.11577690653E+00 -0.16137754126E-01  0.12132644670E+00  0.51100000000E-03 0.  1.
         11    1    4    4    0    0 -0.22084536273E-02 -0.81991799336E-02 -0.40821068898E-02  0.94354934512E-02  0.51100000000E-03 0. -1.
</event>
<event>
 8    1  0.1054335E+005  0.1043930E+01  0.7957747E-01            NaN
         13   -1    0    0    0    0  0.00000000000E+00  0.00000000000E+00  0.74505805969E-08  0.10566000000E+00  0.10566000000E+00 0.  1.
     999900   -1    0    0    0    0 -0.00000000000E+00 -0.00000000000E+00 -0.74505805969E-08  0.93827000000E+00  0.93827000000E+00 0. -1.
     999902    2    1    2    0    0  0.16058958803E-01  0.33900582512E-02  0.16947190023E-01  0.10203378424E+01  0.10200650580E+01 0.  0.
     999903    2    3    3    0    0  0.25363748800E-02 -0.12784050434E+00  0.13470566649E-01  0.13049717811E+00  0.22325536486E-01 0.  0.
         14    1    1    2    0    0 -0.16058958803E-01 -0.33900582512E-02 -0.16947190023E-01  0.23592157647E-01  0.00000000000E+00 0. -1.
     999901    1    3    3    0    0  0.13522583923E-01  0.13123056260E+00  0.34766233739E-02  0.88984066425E+00  0.88000000000E+00 0.  1.
        -11    1    4    4    0    0  0.39981981829E-02 -0.52013516474E-01  0.16134950910E-01  0.54607593305E-01  0.51100000000E-03 0.  1.
         11    1    4    4    0    0 -0.14618233029E-02 -0.75826987870E-01 -0.26643842611E-02  0.75889584802E-01  0.51100000000E-03 0. -1.
</event>
<event>
 8    1  0.9956970E+004  0.1043930E+01  0.7957747E-01            NaN
         13   -1    0    0    0    0  0.00000000000E+00  0.00000000000E+00  0.74505805969E-08  0.10566000000E+00  0.10566000000E+00 0. -1.
     999900   -1    0    0    0    0 -0.00000000000E+00 -0.00000000000E+00 -0.74505805969E-08  0.93827000000E+00  0.93827000000E+00 0. -1.
     999902    2    1    2    0    0 -0.97462599944E-02  0.44293555580E-02  0.26125646301E-01  0.10156960104E+01  0.10153035149E+01 0.  0.
     999903    2    3    3    0    0  0.99568283201E-01 -0.19769167575E-01  0.74478501770E-01  0.12728549914E+00  0.18705294931E-01 0.  0.
         14    1    1    2    0    0  0.97462599944E-02 -0.44293555580E-02 -0.26125646301E-01  0.28233989608E-01  0.00000000000E+00 0.  1.
     999901    1    3    3    0    0 -0.10931454320E+00  0.24198523133E-01 -0.48352855468E-01  0.88841051125E+00  0.88000000000E+00 0. -1.
        -11    1    4    4    0    0  0.29892842577E-01 -0.26113492029E-03  0.14147730834E-01  0.33076723501E-01  0.51100000000E-03 0.  1.
         11    1    4    4    0    0  0.69675440624E-01 -0.19508032654E-01  0.60330770936E-01  0.94208775636E-01  0.51100000000E-03 0. -1.
</event>
<event>
 8    1  0.9956970E+004  0.1043930E+01  0.7957747E-01            NaN
         13   -1    0    0    0    0  0.00000000000E+00  0.00000000000E+00  0.74505805969E-08  0.10566000000E+00  0.10566000000E+00 0.  1.
     999900   -1    0    0    0    0 -0.00000000000E+00 -0.00000000000E+00 -0.74505805969E-08  0.93827000000E+00  0.93827000000E+00 0.  1.
     999902    2    1    2    0    0 -0.17453189693E-01  0.11083481362E-01 -0.11637644099E-01  0.10202046517E+01  0.10199287423E+01 0.  0.
     999903    2    3    3    0    0  0.61024683028E-01  0.11360953338E+00  0.30203278710E-02  0.13066250885E+00  0.20794971156E-01 0.  0.
         14    1    1    2    0    0  0.17453189693E-01 -0.11083481362E-01  0.11637644099E-01  0.23725348254E-01  0.00000000000E+00 0.  1.
     999901    1    3    3    0    0 -0.78477872722E-01 -0.10252605202E+00 -0.14657971970E-01  0.88954214290E+00  0.88000000000E+00 0.  1.
        -11    1    4    4    0    0  0.26255429466E-01  0.30372644457E-01  0.47977575023E-02  0.40436675257E-01  0.51100000000E-03 0. -1.
         11    1    4    4    0    0  0.34769253563E-01  0.83236888920E-01 -0.17774296314E-02  0.90225833592E-01  0.51100000000E-03 0.  1.
</event>
<event>
 8    1  0.9956970E+004  0.1043930E+01  0.7957747E-01            NaN
         13   -1    0    0    0    0  0.00000000000E+00  0.00000000000E+00  0.74505805969E-08  0.10566000000E+00  0.10566000000E+00 0. -1.
     999900   -1    0    0    0    0 -0.00000000000E+00 -0.00000000000E+00 -0.74505805969E-08  0.93827000000E+00  0.93827000000E+00 0. -1.
     999902    2    1    2    0    0 -0.10176649793E-01 -0.20475961629E-01 -0.72867797237E-02  0.10199315341E+01  0.10196491592E+01 0.  0.
     999903    2    3    3    0    0  0.59134333266E-01 -0.28982675704E-01 -0.11154940057E+00  0.13102936253E+00  0.19711930810E-01 0.  0.
         14    1    1    2    0    0  0.10176649793E-01  0.20475961629E-01  0.72867797237E-02  0.23998465876E-01  0.00000000000E+00 0.  1.
     999901    1    3    3    0    0 -0.69310983060E-01  0.85067140747E-02  0.10426262085E+00  0.88890217159E+00  0.88000000000E+00 0.  1.
        -11    1    4    4    0    0  0.12389323371E-01 -0.12124805921E-01 -0.42969398209E-01  0.46337204875E-01  0.51100000000E-03 0.  1.
         11    1    4    4    0    0  0.46745009896E-01 -0.16857869783E-01 -0.68580002360E-01  0.84692157656E-01  0.51100000000E-03 0. -1.
</event>
<event>
 8    1  0.9956970E+004  0.1043930E+01  0.7957747E-01            NaN
         13   -1    0    0    0    0  0.00000000000E+00  0.00000000000E+00  0.74505805969E-08  0.10566000000E+00  0.10566000000E+00 0. -1.
     999900   -1    0    0    0    0 -0.00000000000E+00 -0.00000000000E+00 -0.74505805969E-08  0.93827000000E+00  0.93827000000E+00 0. -1.
     999902    2    1    2    0    0  0.12412868546E-03  0.16990358187E-01  0.85167313066E-02  0.10249241485E+01  0.10247479143E+01 0.  0.
     999903    2    3    3    0    0 -0.44919697145E-01 -0.42396557491E-01  0.11848278265E+00  0.13495320265E+00  0.18945971657E-01 0.  0.
         14    1    1    2    0    0 -0.12412868546E-03 -0.16990358187E-01 -0.85167313066E-02  0.19005851505E-01  0.00000000000E+00 0.  1.
     999901    1    3    3    0    0  0.45043825831E-01  0.59386915678E-01 -0.10996605135E+00  0.88997094584E+00  0.88000000000E+00 0. -1.
        -11    1    4    4    0    0 -0.24979451607E-01 -0.16106876493E-01  0.72470413190E-01  0.78330239255E-01  0.51100000000E-03 0.  1.
         11    1    4    4    0    0 -0.19940245539E-01 -0.26289680998E-01  0.46012369462E-01  0.56622963395E-01  0.51100000000E-03 0. -1.
</event>
<event>
 8    1  0.9956970E+004  0.1043930E+01  0.7957747E-01            NaN
         13   -1    0    0    0    0  0.00000000000E+00  0.00000000000E+00  0.74505805969E-08  0.10566000000E+00  0.10566000000E+00 0.  1.
     999900   -1    0    0    0    0 -0.00000000000E+00 -0.00000000000E+00 -0.74505805969E-08  0.93827000000E+00  0.93827000000E+00 0. -1.
     999902    2    1    2    0    0 -0.95245414660E-03  0.82985173566E-02  0.22156871329E-01  0.10202509057E+01  0.10199760836E+01 0.  0.
     999903    2    3    3    0    0  0.12341670588E+00  0.32950647320E-01 -0.16705811814E-01  0.13031510824E+00  0.19634531783E-01 0.  0.
         14    1    1    2    0    0  0.95245414660E-03 -0.82985173566E-02 -0.22156871329E-01  0.23679094288E-01  0.00000000000E+00 0. -1.
     999901    1    3    3    0    0 -0.12436916003E+00 -0.24652129964E-01  0.38862683143E-01  0.88993579747E+00  0.88000000000E+00 0. -1.
        -11    1    4    4    0    0  0.44259113303E-01  0.21028880039E-01 -0.29714582631E-02  0.49093518831E-01  0.51100000000E-03 0.  1.
         11    1    4    4    0    0  0.79157592579E-01  0.11921767282E-01 -0.13734353551E-01  0.81221589411E-01  0.51100000000E-03 0. -1.
</event>
<event>
 8    1  0.9956970E+004  0.1043930E+01  0.7957747E-01            NaN
         13   -1    0    0    0    0  0.00000000000E+00  0.00000000000E+00  0.74505805969E-08  0.10566000000E+00  0.10566000000E+00 0.  1.
     999900   -1    0    0    0    0 -0.00000000000E+00 -0.00000000000E+00 -0.74505805969E-08  0.93827000000E+00  0.93827000000E+00 0. -1.
     999902    2    1    2    0    0  0.23483062512E-02 -0.14065600463E-01 -0.18391054452E-01  0.10206579880E+01  0.10203926411E+01 0.  0.
     999903    2    3    3    0    0  0.36128615547E-01  0.10356180449E+00 -0.68130559003E-01  0.13079769896E+00  0.20879194727E-01 0.  0.
         14    1    1    2    0    0 -0.23483062512E-02  0.14065600463E-01  0.18391054452E-01  0.23272012000E-01  0.00000000000E+00 0.  1.
     999901    1    3    3    0    0 -0.33780309296E-01 -0.11762740496E+00  0.49739504551E-01  0.88986028904E+00  0.88000000000E+00 0.  1.
        -11    1    4    4    0    0  0.23174975368E-02  0.11642804004E-01 -0.15748458926E-01  0.19728171721E-01  0.51100000000E-03 0. -1.
         11    1    4    4    0    0  0.33811118010E-01  0.91919000490E-01 -0.52382100077E-01  0.11106952724E+00  0.51100000000E-03 0.  1.
</event>
<event>
 8    1  0.9956970E+004  0.1043930E+01  0.7957747E-01            NaN
         13   -1    0    0    0    0  0.00000000000E+00  0.00000000000E+00  0.74505805969E-08  0.10566000000E+00  0.10566000000E+00 0. -1.
     999900   -1    0    0    0    0 -0.00000000000E+00 -0.00000000000E+00 -0.74505805969E-08  0.93827000000E+00  0.93827000000E+00 0.  1.
     999902    2    1    2    0    0 -0.72212545739E-03  0.13576314653E-01  0.19489277364E-01  0.10201672199E+01  0.10198904289E+01 0.  0.
     999903    2    3    3    0    0  0.28341605047E-01  0.98066881696E-02  0.12810444634E+00  0.13300536015E+00  0.19500229348E-01 0.  0.
         14    1    1    2    0    0  0.72212545739E-03 -0.13576314653E-01 -0.19489277364E-01  0.23762780075E-01  0.00000000000E+00 0. -1.
     999901    1    3    3    0    0 -0.29063730504E-01  0.37696264834E-02 -0.10861516898E+00  0.88716185978E+00  0.88000000000E+00 0.  1.
        -11    1    4    4    0    0  0.15862893266E-01 -0.20559676416E-02  0.37405603910E-01  0.40685362363E-01  0.51100000000E-03 0. -1.
         11    1    4    4    0    0  0.12478711781E-01  0.11862655811E-01  0.90698842435E-01  0.92319997783E-01  0.51100000000E-03 0.  1.
</event>
<event>
 8    1  0.9956970E+004  0.1043930E+01  0.7957747E-01            NaN
         13   -1    0    0    0    0  0.00000000000E+00  0.00000000000E+00  0.74505805969E-08  0.10566000000E+00  0.10566000000E+00 0.  1.
     999900   -1    0    0    0    0 -0.00000000000E+00 -0.00000000000E+00 -0.74505805969E-08  0.93827000000E+00  0.93827000000E+00 0. -1.
     999902    2    1    2    0    0  0.14577249144E-01  0.17053643846E-01 -0.79707102375E-02  0.10201212793E+01  0.10198434043E+01 0.  0.
     999903    2    3    3    0    0  0.16652125190E-02 -0.81086830968E-01 -0.99355663646E-01  0.12986879644E+00  0.20408559473E-01 0.  0.
         14    1    1    2    0    0 -0.14577249144E-01 -0.17053643846E-01  0.79707102375E-02  0.23808720729E-01  0.00000000000E+00 0.  1.
     999901    1    3    3    0    0  0.12912036625E-01  0.98140474815E-01  0.91384953408E-01  0.89025248284E+00  0.88000000000E+00 0.  1.
        -11    1    4    4    0    0  0.10734748604E-01 -0.43760770291E-01 -0.57565458600E-01  0.73104603062E-01  0.51100000000E-03 0.  1.
         11    1    4    4    0    0 -0.90695360855E-02 -0.37326060677E-01 -0.41790205046E-01  0.56764193373E-01  0.51100000000E-03 0. -1.
</event>
<event>
 8    1  0.9956970E+004  0.1043930E+01  0.7957747E-01            NaN
         13   -1    0    0    0    0  0.00000000000E+00  0.00000000000E+00  0.74505805969E-08  0.10566000000E+00  0.10566000000E+00 0.  1.
     999900   -1    0    0    0    0 -0.00000000000E+00 -0.00000000000E+00 -0.74505805969E-08  0.93827000000E+00  0.93827000000E+00 0. -1.
     999902    2    1    2    0    0  0.10462599007E-01 -0.44035561294E-02  0.21546181587E-01  0.10195764535E+01  0.10192855583E+01 0.  0.
     999903    2    3    3    0    0  0.12300585894E+00 -0.38381455680E-01  0.19490745709E-01  0.13175625336E+00  0.19397001250E-01 0.  0.
         14    1    1    2    0    0 -0.10462599007E-01  0.44035561294E-02 -0.21546181587E-01  0.24353546467E-01  0.00000000000E+00 0. -1.
     999901    1    3    3    0    0 -0.11254325994E+00  0.33977899551E-01  0.20554358784E-02  0.88782020017E+00  0.88000000000E+00 0.  1.
        -11    1    4    4    0    0  0.42165345884E-01 -0.51000316257E-02  0.11272004726E-01  0.43945943244E-01  0.51100000000E-03 0.  1.
         11    1    4    4    0    0  0.80840513058E-01 -0.33281424054E-01  0.82187409824E-02  0.87810310118E-01  0.51100000000E-03 0. -1.
</event>
<event>
 8    1  0.9956970E+004  0.1043930E+01  0.7957747E-01            NaN
         13   -1    0    0    0    0  0.00000000000E+00  0.00000000000E+00  0.74505805969E-08  0.10566000000E+00  0.10566000000E+00 0. -1.
     999900   -1    0    0    0    0 -0.00000000000E+00 -0.00000000000E+00 -0.74505805969E-08  0.93827000000E+00  0.93827000000E+00 0. -1.
     999902    2    1    2    0    0 -0.25190958639E-02  0.21616100018E-01  0.89215053778E-02  0.10204099047E+01  0.10201388037E+01 0.  0.
     999903    2    3    3    0    0  0.11801604192E+00  0.51155928255E-01  0.19229743460E-01  0.13164245444E+00  0.20377380378E-01 0.  0.
         14    1    1    2    0    0  0.25190958639E-02 -0.21616100018E-01 -0.89215053778E-02  0.23520095284E-01  0.00000000000E+00 0.  1.
     999901    1    3    3    0    0 -0.12053513779E+00 -0.29539828237E-01 -0.10308238082E-01  0.88876745027E+00  0.88000000000E+00 0.  1.
        -11    1    4    4    0    0  0.39173357900E-01  0.19791911712E-01 -0.27818882295E-02  0.43980356541E-01  0.51100000000E-03 0.  1.
         11    1    4    4    0    0  0.78842684024E-01  0.31364016543E-01  0.22011631689E-01  0.87662097901E-01  0.51100000000E-03 0. -1.
</event>
<event>
 8    1  0.9956970E+004  0.1043930E+01  0.7957747E-01            NaN
         13   -1    0    0    0    0  0.00000000000E+00  0.00000000000E+00  0.74505805969E-08  0.10566000000E+00  0.10566000000E+00 0.  1.
     999900   -1    0    0    0    0 -0.00000000000E+00 -0.00000000000E+00 -0.74505805969E-08  0.93827000000E+00  0.93827000000E+00 0. -1.
     999902    2    1    2    0    0 -0.14691734742E-01  0.19297033847E-01 -0.63692389978E-02  0.10188543187E+01  0.10185456951E+01 0.  0.
     999903    2    3    3    0    0  0.97429289338E-01  0.28384028238E-01  0.75243525155E-01  0.12794784735E+00  0.20271755789E-01 0.  0.
         14    1    1    2    0    0  0.14691734742E-01 -0.19297033847E-01  0.63692389978E-02  0.25075681255E-01  0.00000000000E+00 0. -1.
     999901    1    3    3    0    0 -0.11212102408E+00 -0.90869943915E-02 -0.81612764153E-01  0.89090647140E+00  0.88000000000E+00 0. -1.
        -11    1    4    4    0    0  0.49232534884E-01  0.22757891552E-01  0.32175956791E-01  0.63065976845E-01  0.51100000000E-03 0.  1.
         11    1    4    4    0    0  0.48196754454E-01  0.56261366859E-02  0.43067568364E-01  0.64881870501E-01  0.51100000000E-03 0. -1.
</event>
<event>
 8    1  0.9956970E+004  0.1043930E+01  0.7957747E-01            NaN
         13   -1    0    0    0    0  0.00000000000E+00  0.00000000000E+00  0.74505805969E-08  0.10566000000E+00  0.10566000000E+00 0. -1.
     999900   -1    0    0    0    0 -0.00000000000E+00 -0.00000000000E+00 -0.74505805969E-08  0.93827000000E+00  0.93827000000E+00 0.  1.
     999902    2    1    2    0    0  0.35473929678E-02 -0.23493740689E-01 -0.40293870342E-02  0.10198307094E+01  0.10195459283E+01 0.  0.
     999903    2    3    3    0    0 -0.94023952130E-01 -0.66303730907E-01 -0.60683885954E-01  0.13159504533E+00  0.19950780295E-01 0.  0.
         14    1    1    2    0    0 -0.35473929678E-02  0.23493740689E-01  0.40293870342E-02  0.24099290619E-01  0.00000000000E+00 0. -1.
     999901    1    3    3    0    0  0.97571345098E-01  0.42809990217E-01  0.56654498920E-01  0.88823566405E+00  0.88000000000E+00 0.  1.
        -11    1    4    4    0    0 -0.59180724876E-01 -0.29656905647E-01 -0.34275031907E-01  0.74544813251E-01  0.51100000000E-03 0.  1.
         11    1    4    4    0    0 -0.34843227254E-01 -0.36646825260E-01 -0.26408854048E-01  0.57050232078E-01  0.51100000000E-03 0. -1.
</event>
<event>
 8    1  0.9956970E+004  0.1043930E+01  0.7957747E-01            NaN
         13   -1    0    0    0    0  0.00000000000E+00  0.00000000000E+00  0.74505805969E-08  0.10566000000E+00  0.10566000000E+00 0. -1.
     999900   -1    0    0    0    0 -0.00000000000E+00 -0.00000000000E+00 -0.74505805969E-08  0.93827000000E+00  0.93827000000E+00 0.  1.
     999902    2    1    2    0    0 -0.11326684809E-01  0.10266495667E-01  0.17741497144E-01  0.10205108744E+01  0.10202421229E+01 0.  0.
     999903    2    3    3    0    0  0.10344114339E+00  0.18148838087E-02  0.77655215125E-01  0.13099823385E+00  0.20660127956E-01 0.  0.
         14    1    1    2    0    0  0.11326684809E-01 -0.10266495667E-01 -0.17741497144E-01  0.23419125581E-01  0.00000000000E+00 0.  1.
     999901    1    3    3    0    0 -0.11476782820E+00  0.84516118586E-02 -0.59913717981E-01  0.88951264057E+00  0.88000000000E+00 0. -1.
        -11    1    4    4    0    0  0.54496231309E-01 -0.93088089389E-02  0.39554066350E-01  0.67979985559E-01  0.51100000000E-03 0. -1.
         11    1    4    4    0    0  0.48944912078E-01  0.11123692748E-01  0.38101148775E-01  0.63018248290E-01  0.51100000000E-03 0.  1.
</event>
<event>
 8    1  0.9956970E+004  0.1043930E+01  0.7957747E-01            NaN
         13   -1    0    0    0    0  0.00000000000E+00  0.00000000000E+00  0.74505805969E-08  0.10566000000E+00  0.10566000000E+00 0. -1.
     999900   -1    0    0    0    0 -0.00000000000E+00 -0.00000000000E+00 -0.74505805969E-08  0.93827000000E+00  0.93827000000E+00 0.  1.
     999902    2    1    2    0    0  0.12822266762E-01  0.19838248907E-01  0.84590122353E-03  0.10202935410E+01  0.10200197192E+01 0.  0.
     999903    2    3    3    0    0 -0.42691719679E-01 -0.11024816000E+00  0.44334145460E-01  0.12793962924E+00  0.20634741646E-01 0.  0.
         14    1    1    2    0    0 -0.12822266762E-01 -0.19838248907E-01 -0.84590122353E-03  0.23636458988E-01  0.00000000000E+00 0. -1.
     999901    1    3    3    0    0  0.55513986441E-01  0.13008640891E+00 -0.43488244236E-01  0.89235391177E+00  0.88000000000E+00 0.  1.
        -11    1    4    4    0    0 -0.29938742838E-02 -0.47703040858E-02 -0.21195238331E-02  0.60392538096E-02  0.51100000000E-03 0.  1.
         11    1    4    4    0    0 -0.39697845396E-01 -0.10547785592E+00  0.46453669293E-01  0.12190037543E+00  0.51100000000E-03 0. -1.
</event>
<event>
 8    1  0.9956970E+004  0.1043930E+01  0.7957747E-01            NaN
         13   -1    0    0    0    0  0.00000000000E+00  0.00000000000E+00  0.74505805969E-08  0.10566000000E+00  0.10566000000E+00 0.  1.
     999900   -1    0    0    0    0 -0.00000000000E+00 -0.00000000000E+00 -0.74505805969E-08  0.93827000000E+00  0.93827000000E+00 0. -1.
     999902    2    1    2    0    0 -0.18334944391E-01 -0.13395805495E-01  0.52376082462E-02  0.10206265597E+01  0.10203604873E+01 0.  0.
     999903    2    3    3    0    0 -0.64965566575E-01 -0.67552471514E-01  0.92788472036E-01  0.13339912934E+00  0.20044099309E-01 0.  0.
         14    1    1    2    0    0  0.18334944391E-01  0.13395805495E-01 -0.52376082462E-02  0.23303440321E-01  0.00000000000E+00 0.  1.
     999901    1    3    3    0    0  0.46630622184E-01  0.54156666019E-01 -0.87550863790E-01  0.88722743034E+00  0.88000000000E+00 0. -1.
        -11    1    4    4    0    0 -0.24431356695E-01 -0.31279049913E-01  0.26863091104E-01  0.47928665098E-01  0.51100000000E-03 0. -1.
         11    1    4    4    0    0 -0.40534209880E-01 -0.36273421601E-01  0.65925380932E-01  0.85470464239E-01  0.51100000000E-03 0.  1.
</event>
<event>
 8    1  0.9956970E+004  0.1043930E+01  0.7957747E-01            NaN
         13   -1    0    0    0    0  0.00000000000E+00  0.00000000000E+00  0.74505805969E-08  0.10566000000E+00  0.10566000000E+00 0. -1.
     999900   -1    0    0    0    0 -0.00000000000E+00 -0.00000000000E+00 -0.74505805969E-08  0.93827000000E+00  0.93827000000E+00 0. -1.
     999902    2    1    2    0    0  0.19676803909E-02 -0.17664892492E-02 -0.23231170148E-01  0.10205488213E+01  0.10202809501E+01 0.  0.
     999903    2    3    3    0    0  0.44981097008E-01 -0.12088245028E+00  0.84719602056E-02  0.13091751866E+00  0.20778756187E-01 0.  0.
         14    1    1    2    0    0 -0.19676803909E-02  0.17664892492E-02  0.23231170148E-01  0.23381178687E-01  0.00000000000E+00 0. -1.
     999901    1    3    3    0    0 -0.43013416617E-01  0.11911596103E+00 -0.31703130353E-01  0.88963130265E+00  0.88000000000E+00 0.  1.
        -11    1    4    4    0    0  0.77458089704E-02 -0.19874999218E-01 -0.63182657041E-02  0.22252971780E-01  0.51100000000E-03 0.  1.
         11    1    4    4    0    0  0.37235288037E-01 -0.10100745106E+00  0.14790225910E-01  0.10866454688E+00  0.51100000000E-03 0. -1.
</event>
<event>
 8    1  0.9956970E+004  0.1043930E+01  0.7957747E-01            NaN
         13   -1    0    0    0    0  0.00000000000E+00  0.00000000000E+00  0.74505805969E-08  0.10566000000E+00  0.10566000000E+00 0. -1.
     999900   -1    0    0    0    0 -0.00000000000E+00 -0.00000000000E+00 -0.74505805969E-08  0.93827000000E+00  0.93827000000E+00 0.  1.
     999902    2    1    2    0    0  0.43107063457E-02  0.80178619180E-02  0.23898518386E-01  0.10183564301E+01  0.10180352701E+01 0.  0.
     999903    2    3    3    0    0  0.52406161549E-01 -0.54243271724E-01  0.10532625478E+00  0.13110218361E+00  0.20135150977E-01 0.  0.
         14    1    1    2    0    0 -0.43107063457E-02 -0.80178619180E-02 -0.23898518386E-01  0.25573569950E-01  0.00000000000E+00 0.  1.
     999901    1    3    3    0    0 -0.48095455203E-01  0.62261133642E-01 -0.81427736396E-01  0.88725424644E+00  0.88000000000E+00 0.  1.
        -11    1    4    4    0    0  0.21434170020E-01 -0.34459178896E-01  0.64126844601E-01  0.75890526247E-01  0.51100000000E-03 0. -1.
         11    1    4    4    0    0  0.30971991529E-01 -0.19784092828E-01  0.41199410182E-01  0.55211657362E-01  0.51100000000E-03 0.  1.
</event>
<event>
 8    1  0.9956970E+004  0.1043930E+01  0.7957747E-01            NaN
         13   -1    0    0    0    0  0.00000000000E+00  0.00000000000E+00  0.74505805969E-08  0.10566000000E+00  0.10566000000E+00 0. -1.
     999900   -1    0    0    0    0 -0.00000000000E+00 -0.00000000000E+00 -0.74505805969E-08  0.93827000000E+00  0.93827000000E+00 0.  1.
     999902    2    1    2    0    0 -0.25705322667E-01  0.57604184641E-02 -0.62263745131E-02  0.10168613138E+01  0.10165009679E+01 0.  0.
     999903    2    3    3    0    0  0.21349390311E-01 -0.29884021135E-01  0.11901173443E+00  0.12603627146E+00  0.19300197046E-01 0.  0.
         14    1    1    2    0    0  0.25705322667E-01 -0.57604184641E-02  0.62263745131E-02  0.27068686223E-01  0.00000000000E+00 0. -1.
     999901    1    3    3    0    0 -0.47054712977E-01  0.35644439600E-01 -0.12523810894E+00  0.89082504232E+00  0.88000000000E+00 0.  1.
        -11    1    4    4    0    0  0.24798158192E-01 -0.26740689558E-01  0.99693015168E-01  0.10615541212E+00  0.51100000000E-03 0. -1.
         11    1    4    4    0    0 -0.34487678808E-02 -0.31433315775E-02  0.19318719260E-01  0.19880859342E-01  0.51100000000E-03 0.  1.
</event>
<event>
 8    1  0.9956970E+004  0.1043930E+01  0.7957747E-01            NaN
         13   -1    0    0    0    0  0.00000000000E+00  0.00000000000E+00  0.74505805969E-08  0.10566000000E+00  0.10566000000E+00 0. -1.
     999900   -1    0    0    0    0 -0.00000000000E+00 -0.00000000000E+00 -0.74505805969E-08  0.93827000000E+00  0.93827000000E+00 0.  1.
     999902    2    1    2    0    0 -0.16957326848E-01  0.17000241751E-01  0.18849063742E-02  0.10198444852E+01  0.10195600335E+01 0.  0.
     999903    2    3    3    0    0 -0.12584318117E+00 -0.15715709132E-01 -0.29905505948E-01  0.13196099447E+00  0.20877619919E-01 0.  0.
         14    1    1    2    0    0  0.16957326848E-01 -0.17000241751E-01 -0.18849063742E-02  0.24085514848E-01  0.00000000000E+00 0.  1.
     999901    1    3    3    0    0  0.10888585433E+00  0.32715950883E-01  0.31790412322E-01  0.88788349068E+00  0.88000000000E+00 0.  1.
        -11    1    4    4    0    0 -0.48415101140E-01  0.35186430112E-02 -0.14886064668E-01  0.50776558660E-01  0.51100000000E-03 0.  1.
         11    1    4    4    0    0 -0.77428080034E-01 -0.19234352143E-01 -0.15019441279E-01  0.81184435808E-01  0.51100000000E-03 0. -1.
</event>
<event>
 8    1  0.9956970E+004  0.1043930E+01  0.7957747E-01            NaN
         13   -1    0    0    0    0  0.00000000000E+00  0.00000000000E+00  0.74505805969E-08  0.10566000000E+00  0.10566000000E+00 0.  1.
     999900   -1    0    0    0    0 -0.00000000000E+00 -0.00000000000E+00 -0.74505805969E-08  0.93827000000E+00  0.93827000000E+00 0. -1.
     999902    2    1    2    0    0 -0.14771906478E-01  0.16537092594E-01 -0.12460104004E-02  0.10217210560E+01  0.10214796518E+01 0.  0.
     999903    2    3    3    0    0 -0.10644791597E-01 -0.83899081858E-01  0.96818800125E-01  0.13058629329E+00  0.22946294097E-01 0.  0.
         14    1    1    2    0    0  0.14771906478E-01 -0.16537092594E-01  0.12460104004E-02  0.22208944017E-01  0.00000000000E+00 0. -1.
     999901    1    3    3    0    0 -0.41271148807E-02  0.10043617445E+00 -0.98064810525E-01  0.89113476269E+00  0.88000000000E+00 0. -1.
        -11    1    4    4    0    0 -0.14778596390E-01 -0.30333063849E-01  0.41182577635E-01  0.53242534645E-01  0.51100000000E-03 0. -1.
         11    1    4    4    0    0  0.41338047933E-02 -0.53566018009E-01  0.55636222490E-01  0.77343758645E-01  0.51100000000E-03 0.  1.
</event>
<event>
 8    1  0.9956970E+004  0.1043930E+01  0.7957747E-01            NaN
         13   -1    0    0    0    0  0.00000000000E+00  0.00000000000E+00  0.74505805969E-08  0.10566000000E+00  0.10566000000E+00 0. -1.
     999900   -1    0    0    0    0 -0.00000000000E+00 -0.00000000000E+00 -0.74505805969E-08  0.93827000000E+00  0.93827000000E+00 0.  1.
     999902    2    1    2    0    0  0.12288642457E-03  0.19432206255E-01  0.12966374499E-01  0.10205686514E+01  0.10203012396E+01 0.  0.
     999903    2    3    3    0    0 -0.11841191941E+00 -0.33326922642E-01 -0.36270642729E-01  0.12969362663E+00  0.19308309958E-01 0.  0.
         14    1    1    2    0    0 -0.12288642457E-03 -0.19432206255E-01 -0.12966374499E-01  0.23361348605E-01  0.00000000000E+00 0.  1.
     999901    1    3    3    0    0  0.11853480584E+00  0.52759128898E-01  0.49237017228E-01  0.89087502476E+00  0.88000000000E+00 0.  1.
        -11    1    4    4    0    0 -0.86744347050E-01 -0.31119762732E-01 -0.32501305961E-01  0.97722143795E-01  0.51100000000E-03 0.  1.
         11    1    4    4    0    0 -0.31667572363E-01 -0.22071599103E-02 -0.37693367683E-02  0.31971482839E-01  0.51100000000E-03 0. -1.
</event>
<event>
 8    1  0.9956970E+004  0.1043930E+01  0.7957747E-01            NaN
         13   -1    0    0    0    0  0.00000000000E+00  0.00000000000E+00  0.74505805969E-08  0.10566000000E+00  0.10566000000E+00 0.  1.
     999900   -1    0    0    0    0 -0.00000000000E+00 -0.00000000000E+00 -0.74505805969E-08  0.93827000000E+00  0.93827000000E+00 0.  1.
     999902    2    1    2    0    0 -0.11186410219E-01  0.37276961755E-02 -0.20925006924E-01  0.10199115195E+01  0.10196286678E+01 0.  0.
     999903    2    3    3    0    0 -0.50975718710E-01  0.91232329424E-01  0.74187552995E-01  0.12958200240E+00  0.19126957303E-01 0.  0.
         14    1    1    2    0    0  0.11186410219E-01 -0.37276961755E-02  0.20925006924E-01  0.24018480534E-01  0.00000000000E+00 0.  1.
     999901    1    3    3    0    0  0.39789308491E-01 -0.87504633249E-01 -0.95112559919E-01  0.89032951707E+00  0.88000000000E+00 0.  1.
        -11    1    4    4    0    0 -0.30843538345E-01  0.40502550307E-01  0.43505263262E-01  0.66968272275E-01  0.51100000000E-03 0.  1.
         11    1    4    4    0    0 -0.20132180366E-01  0.50729779118E-01  0.30682289733E-01  0.62613730122E-01  0.51100000000E-03 0. -1.
</event>
<event>
 8    1  0.9956970E+004  0.1043930E+01  0.7957747E-01            NaN
         13   -1    0    0    0    0  0.00000000000E+00  0.00000000000E+00  0.74505805969E-08  0.10566000000E+00  0.10566000000E+00 0.  1.
     999900   -1    0    0    0    0 -0.00000000000E+00 -0.00000000000E+00 -0.74505805969E-08  0.93827000000E+00  0.93827000000E+00 0. -1.
     999902    2    1    2    0    0 -0.15544457564E-01 -0.51988265849E-02  0.17626283138E-01  0.10198604380E+01  0.10195763675E+01 0.  0.
     999903    2    3    3    0    0  0.73106540045E-01  0.85592763095E-01 -0.56830445458E-01  0.12764638487E+00  0.19829592701E-01 0.  0.
         14    1    1    2    0    0  0.15544457564E-01  0.51988265849E-02 -0.17626283138E-01  0.24069562025E-01  0.00000000000E+00 0. -1.
     999901    1    3    3    0    0 -0.88650997608E-01 -0.90791589680E-01  0.74456728596E-01  0.89221405311E+00  0.88000000000E+00 0. -1.
        -11    1    4    4    0    0  0.65248320017E-01  0.64356900118E-01 -0.45652480023E-01  0.10238927635E+00  0.51100000000E-03 0.  1.
         11    1    4    4    0    0  0.78582200276E-02  0.21235862977E-01 -0.11177965435E-01  0.25257108517E-01  0.51100000000E-03 0. -1.
</event>
<event>
 8    1  0.9956970E+004  0.1043930E+01  0.7957747E-01            NaN
         13   -1    0    0    0    0  0.00000000000E+00  0.00000000000E+00  0.74505805969E-08  0.10566000000E+00  0.10566000000E+00 0. -1.
     999900   -1    0    0    0    0 -0.00000000000E+00 -0.00000000000E+00 -0.74505805969E-08  0.93827000000E+00  0.93827000000E+00 0. -1.
     999902    2    1    2    0    0  0.16555260675E-01  0.45381077323E-02  0.16901235080E-01  0.10198401095E+01  0.10195555532E+01 0.  0.
     999903    2    3    3    0    0 -0.64999376146E-01  0.50677785500E-01 -0.95520787944E-01  0.12775337608E+00  0.20088487459E-01 0.  0.
         14    1    1    2    0    0 -0.16555260675E-01 -0.45381077323E-02 -0.16901235080E-01  0.24089890515E-01  0.00000000000E+00 0.  1.
     999901    1    3    3    0    0  0.81554636821E-01 -0.46139677768E-01  0.11242202302E+00  0.89208673340E+00  0.88000000000E+00 0.  1.
        -11    1    4    4    0    0 -0.46832673966E-01  0.27645721971E-01 -0.71511056159E-01  0.89842515371E-01  0.51100000000E-03 0. -1.
         11    1    4    4    0    0 -0.18166702180E-01  0.23032063529E-01 -0.24009731785E-01  0.37910860712E-01  0.51100000000E-03 0.  1.
</event>
<event>
 8    1  0.9956970E+004  0.1043930E+01  0.7957747E-01            NaN
         13   -1    0    0    0    0  0.00000000000E+00  0.00000000000E+00  0.74505805969E-08  0.10566000000E+00  0.10566000000E+00 0.  1.
     999900   -1    0    0    0    0 -0.00000000000E+00 -0.00000000000E+00 -0.74505805969E-08  0.93827000000E+00  0.93827000000E+00 0. -1.
     999902    2    1    2    0    0  0.15308597732E-01 -0.18190353976E-01 -0.54701332164E-03  0.10201488864E+01  0.10198716630E+01 0.  0.
     999903    2    3    3    0    0  0.40315589070E-01  0.12034991846E+00 -0.10609035557E-01  0.12890256744E+00  0.19846174959E-01 0.  0.
         14    1    1    2    0    0 -0.15308597732E-01  0.18190353976E-01  0.54701332164E-03  0.23781113638E-01  0.00000000000E+00 0. -1.
     999901    1    3    3    0    0 -0.25006991338E-01 -0.13854027244E+00  0.10062022236E-01  0.89124631892E+00  0.88000000000E+00 0. -1.
        -11    1    4    4    0    0  0.22255054639E-01  0.92602249048E-01 -0.54988154269E-02  0.95398962666E-01  0.51100000000E-03 0. -1.
         11    1    4    4    0    0  0.18060534431E-01  0.27747669416E-01 -0.51102201304E-02  0.33503604772E-01  0.51100000000E-03 0.  1.
</event>
<event>
 8    1  0.9956970E+004  0.1043930E+01  0.7957747E-01            NaN
         13   -1    0    0    0    0  0.00000000000E+00  0.00000000000E+00  0.74505805969E-08  0.10566000000E+00  0.10566000000E+00 0.  1.
     999900   -1    0    0    0    0 -0.00000000000E+00 -0.00000000000E+00 -0.74505805969E-08  0.93827000000E+00  0.93827000000E+00 0.  1.
     999902    2    1    2    0    0  0.65820668322E-02  0.17681730759E-01  0.12893295245E-01  0.10210782108E+01  0.10208224666E+01 0.  0.
     999903    2    3    3    0    0 -0.32034153312E-01  0.17298546186E-01  0.12637299958E+00  0.13295152921E+00  0.19507624619E-01 0.  0.
         14    1    1    2    0    0 -0.65820668322E-02 -0.17681730759E-01 -0.12893295245E-01  0.22851789179E-01  0.00000000000E+00 0. -1.
     999901    1    3    3    0    0  0.38616220145E-01  0.38318457304E-03 -0.11347970434E+00  0.88812668161E+00  0.88000000000E+00 0.  1.
        -11    1    4    4    0    0 -0.21462821154E-01  0.67106696534E-02  0.46103701938E-01  0.51298130886E-01  0.51100000000E-03 0. -1.
         11    1    4    4    0    0 -0.10571332159E-01  0.10587876532E-01  0.80269297643E-01  0.81653398326E-01  0.51100000000E-03 0.  1.
</event>
<event>
 8    1  0.9956970E+004  0.1043930E+01  0.7957747E-01            NaN
         13   -1    0    0    0    0  0.00000000000E+00  0.00000000000E+00  0.74505805969E-08  0.10566000000E+00  0.10566000000E+00 0. -1.
     999900   -1    0    0    0    0 -0.00000000000E+00 -0.00000000000E+00 -0.74505805969E-08  0.93827000000E+00  0.93827000000E+00 0. -1.
     999902    2    1    2    0    0 -0.85532078358E-02 -0.15616965919E-01  0.15237302174E-01  0.10204945063E+01  0.10202253746E+01 0.  0.
     999903    2    3    3    0    0  0.10209128823E+00 -0.48867181353E-01 -0.60282843361E-01  0.12973579948E+00  0.19665297311E-01 0.  0.
         14    1    1    2    0    0  0.85532078358E-02  0.15616965919E-01 -0.15237302174E-01  0.23435493730E-01  0.00000000000E+00 0. -1.
     999901    1    3    3    0    0 -0.11064449606E+00  0.33250215434E-01  0.75520145536E-01  0.89075870679E+00  0.88000000000E+00 0.  1.
        -11    1    4    4    0    0  0.70046100542E-01 -0.23110620583E-01 -0.39022319606E-01  0.83447945051E-01  0.51100000000E-03 0. -1.
         11    1    4    4    0    0  0.32045187686E-01 -0.25756560770E-01 -0.21260523756E-01  0.46287854432E-01  0.51100000000E-03 0.  1.
</event>
<event>
 8    1  0.9956970E+004  0.1043930E+01  0.7957747E-01            NaN
         13   -1    0    0    0    0  0.00000000000E+00  0.00000000000E+00  0.74505805969E-08  0.10566000000E+00  0.10566000000E+00 0.  1.
     999900   -1    0    0    0    0 -0.00000000000E+00 -0.00000000000E+00 -0.74505805969E-08  0.93827000000E+00  0.93827000000E+00 0. -1.
     999902    2    1    2    0    0 -0.23043810557E-02  0.44673307096E-02  0.23765288586E-01  0.10196389284E+01  0.10193495417E+01 0.  0.
     999903    2    3    3    0    0  0.37464219629E-01  0.37112642427E-02  0.12563168560E+00  0.13287014456E+00  0.21302902449E-01 0.  0.
         14    1    1    2    0    0  0.23043810557E-02 -0.44673307096E-02 -0.23765288586E-01  0.24291071555E-01  0.00000000000E+00 0. -1.
     999901    1    3    3    0    0 -0.39768600685E-01  0.75606646689E-03 -0.10186639702E+00  0.88676878389E+00  0.88000000000E+00 0. -1.
        -11    1    4    4    0    0  0.23388379141E-01  0.17910559884E-02  0.42631103434E-01  0.48661034324E-01  0.51100000000E-03 0. -1.
         11    1    4    4    0    0  0.14075840488E-01  0.19202082543E-02  0.83000582167E-01  0.84209110233E-01  0.51100000000E-03 0.  1.
</event>
<event>
 8    1  0.9956970E+004  0.1043930E+01  0.7957747E-01            NaN
         13   -1    0    0    0    0  0.00000000000E+00  0.00000000000E+00  0.74505805969E-08  0.10566000000E+00  0.10566000000E+00 0.  1.
     999900   -1    0    0    0    0 -0.00000000000E+00 -0.00000000000E+00 -0.74505805969E-08  0.93827000000E+00  0.93827000000E+00 0.  1.
     999902    2    1    2    0    0 -0.13304523123E-01  0.19135754941E-01 -0.47464918287E-02  0.10201452015E+01  0.10198678913E+01 0.  0.
     999903    2    3    3    0    0 -0.55307374524E-01  0.76262118807E-01 -0.92269921161E-01  0.13296539359E+00  0.17065787380E-01 0.  0.
         14    1    1    2    0    0  0.13304523123E-01 -0.19135754941E-01  0.47464918287E-02  0.23784798451E-01  0.00000000000E+00 0. -1.
     999901    1    3    3    0    0  0.42002851401E-01 -0.57126363866E-01  0.87523429332E-01  0.88717980796E+00  0.88000000000E+00 0. -1.
        -11    1    4    4    0    0 -0.18712067757E-01  0.29122704115E-01 -0.45329911765E-01  0.57038017114E-01  0.51100000000E-03 0. -1.
         11    1    4    4    0    0 -0.36595306767E-01  0.47139414692E-01 -0.46940009396E-01  0.75927376472E-01  0.51100000000E-03 0.  1.
</event>
<event>
 8    1  0.9956970E+004  0.1043930E+01  0.7957747E-01            NaN
         13   -1    0    0    0    0  0.00000000000E+00  0.00000000000E+00  0.74505805969E-08  0.10566000000E+00  0.10566000000E+00 0. -1.
     999900   -1    0    0    0    0 -0.00000000000E+00 -0.00000000000E+00 -0.74505805969E-08  0.93827000000E+00  0.93827000000E+00 0.  1.
     999902    2    1    2    0    0 -0.16339052341E-01 -0.19185329417E-01 -0.21784706780E-01  0.10106191167E+01  0.10100699897E+01 0.  0.
     999903    2    3    3    0    0 -0.55546840955E-01  0.37542949750E-01  0.96981379099E-01  0.11996725908E+00  0.22177257326E-01 0.  0.
         14    1    1    2    0    0  0.16339052341E-01  0.19185329417E-01  0.21784706780E-01  0.33310883292E-01  0.00000000000E+00 0. -1.
     999901    1    3    3    0    0  0.39207788614E-01 -0.56728279167E-01 -0.11876608588E+00  0.89065185763E+00  0.88000000000E+00 0.  1.
        -11    1    4    4    0    0 -0.21771789953E-01  0.17087043999E-01  0.22529093056E-01  0.35690321732E-01  0.51100000000E-03 0. -1.
         11    1    4    4    0    0 -0.33775051002E-01  0.20455905751E-01  0.74452286043E-01  0.84276937345E-01  0.51100000000E-03 0.  1.
</event>
<event>
 8    1  0.9956970E+004  0.1043930E+01  0.7957747E-01            NaN
         13   -1    0    0    0    0  0.00000000000E+00  0.00000000000E+00  0.74505805969E-08  0.10566000000E+00  0.10566000000E+00 0. -1.
     999900   -1    0    0    0    0 -0.00000000000E+00 -0.00000000000E+00 -0.74505805969E-08  0.93827000000E+00  0.93827000000E+00 0. -1.
     999902    2    1    2    0    0  0.13960489737E-01 -0.15173636930E-01  0.10807702517E-01  0.10206503745E+01  0.10203848519E+01 0.  0.
     999903    2    3    3    0    0 -0.88054243519E-01 -0.48181374409E-01 -0.79374197476E-01  0.12956716195E+00  0.20307426958E-01 0.  0.
         14    1    1    2    0    0 -0.13960489737E-01  0.15173636930E-01 -0.10807702517E-01  0.23279625536E-01  0.00000000000E+00 0.  1.
     999901    1    3    3    0    0  0.10201473326E+00  0.33007737479E-01  0.90181899994E-01  0.89108321251E+00  0.88000000000E+00 0.  1.
        -11    1    4    4    0    0 -0.61462652249E-01 -0.24140019765E-01 -0.57559787272E-01  0.87600162143E-01  0.51100000000E-03 0.  1.
         11    1    4    4    0    0 -0.26591591270E-01 -0.24041354644E-01 -0.21814410205E-01  0.41966999809E-01  0.51100000000E-03 0. -1.
</event>
<event>
 8    1  0.9956970E+004  0.1043930E+01  0.7957747E-01            NaN
         13   -1    0    0    0    0  0.00000000000E+00  0.00000000000E+00  0.74505805969E-08  0.10566000000E+00  0.10566000000E+00 0. -1.
     999900   -1    0    0    0    0 -0.00000000000E+00 -0.00000000000E+00 -0.74505805969E-08  0.93827000000E+00  0.93827000000E+00 0. -1.
     999902    2    1    2    0    0 -0.39479151501E-02 -0.55193503386E-03 -0.21905816939E-01  0.10216644328E+01  0.10214217825E+01 0.  0.
     999903    2    3    3    0    0  0.49265804097E-01 -0.70783680222E-01 -0.10047320823E+00  0.13378097598E+00  0.19105892332E-01 0.  0.
         14    1    1    2    0    0  0.39479151501E-02  0.55193503386E-03  0.21905816939E-01  0.22265567185E-01  0.00000000000E+00 0. -1.
     999901    1    3    3    0    0 -0.53213719247E-01  0.70231745189E-01  0.78567391296E-01  0.88788345684E+00  0.88000000000E+00 0.  1.
        -11    1    4    4    0    0  0.23062760084E-01 -0.42959753262E-01 -0.67690969292E-01  0.83425174544E-01  0.51100000000E-03 0. -1.
         11    1    4    4    0    0  0.26203044014E-01 -0.27823926960E-01 -0.32782238942E-01  0.50355801434E-01  0.51100000000E-03 0.  1.
</event>
<event>
 8    1  0.9956970E+004  0.1043930E+01  0.7957747E-01            NaN
         13   -1    0    0    0    0  0.00000000000E+00  0.00000000000E+00  0.74505805969E-08  0.10566000000E+00  0.10566000000E+00 0.  1.
     999900   -1    0    0    0    0 -0.00000000000E+00 -0.00000000000E+00 -0.74505805969E-08  0.93827000000E+00  0.93827000000E+00 0.  1.
     999902    2    1    2    0    0  0.15462278348E-01  0.18167716560E-01  0.17452930464E-01  0.10143706908E+01  0.10139399123E+01 0.  0.
     999903    2    3    3    0    0 -0.26138339136E-01 -0.92070115890E-01  0.77111984338E-01  0.12451553757E+00  0.19943468977E-01 0.  0.
         14    1    1    2    0    0 -0.15462278348E-01 -0.18167716560E-01 -0.17452930464E-01  0.29559309168E-01  0.00000000000E+00 0.  1.
     999901    1    3    3    0    0  0.41600617484E-01  0.11023783245E+00 -0.59659053874E-01  0.88985515326E+00  0.88000000000E+00 0.  1.
        -11    1    4    4    0    0 -0.20064734925E-01 -0.86789980283E-01  0.66387606855E-01  0.11109756852E+00  0.51100000000E-03 0.  1.
         11    1    4    4    0    0 -0.60736042105E-02 -0.52801356076E-02  0.10724377482E-01  0.13417969054E-01  0.51100000000E-03 0. -1.
</event>
<event>
 8    1  0.9956970E+004  0.1043930E+01  0.7957747E-01            NaN
         13   -1    0    0    0    0  0.00000000000E+00  0.00000000000E+00  0.74505805969E-08  0.10566000000E+00  0.10566000000E+00 0. -1.
     999900   -1    0    0    0    0 -0.00000000000E+00 -0.00000000000E+00 -0.74505805969E-08  0.93827000000E+00  0.93827000000E+00 0. -1.
     999902    2    1    2    0    0 -0.11423390088E-01  0.21568909997E-01 -0.31681537767E-02  0.10193180330E+01  0.10190208553E+01 0.  0.
     999903    2    3    3    0    0 -0.44986428190E-03  0.78378954444E-01  0.10323562097E+00  0.13102215738E+00  0.19124576076E-01 0.  0.
         14    1    1    2    0    0  0.11423390088E-01 -0.21568909997E-01  0.31681537767E-02  0.24611966966E-01  0.00000000000E+00 0. -1.
     999901    1    3    3    0    0 -0.10973525807E-01 -0.56810044447E-01 -0.10640377475E+00  0.88829587565E+00  0.88000000000E+00 0. -1.
        -11    1    4    4    0    0 -0.15539471718E-02  0.28371148034E-01  0.23413089118E-01  0.36820791078E-01  0.51100000000E-03 0. -1.
         11    1    4    4    0    0  0.11040828899E-02  0.50007806409E-01  0.79822531855E-01  0.94201366304E-01  0.51100000000E-03 0.  1.
</event>
<event>
 8    1  0.9956970E+004  0.1043930E+01  0.7957747E-01            NaN
         13   -1    0    0    0    0  0.00000000000E+00  0.00000000000E+00  0.74505805969E-08  0.10566000000E+00  0.10566000000E+00 0. -1.
     999900   -1    0    0    0    0 -0.00000000000E+00 -0.00000000000E+00 -0.74505805969E-08  0.93827000000E+00  0.93827000000E+00 0.  1.
     999902    2    1    2    0    0 -0.11397042395E-01  0.22256389646E-01 -0.63547772297E-03  0.10189171376E+01  0.10186100775E+01 0.  0.
     999903    2    3    3    0    0 -0.84354732566E-01  0.31907350773E-01 -0.92867935513E-01  0.13104170042E+00  0.20338974000E-01 0.  0.
         14    1    1    2    0    0  0.11397042395E-01 -0.22256389646E-01  0.63547772297E-03  0.25012862438E-01  0.00000000000E+00 0. -1.
     999901    1    3    3    0    0  0.72957690172E-01 -0.96509611269E-02  0.92232457790E-01  0.88787543714E+00  0.88000000000E+00 0.  1.
        -11    1    4    4    0    0 -0.50297660085E-01  0.28689714485E-01 -0.52920690549E-01  0.78446255082E-01  0.51100000000E-03 0. -1.
         11    1    4    4    0    0 -0.34057072481E-01  0.32176362885E-02 -0.39947244964E-01  0.52595445340E-01  0.51100000000E-03 0.  1.
</event>
<event>
 8    1  0.9956970E+004  0.1043930E+01  0.7957747E-01            NaN
         13   -1    0    0    0    0  0.00000000000E+00  0.00000000000E+00  0.74505805969E-08  0.10566000000E+00  0.10566000000E+00 0.  1.
     999900   -1    0    0    0    0 -0.00000000000E+00 -0.00000000000E+00 -0.74505805969E-08  0.93827000000E+00  0.93827000000E+00 0.  1.
     999902    2    1    2    0    0  0.95019769238E-02 -0.16201323166E-01 -0.15089096957E-01  0.10198374434E+01  0.10195528234E+01 0.  0.
     999903    2    3    3    0    0 -0.73006990519E-01  0.87046506563E-01  0.53782489497E-01  0.12730669350E+00  0.20182246249E-01 0.  0.
         14    1    1    2    0    0 -0.95019769238E-02  0.16201323166E-01  0.15089096957E-01  0.24092556625E-01  0.00000000000E+00 0.  1.
     999901    1    3    3    0    0  0.82508967443E-01 -0.10324782973E+00 -0.68871586454E-01  0.89253074988E+00  0.88000000000E+00 0.  1.
        -11    1    4    4    0    0 -0.44459118726E-01  0.42606402866E-01  0.37192598101E-01  0.71940734480E-01  0.51100000000E-03 0. -1.
         11    1    4    4    0    0 -0.28547871793E-01  0.44440103697E-01  0.16589891396E-01  0.55365959019E-01  0.51100000000E-03 0.  1.
</event>
<event>
 8    1  0.9956970E+004  0.1043930E+01  0.7957747E-01            NaN
         13   -1    0    0    0    0  0.00000000000E+00  0.00000000000E+00  0.74505805969E-08  0.10566000000E+00  0.10566000000E+00 0.  1.
     999900   -1    0    0    0    0 -0.00000000000E+00 -0.00000000000E+00 -0.74505805969E-08  0.93827000000E+00  0.93827000000E+00 0.  1.
     999902    2    1    2    0    0  0.40641458168E-02 -0.12831130043E-01  0.19477935141E-01  0.10202541656E+01  0.10199794200E+01 0.  0.
     999903    2    3    3    0    0 -0.10756744433E+00  0.50355416968E-01  0.50005397038E-01  0.13043054395E+00  0.20128685111E-01 0.  0.
         14    1    1    2    0    0 -0.40641458168E-02  0.12831130043E-01 -0.19477935141E-01  0.23675834446E-01  0.00000000000E+00 0. -1.
     999901    1    3    3    0    0  0.11163159014E+00 -0.63186547011E-01 -0.30527461897E-01  0.88982362161E+00  0.88000000000E+00 0.  1.
        -11    1    4    4    0    0 -0.35346983556E-01  0.21860289496E-01  0.86174725223E-02  0.42447655495E-01  0.51100000000E-03 0.  1.
         11    1    4    4    0    0 -0.72220460771E-01  0.28495127472E-01  0.41387924515E-01  0.87982888451E-01  0.51100000000E-03 0. -1.
</event>
<event>
 8    1  0.9956970E+004  0.1043930E+01  0.7957747E-01            NaN
         13   -1    0    0    0    0  0.00000000000E+00  0.00000000000E+00  0.74505805969E-08  0.10566000000E+00  0.10566000000E+00 0.  1.
     999900   -1    0    0    0    0 -0.00000000000E+00 -0.00000000000E+00 -0.74505805969E-08  0.93827000000E+00  0.93827000000E+00 0. -1.
     999902    2    1    2    0    0 -0.31171030571E-02  0.95807454816E-02  0.20453481326E-01  0.10211297387E+01  0.10208751596E+01 0.  0.
     999903    2    3    3    0    0 -0.50208778952E-02  0.11895340703E+00  0.57245429083E-01  0.13359402065E+00  0.19879661549E-01 0.  0.
         14    1    1    2    0    0  0.31171030571E-02 -0.95807454816E-02 -0.20453481326E-01  0.22800261266E-01  0.00000000000E+00 0. -1.
     999901    1    3    3    0    0  0.19037748381E-02 -0.10937266155E+00 -0.36791947757E-01  0.88753571808E+00  0.88000000000E+00 0. -1.
        -11    1    4    4    0    0 -0.41838484368E-02  0.10385711532E+00  0.56821645790E-01  0.11845997443E+00  0.51100000000E-03 0. -1.
         11    1    4    4    0    0 -0.83702945841E-03  0.15096291711E-01  0.42378329273E-03  0.15134046221E-01  0.51100000000E-03 0.  1.
</event>
<event>
 8    1  0.9956970E+004  0.1043930E+01  0.7957747E-01            NaN
         13   -1    0    0    0    0  0.00000000000E+00  0.00000000000E+00  0.74505805969E-08  0.10566000000E+00  0.10566000000E+00 0.  1.
     999900   -1    0    0    0    0 -0.00000000000E+00 -0.00000000000E+00 -0.74505805969E-08  0.93827000000E+00  0.93827000000E+00 0. -1.
     999902    2    1    2    0    0  0.21916113833E-01  0.50470719577E-02  0.89918408865E-02  0.10197093026E+01  0.10194216103E+01 0.  0.
     999903    2    3    3    0    0  0.69321505364E-01  0.84221368176E-01  0.72710737196E-01  0.13259265970E+00  0.19880949169E-01 0.  0.
         14    1    1    2    0    0 -0.21916113833E-01 -0.50470719577E-02 -0.89918408865E-02  0.24220697418E-01  0.00000000000E+00 0.  1.
     999901    1    3    3    0    0 -0.47405391531E-01 -0.79174296219E-01 -0.63718896309E-01  0.88711664288E+00  0.88000000000E+00 0.  1.
        -11    1    4    4    0    0  0.35078344046E-01  0.38279335783E-01  0.23228323900E-01  0.56882457060E-01  0.51100000000E-03 0. -1.
         11    1    4    4    0    0  0.34243161317E-01  0.45942032394E-01  0.49482413295E-01  0.75710202641E-01  0.51100000000E-03 0.  1.
</event>
<event>
 8    1  0.9956970E+004  0.1043930E+01  0.7957747E-01            NaN
         13   -1    0    0    0    0  0.00000000000E+00  0.00000000000E+00  0.74505805969E-08  0.10566000000E+00  0.10566000000E+00 0.  1.
     999900   -1    0    0    0    0 -0.00000000000E+00 -0.00000000000E+00 -0.74505805969E-08  0.93827000000E+00  0.93827000000E+00 0. -1.
     999902    2    1    2    0    0  0.35253154251E-02 -0.16870713381E-01  0.14476440543E-01  0.10214218648E+01  0.10211738392E+01 0.  0.
     999903    2    3    3    0    0  0.10474943081E+00  0.56130983079E-01  0.53345734579E-01  0.13176665562E+00  0.19838185914E-01 0.  0.
         14    1    1    2    0    0 -0.35253154251E-02  0.16870713381E-01 -0.14476440543E-01  0.22508135188E-01  0.00000000000E+00 0. -1.
     999901    1    3    3    0    0 -0.10122411538E+00 -0.73001696461E-01 -0.38869294036E-01  0.88965520919E+00  0.88000000000E+00 0. -1.
        -11    1    4    4    0    0  0.68477143728E-01  0.27709980236E-01  0.26799219418E-01  0.78583850124E-01  0.51100000000E-03 0. -1.
         11    1    4    4    0    0  0.36272287078E-01  0.28421002843E-01  0.26546515161E-01  0.53182805498E-01  0.51100000000E-03 0.  1.
</event>
<event>
 8    1  0.9956970E+004  0.1043930E+01  0.7957747E-01            NaN
         13   -1    0    0    0    0  0.00000000000E+00  0.00000000000E+00  0.74505805969E-08  0.10566000000E+00  0.10566000000E+00 0.  1.
     999900   -1    0    0    0    0 -0.00000000000E+00 -0.00000000000E+00 -0.74505805969E-08  0.93827000000E+00  0.93827000000E+00 0.  1.
     999902    2    1    2    0    0 -0.22774660317E-01  0.38229042478E-03  0.44499393059E-02  0.10207215262E+01  0.10204576428E+01 0.  0.
     999903    2    3    3    0    0  0.10229567522E+00  0.59503714460E-01 -0.37741804289E-01  0.12891545147E+00  0.34491341419E-01 0.  0.
         14    1    1    2    0    0  0.22774660317E-01 -0.38229042478E-03 -0.44499393059E-02  0.23208473848E-01  0.00000000000E+00 0.  1.
     999901    1    3    3    0    0 -0.12507033554E+00 -0.59121424035E-01  0.42191743595E-01  0.89180607468E+00  0.88000000000E+00 0.  1.
        -11    1    4    4    0    0  0.45904905149E-01  0.46029746479E-01 -0.15633664037E-01  0.66863072393E-01  0.51100000000E-03 0. -1.
         11    1    4    4    0    0  0.56390770075E-01  0.13473967981E-01 -0.22108140251E-01  0.62052379077E-01  0.51100000000E-03 0.  1.
</event>
<event>
 8    1  0.9956970E+004  0.1043930E+01  0.7957747E-01            NaN
         13   -1    0    0    0    0  0.00000000000E+00  0.00000000000E+00  0.74505805969E-08  0.10566000000E+00  0.10566000000E+00 0. -1.
     999900   -1    0    0    0    0 -0.00000000000E+00 -0.00000000000E+00 -0.74505805969E-08  0.93827000000E+00  0.93827000000E+00 0.  1.
     999902    2    1    2    0    0  0.19510912267E-02  0.90854621742E-02 -0.24835916032E-01  0.10174125509E+01  0.10170669219E+01 0.  0.
     999903    2    3    3    0    0  0.11155316045E-01  0.60960736693E-01  0.10750689589E+00  0.12595846814E+00  0.21613665528E-01 0.  0.
         14    1    1    2    0    0 -0.19510912267E-02 -0.90854621742E-02  0.24835916032E-01  0.26517449068E-01  0.00000000000E+00 0. -1.
     999901    1    3    3    0    0 -0.92042248180E-02 -0.51875274519E-01 -0.13234281192E+00  0.89145408279E+00  0.88000000000E+00 0.  1.
        -11    1    4    4    0    0  0.64741847664E-02  0.79513758443E-02  0.31815207367E-01  0.33430644430E-01  0.51100000000E-03 0.  1.
         11    1    4    4    0    0  0.46811312783E-02  0.53009360849E-01  0.75691688524E-01  0.92527823709E-01  0.51100000000E-03 0. -1.
</event>
<event>
 8    1  0.9956970E+004  0.1043930E+01  0.7957747E-01            NaN
         13   -1    0    0    0    0  0.00000000000E+00  0.00000000000E+00  0.74505805969E-08  0.10566000000E+00  0.10566000000E+00 0.  1.
     999900   -1    0    0    0    0 -0.00000000000E+00 -0.00000000000E+00 -0.74505805969E-08  0.93827000000E+00  0.93827000000E+00 0. -1.
     999902    2    1    2    0    0 -0.17645051586E-01  0.11755307893E-01 -0.89968272544E-02  0.10208978918E+01  0.10206380492E+01 0.  0.
     999903    2    3    3    0    0 -0.11620489901E+00  0.26816078083E-01  0.55717363600E-01  0.13290645215E+00  0.18358099586E-01 0.  0.
         14    1    1    2    0    0  0.17645051586E-01 -0.11755307893E-01  0.89968272544E-02  0.23032108236E-01  0.00000000000E+00 0.  1.
     999901    1    3    3    0    0  0.98559847422E-01 -0.15060770190E-01 -0.64714190854E-01  0.88799143961E+00  0.88000000000E+00 0. -1.
        -11    1    4    4    0    0 -0.11125474334E-01 -0.24201238910E-02  0.75582198836E-02  0.13675561693E-01  0.51100000000E-03 0. -1.
         11    1    4    4    0    0 -0.10507942467E+00  0.29236201974E-01  0.48159143716E-01  0.11923089046E+00  0.51100000000E-03 0.  1.
</event>
<event>
 8    1  0.9956970E+004  0.1043930E+01  0.7957747E-01            NaN
         13   -1    0    0    0    0  0.00000000000E+00  0.00000000000E+00  0.74505805969E-08  0.10566000000E+00  0.10566000000E+00 0.  1.
     999900   -1    0    0    0    0 -0.00000000000E+00 -0.00000000000E+00 -0.74505805969E-08  0.93827000000E+00  0.93827000000E+00 0.  1.
     999902    2    1    2    0    0 -0.88042776477E-02 -0.21393859828E-01  0.23109848801E-02  0.10206802001E+01  0.10204153653E+01 0.  0.
     999903    2    3    3    0    0  0.70666365614E-01 -0.10696734396E+00  0.27250249727E-01  0.13261467818E+00  0.20207148639E-01 0.  0.
         14    1    1    2    0    0  0.88042776477E-02  0.21393859828E-01 -0.23109848801E-02  0.23249799878E-01  0.00000000000E+00 0.  1.
     999901    1    3    3    0    0 -0.79470643262E-01  0.85573484133E-01 -0.24939264847E-01  0.88806552194E+00  0.88000000000E+00 0.  1.
        -11    1    4    4    0    0  0.60828138099E-01 -0.10187209581E+00  0.23971791993E-01  0.12104913970E+00  0.51100000000E-03 0.  1.
         11    1    4    4    0    0  0.98382275145E-02 -0.50952481543E-02  0.32784577335E-02  0.11565538487E-01  0.51100000000E-03 0. -1.
</event>
<event>
 8    1  0.9956970E+004  0.1043930E+01  0.7957747E-01            NaN
         13   -1    0    0    0    0  0.00000000000E+00  0.00000000000E+00  0.74505805969E-08  0.10566000000E+00  0.10566000000E+00 0. -1.
     999900   -1    0    0    0    0 -0.00000000000E+00 -0.00000000000E+00 -0.74505805969E-08  0.93827000000E+00  0.93827000000E+00 0.  1.
     999902    2    1    2    0    0  0.23364508442E-01  0.59756351804E-02 -0.31664175279E-03  0.10198113613E+01  0.10195261173E+01 0.  0.
     999903    2    3    3    0    0 -0.11431163546E+00  0.51204824938E-01 -0.14739841827E-01  0.12784251156E+00  0.20913171135E-01 0.  0.
         14    1    1    2    0    0 -0.23364508442E-01 -0.59756351804E-02  0.31664175279E-03  0.24118638696E-01  0.00000000000E+00 0.  1.
     999901    1    3    3    0    0  0.13767614390E+00 -0.45229189758E-01  0.14423200074E-01  0.89196884974E+00  0.88000000000E+00 0.  1.
        -11    1    4    4    0    0 -0.69041403263E-01  0.19605818183E-01 -0.76724533747E-02  0.72181930792E-01  0.51100000000E-03 0.  1.
         11    1    4    4    0    0 -0.45270232199E-01  0.31599006755E-01 -0.70673884523E-02  0.55660580771E-01  0.51100000000E-03 0. -1.
</event>
<event>
 8    1  0.9956970E+004  0.1043930E+01  0.7957747E-01            NaN
         13   -1    0    0    0    0  0.00000000000E+00  0.00000000000E+00  0.74505805969E-08  0.10566000000E+00  0.10566000000E+00 0.  1.
     999900   -1    0    0    0    0 -0.00000000000E+00 -0.00000000000E+00 -0.74505805969E-08  0.93827000000E+00  0.93827000000E+00 0. -1.
     999902    2    1    2    0    0  0.13882077620E-01  0.14887800318E-01 -0.11515328454E-01  0.10205427927E+01  0.10202747817E+01 0.  0.
     999903    2    3    3    0    0  0.77755290010E-01 -0.95427054002E-01 -0.39784973857E-01  0.13090897632E+00  0.20052635125E-01 0.  0.
         14    1    1    2    0    0 -0.13882077620E-01 -0.14887800318E-01  0.11515328454E-01  0.23387207332E-01  0.00000000000E+00 0.  1.
     999901    1    3    3    0    0 -0.63873212390E-01  0.11031485432E+00  0.28269645403E-01  0.88963381635E+00  0.88000000000E+00 0.  1.
        -11    1    4    4    0    0  0.27653596784E-01 -0.20630870285E-01 -0.78639585720E-02  0.35390071902E-01  0.51100000000E-03 0. -1.
         11    1    4    4    0    0  0.50101693226E-01 -0.74796183717E-01 -0.31921015285E-01  0.95518904415E-01  0.51100000000E-03 0.  1.
</event>
<event>
 8    1  0.9956970E+004  0.1043930E+01  0.7957747E-01            NaN
         13   -1    0    0    0    0  0.00000000000E+00  0.00000000000E+00  0.74505805969E-08  0.10566000000E+00  0.10566000000E+00 0.  1.
     999900   -1    0    0    0    0 -0.00000000000E+00 -0.00000000000E+00 -0.74505805969E-08  0.93827000000E+00  0.93827000000E+00 0.  1.
     999902    2    1    2    0    0  0.32020217092E-02 -0.20133145638E-01 -0.88631029754E-02  0.10217004905E+01  0.10214586342E+01 0.  0.
     999903    2    3    3    0    0 -0.14340327027E-01  0.11961076643E+00 -0.44172200558E-01  0.12980205051E+00  0.19621635729E-01 0.  0.
         14    1    1    2    0    0 -0.32020217092E-02  0.20133145638E-01  0.88631029754E-02  0.22229509456E-01  0.00000000000E+00 0.  1.
     999901    1    3    3    0    0  0.17542348736E-01 -0.13974391207E+00  0.35309097583E-01  0.89189844003E+00  0.88000000000E+00 0.  1.
        -11    1    4    4    0    0 -0.55594648936E-02  0.82875863835E-01 -0.21707054451E-01  0.85853210716E-01  0.51100000000E-03 0. -1.
         11    1    4    4    0    0 -0.87808621335E-02  0.36734902599E-01 -0.22465146107E-01  0.43948839795E-01  0.51100000000E-03 0.  1.
</event>
<event>
 8    1  0.9956970E+004  0.1043930E+01  0.7957747E-01            NaN
         13   -1    0    0    0    0  0.00000000000E+00  0.00000000000E+00  0.74505805969E-08  0.10566000000E+00  0.10566000000E+00 0. -1.
     999900   -1    0    0    0    0 -0.00000000000E+00 -0.00000000000E+00 -0.74505805969E-08  0.93827000000E+00  0.93827000000E+00 0.  1.
     999902    2    1    2    0    0 -0.84068987767E-02 -0.12492107339E-01  0.19095315816E-01  0.10196121099E+01  0.10193220761E+01 0.  0.
     999903    2    3    3    0    0 -0.44713276387E-01  0.65880815590E-02  0.12304025735E+00  0.13254573271E+00  0.19666886619E-01 0.  0.
         14    1    1    2    0    0  0.84068987767E-02  0.12492107339E-01 -0.19095315816E-01  0.24317890100E-01  0.00000000000E+00 0.  1.
     999901    1    3    3    0    0  0.36306377611E-01 -0.19080188898E-01 -0.10394494153E+00  0.88706637719E+00  0.88000000000E+00 0.  1.
        -11    1    4    4    0    0 -0.32929512692E-01  0.97454228527E-02  0.68166532051E-01  0.76329963223E-01  0.51100000000E-03 0.  1.
         11    1    4    4    0    0 -0.11783763695E-01 -0.31573412937E-02  0.54873725294E-01  0.56215769492E-01  0.51100000000E-03 0. -1.
</event>
<event>
 8    1  0.9956970E+004  0.1043930E+01  0.7957747E-01            NaN
         13   -1    0    0    0    0  0.00000000000E+00  0.00000000000E+00  0.74505805969E-08  0.10566000000E+00  0.10566000000E+00 0.  1.
     999900   -1    0    0    0    0 -0.00000000000E+00 -0.00000000000E+00 -0.74505805969E-08  0.93827000000E+00  0.93827000000E+00 0.  1.
     999902    2    1    2    0    0  0.32470901045E-02 -0.22778911207E-01  0.39474693908E-02  0.10205846599E+01  0.10203176187E+01 0.  0.
     999903    2    3    3    0    0  0.11093251321E+00  0.58805215632E-01 -0.27060022152E-01  0.12973473728E+00  0.18297032112E-01 0.  0.
         14    1    1    2    0    0 -0.32470901045E-02  0.22778911207E-01 -0.39474693908E-02  0.23345340103E-01  0.00000000000E+00 0. -1.
     999901    1    3    3    0    0 -0.10768542311E+00 -0.81584126839E-01  0.31007491543E-01  0.89084992262E+00  0.88000000000E+00 0. -1.
        -11    1    4    4    0    0  0.74544453003E-01  0.30917667792E-01 -0.12744594414E-01  0.81703509490E-01  0.51100000000E-03 0.  1.
         11    1    4    4    0    0  0.36388060210E-01  0.27887547839E-01 -0.14315427738E-01  0.48031227786E-01  0.51100000000E-03 0. -1.
</event>
<event>
 8    1  0.9956970E+004  0.1043930E+01  0.7957747E-01            NaN
         13   -1    0    0    0    0  0.00000000000E+00  0.00000000000E+00  0.74505805969E-08  0.10566000000E+00  0.10566000000E+00 0.  1.
     999900   -1    0    0    0    0 -0.00000000000E+00 -0.00000000000E+00 -0.74505805969E-08  0.93827000000E+00  0.93827000000E+00 0.  1.
     999902    2    1    2    0    0  0.66556437734E-02 -0.19197224011E-01 -0.12906546068E-01  0.10198590645E+01  0.10195749612E+01 0.  0.
     999903    2    3    3    0    0 -0.52231722437E-01 -0.40671852740E-01 -0.11248605557E+00  0.13202745870E+00  0.19894338820E-01 0.  0.
         14    1    1    2    0    0 -0.66556437734E-02  0.19197224011E-01  0.12906546068E-01  0.24070935486E-01  0.00000000000E+00 0.  1.
     999901    1    3    3    0    0  0.58887366210E-01  0.21474628730E-01  0.99579509505E-01  0.88783160582E+00  0.88000000000E+00 0. -1.
        -11    1    4    4    0    0 -0.32378429824E-01 -0.36235932310E-01 -0.74848601628E-01  0.89241132864E-01  0.51100000000E-03 0. -1.
         11    1    4    4    0    0 -0.19853292613E-01 -0.44359204304E-02 -0.37637453945E-01  0.42786325831E-01  0.51100000000E-03 0.  1.
</event>
<event>
 8    1  0.9956970E+004  0.1043930E+01  0.7957747E-01            NaN
         13   -1    0    0    0    0  0.00000000000E+00  0.00000000000E+00  0.74505805969E-08  0.10566000000E+00  0.10566000000E+00 0. -1.
     999900   -1    0    0    0    0 -0.00000000000E+00 -0.00000000000E+00 -0.74505805969E-08  0.93827000000E+00  0.93827000000E+00 0. -1.
     999902    2    1    2    0    0  0.12280923537E-01 -0.19344916767E-01 -0.24889607768E-02  0.10208813165E+01  0.10206210954E+01 0.  0.
     999903    2    3    3    0    0 -0.11320838953E+00 -0.40316024544E-01 -0.46249904735E-01  0.13065529163E+00  0.22141143762E-01 0.  0.
         14    1    1    2    0    0 -0.12280923537E-01  0.19344916767E-01  0.24889607768E-02  0.23048683549E-01  0.00000000000E+00 0.  1.
     999901    1    3    3    0    0  0.12548931307E+00  0.20971107777E-01  0.43760943958E-01  0.89022602482E+00  0.88000000000E+00 0. -1.
        -11    1    4    4    0    0 -0.71393710301E-01 -0.30515735718E-01 -0.19497556180E-01  0.80054280428E-01  0.51100000000E-03 0. -1.
         11    1    4    4    0    0 -0.41814679231E-01 -0.98002888260E-02 -0.26752348555E-01  0.50601011200E-01  0.51100000000E-03 0.  1.
</event>
<event>
 7    1  0.9956970E+004  0.1043930E+01  0.7957747E-01            NaN
         13   -1    0    0    0    0  0.00000000000E+00  0.00000000000E+00  0.74505805969E-08  0.10566000000E+00  0.10566000000E+00 0. -1.
     999900   -1    0    0    0    0 -0.00000000000E+00 -0.00000000000E+00 -0.74505805969E-08  0.93827000000E+00  0.93827000000E+00 0. -1.
     999903    2    1    2    0    0  0.57668043261E-01 -0.48414341291E-01  0.71246358435E-01  0.10678402602E+00  0.25636555298E-01 0.  0.
         14    1    1    2    0    0  0.10208387158E-02  0.39206991944E-01 -0.37858347571E-01  0.54511327353E-01  0.00000000000E+00 0.  1.
     999901    1    1    2    0    0 -0.58688881977E-01  0.92073493475E-02 -0.33388010864E-01  0.88263464662E+00  0.88000000000E+00 0. -1.
        -11    1    3    3    0    0  0.30380260155E-01 -0.21022582975E-01  0.18329670558E-01  0.41244965096E-01  0.51100000000E-03 0.  1.
         11    1    3    3    0    0  0.27287783106E-01 -0.27391758316E-01  0.52916687877E-01  0.65539060928E-01  0.51100000000E-03 0. -1.
</event>
<event>
 8    1  0.9956970E+004  0.1043930E+01  0.7957747E-01            NaN
         13   -1    0    0    0    0  0.00000000000E+00  0.00000000000E+00  0.74505805969E-08  0.10566000000E+00  0.10566000000E+00 0.  1.
     999900   -1    0    0    0    0 -0.00000000000E+00 -0.00000000000E+00 -0.74505805969E-08  0.93827000000E+00  0.93827000000E+00 0.  1.
     999902    2    1    2    0    0  0.12503657715E-01  0.19586428707E-01  0.27414470058E-02  0.10205315988E+01  0.10202633283E+01 0.  0.
     999903    2    3    3    0    0 -0.96028177979E-01  0.51305866295E-01  0.69766358271E-01  0.13076892215E+00  0.19479819587E-01 0.  0.
         14    1    1    2    0    0 -0.12503657715E-01 -0.19586428707E-01 -0.27414470058E-02  0.23398401173E-01  0.00000000000E+00 0. -1.
     999901    1    3    3    0    0  0.10853183569E+00 -0.31719437588E-01 -0.67024911266E-01  0.88976267668E+00  0.88000000000E+00 0. -1.
        -11    1    4    4    0    0 -0.31239360204E-01  0.16989375188E-01  0.33964076401E-01  0.49176784177E-01  0.51100000000E-03 0. -1.
         11    1    4    4    0    0 -0.64788817775E-01  0.34316491107E-01  0.35802281870E-01  0.81592137971E-01  0.51100000000E-03 0.  1.
</event>
<event>
 8    1  0.9956970E+004  0.1043930E+01  0.7957747E-01            NaN
         13   -1    0    0    0    0  0.00000000000E+00  0.00000000000E+00  0.74505805969E-08  0.10566000000E+00  0.10566000000E+00 0. -1.
     999900   -1    0    0    0    0 -0.00000000000E+00 -0.00000000000E+00 -0.74505805969E-08  0.93827000000E+00  0.93827000000E+00 0.  1.
     999902    2    1    2    0    0  0.13509870834E-03 -0.13603839389E-01  0.18703328238E-01  0.10208021556E+01  0.10205401235E+01 0.  0.
     999903    2    3    3    0    0  0.12537065519E+00 -0.31283017478E-01 -0.11541674517E-01  0.13124537941E+00  0.19892485997E-01 0.  0.
         14    1    1    2    0    0 -0.13509870834E-03  0.13603839389E-01 -0.18703328238E-01  0.23127844364E-01  0.00000000000E+00 0.  1.
     999901    1    3    3    0    0 -0.12523555648E+00  0.17679178089E-01  0.30245002755E-01  0.88955677623E+00  0.88000000000E+00 0. -1.
        -11    1    4    4    0    0  0.17729511216E-01 -0.11060993453E-02 -0.77529537765E-02  0.19388874051E-01  0.51100000000E-03 0. -1.
         11    1    4    4    0    0  0.10764114398E+00 -0.30176918132E-01 -0.37887207407E-02  0.11185650535E+00  0.51100000000E-03 0.  1.
</event>
<event>
 8    1  0.9956970E+004  0.1043930E+01  0.7957747E-01            NaN
         13   -1    0    0    0    0  0.00000000000E+00  0.00000000000E+00  0.74505805969E-08  0.10566000000E+00  0.10566000000E+00 0. -1.
     999900   -1    0    0    0    0 -0.00000000000E+00 -0.00000000000E+00 -0.74505805969E-08  0.93827000000E+00  0.93827000000E+00 0.  1.
     999902    2    1    2    0    0  0.11859340045E-01  0.13015834915E-01 -0.12623140546E-01  0.10222643686E+01  0.10220347547E+01 0.  0.
     999903    2    3    3    0    0 -0.51246817508E-01 -0.11724445544E+00 -0.16405304196E-01  0.13043230198E+00  0.19260133914E-01 0.  0.
         14    1    1    2    0    0 -0.11859340045E-01 -0.13015834915E-01  0.12623140546E-01  0.21665631357E-01  0.00000000000E+00 0. -1.
     999901    1    3    3    0    0  0.63106157553E-01  0.13026029035E+00  0.37821636497E-02  0.89183206666E+00  0.88000000000E+00 0.  1.
        -11    1    4    4    0    0 -0.22603686842E-01 -0.44881764754E-01 -0.15531796047E-01  0.52600354331E-01  0.51100000000E-03 0.  1.
         11    1    4    4    0    0 -0.28643130666E-01 -0.72362690686E-01 -0.87350814932E-03  0.77831947651E-01  0.51100000000E-03 0. -1.
</event>
<event>
 8    1  0.9956970E+004  0.1043930E+01  0.7957747E-01            NaN
         13   -1    0    0    0    0  0.00000000000E+00  0.00000000000E+00  0.74505805969E-08  0.10566000000E+00  0.10566000000E+00 0. -1.
     999900   -1    0    0    0    0 -0.00000000000E+00 -0.00000000000E+00 -0.74505805969E-08  0.93827000000E+00  0.93827000000E+00 0.  1.
     999902    2    1    2    0    0 -0.22414844398E-01  0.91711065991E-02 -0.92252819485E-03  0.10196939627E+01  0.10194059015E+01 0.  0.
     999903    2    3    3    0    0 -0.48313919032E-02  0.57199627875E-01  0.11548540692E+00  0.13055577096E+00  0.20317242470E-01 0.  0.
         14    1    1    2    0    0  0.22414844398E-01 -0.91711065991E-02  0.92252819485E-03  0.24236037298E-01  0.00000000000E+00 0.  1.
     999901    1    3    3    0    0 -0.17583452495E-01 -0.48028521275E-01 -0.11640793512E+00  0.88913819174E+00  0.88000000000E+00 0.  1.
        -11    1    4    4    0    0 -0.10549271868E-01  0.49529627983E-01  0.89126843748E-01  0.10251012917E+00  0.51100000000E-03 0.  1.
         11    1    4    4    0    0  0.57178799648E-02  0.76699998917E-02  0.26358563176E-01  0.28045641788E-01  0.51100000000E-03 0. -1.
</event>
<event>
 8    1  0.9956970E+004  0.1043930E+01  0.7957747E-01            NaN
         13   -1    0    0    0    0  0.00000000000E+00  0.00000000000E+00  0.74505805969E-08  0.10566000000E+00  0.10566000000E+00 0. -1.
     999900   -1    0    0    0    0 -0.00000000000E+00 -0.00000000000E+00 -0.74505805969E-08  0.93827000000E+00  0.93827000000E+00 0.  1.
     999902    2    1    2    0    0  0.20850127696E-01 -0.11327021877E-01 -0.26656042123E-02  0.10200525065E+01  0.10197730048E+01 0.  0.
     999903    2    3    3    0    0  0.93259728304E-02 -0.51915375446E-01  0.11802920558E+00  0.13081268638E+00  0.19972119871E-01 0.  0.
         14    1    1    2    0    0 -0.20850127696E-01  0.11327021877E-01  0.26656042123E-02  0.23877493490E-01  0.00000000000E+00 0. -1.
     999901    1    3    3    0    0  0.11524154866E-01  0.40588353569E-01 -0.12069480979E+00  0.88923982013E+00  0.88000000000E+00 0.  1.
        -11    1    4    4    0    0 -0.19015107657E-02 -0.51980743270E-02  0.30119937301E-01  0.30628540023E-01  0.51100000000E-03 0.  1.
         11    1    4    4    0    0  0.11227483596E-01 -0.46717301119E-01  0.87909268278E-01  0.10018414636E+00  0.51100000000E-03 0. -1.
</event>
<event>
 8    1  0.9956970E+004  0.1043930E+01  0.7957747E-01            NaN
         13   -1    0    0    0    0  0.00000000000E+00  0.00000000000E+00  0.74505805969E-08  0.10566000000E+00  0.10566000000E+00 0.  1.
     999900   -1    0    0    0    0 -0.00000000000E+00 -0.00000000000E+00 -0.74505805969E-08  0.93827000000E+00  0.93827000000E+00 0.  1.
     999902    2    1    2    0    0  0.63407256629E-02  0.23005398583E-01 -0.93077946469E-03  0.10200486366E+01  0.10197690433E+01 0.  0.
     999903    2    3    3    0    0  0.50921421241E-01 -0.10187240371E+00 -0.56026721742E-01  0.12841111680E+00  0.19479311818E-01 0.  0.
         14    1    1    2    0    0 -0.63407256629E-02 -0.23005398583E-01  0.93077946469E-03  0.23881363368E-01  0.00000000000E+00 0.  1.
     999901    1    3    3    0    0 -0.44580695578E-01  0.12487780229E+00  0.55095942278E-01  0.89163751984E+00  0.88000000000E+00 0. -1.
        -11    1    4    4    0    0  0.35465514332E-01 -0.73382064318E-01 -0.49454402049E-01  0.95334826131E-01  0.51100000000E-03 0.  1.
         11    1    4    4    0    0  0.15455906909E-01 -0.28490339392E-01 -0.65723196934E-02  0.33076290665E-01  0.51100000000E-03 0. -1.
</event>
<event>
 8    1  0.9956970E+004  0.1043930E+01  0.7957747E-01            NaN
         13   -1    0    0    0    0  0.00000000000E+00  0.00000000000E+00  0.74505805969E-08  0.10566000000E+00  0.10566000000E+00 0. -1.
     999900   -1    0    0    0    0 -0.00000000000E+00 -0.00000000000E+00 -0.74505805969E-08  0.93827000000E+00  0.93827000000E+00 0.  1.
     999902    2    1    2    0    0  0.14441516203E-01  0.74957911154E-02  0.16245572267E-01  0.10209373296E+01  0.10206783862E+01 0.  0.
     999903    2    3    3    0    0 -0.64025137650E-01 -0.10938018916E+00  0.18408420024E-01  0.12974616690E+00  0.20783499862E-01 0.  0.
         14    1    1    2    0    0 -0.14441516203E-01 -0.74957911154E-02 -0.16245572267E-01  0.22992670418E-01  0.00000000000E+00 0.  1.
     999901    1    3    3    0    0  0.78466653853E-01  0.11687598027E+00 -0.21628477567E-02  0.89119116268E+00  0.88000000000E+00 0.  1.
        -11    1    4    4    0    0 -0.34591998049E-01 -0.50860069983E-01  0.18521229606E-01  0.64239007735E-01  0.51100000000E-03 0. -1.
         11    1    4    4    0    0 -0.29433139601E-01 -0.58520119174E-01 -0.11280958219E-03  0.65507159165E-01  0.51100000000E-03 0.  1.
</event>
<event>
 8    1  0.9956970E+004  0.1043930E+01  0.7957747E-01            NaN
         13   -1    0    0    0    0  0.00000000000E+00  0.00000000000E+00  0.74505805969E-08  0.10566000000E+00  0.10566000000E+00 0. -1.
     999900   -1    0    0    0    0 -0.00000000000E+00 -0.00000000000E+00 -0.74505805969E-08  0.93827000000E+00  0.93827000000E+00 0.  1.
     999902    2    1    2    0    0  0.82000091166E-02 -0.60624973638E-02 -0.21274207489E-01  0.10203379266E+01  0.10200651442E+01 0.  0.
     999903    2    3    3    0    0 -0.58126331721E-02  0.10509998125E+00  0.70851692653E-01  0.12846314150E+00  0.20075447914E-01 0.  0.
         14    1    1    2    0    0 -0.82000091166E-02  0.60624973638E-02  0.21274207489E-01  0.23592073416E-01  0.00000000000E+00 0. -1.
     999901    1    3    3    0    0  0.14012642289E-01 -0.11116247861E+00 -0.92125900141E-01  0.89187478509E+00  0.88000000000E+00 0.  1.
        -11    1    4    4    0    0  0.13691739327E-02  0.65687328261E-01  0.33781493567E-01  0.73879294528E-01  0.51100000000E-03 0. -1.
         11    1    4    4    0    0 -0.71818071047E-02  0.39412652987E-01  0.37070199086E-01  0.54583846970E-01  0.51100000000E-03 0.  1.
</event>
<event>
 8    1  0.9956970E+004  0.1043930E+01  0.7957747E-01            NaN
         13   -1    0    0    0    0  0.00000000000E+00  0.00000000000E+00  0.74505805969E-08  0.10566000000E+00  0.10566000000E+00 0. -1.
     999900   -1    0    0    0    0 -0.00000000000E+00 -0.00000000000E+00 -0.74505805969E-08  0.93827000000E+00  0.93827000000E+00 0.  1.
     999902    2    1    2    0    0  0.20504119977E-01 -0.10783129203E-01 -0.49295101028E-02  0.10202446695E+01  0.10199697009E+01 0.  0.
     999903    2    3    3    0    0  0.79229180664E-02 -0.65864806308E-01  0.11102487037E+00  0.13084166964E+00  0.19800892222E-01 0.  0.
         14    1    1    2    0    0 -0.20504119977E-01  0.10783129203E-01  0.49295101028E-02  0.23685330508E-01  0.00000000000E+00 0.  1.
     999901    1    3    3    0    0  0.12581201910E-01  0.55081677105E-01 -0.11595438047E+00  0.88940299985E+00  0.88000000000E+00 0.  1.
        -11    1    4    4    0    0  0.14125875184E-01 -0.41620278589E-01  0.65333786882E-01  0.78743588748E-01  0.51100000000E-03 0.  1.
         11    1    4    4    0    0 -0.62029571180E-02 -0.24244527719E-01  0.45691083488E-01  0.52098080892E-01  0.51100000000E-03 0. -1.
</event>
<event>
 8    1  0.1008425E+005  0.1043930E+01  0.7957747E-01            NaN
         13   -1    0    0    0    0  0.00000000000E+00  0.00000000000E+00  0.74505805969E-08  0.10566000000E+00  0.10566000000E+00 0. -1.
     999900   -1    0    0    0    0 -0.00000000000E+00 -0.00000000000E+00 -0.74505805969E-08  0.93827000000E+00  0.93827000000E+00 0.  1.
     999902    2    1    2    0    0 -0.17732681984E-01 -0.19839552629E-01  0.38808011859E-02  0.10170391749E+01  0.10166836119E+01 0.  0.
     999903    2    3    3    0    0  0.11944185236E-01 -0.42305848843E-01 -0.11831723572E+00  0.12781602450E+00  0.20137513346E-01 0.  0.
         14    1    1    2    0    0  0.17732681984E-01  0.19839552629E-01 -0.38808011859E-02  0.26890825140E-01  0.00000000000E+00 0.  1.
     999901    1    3    3    0    0 -0.29676867220E-01  0.22466296214E-01  0.12219803690E+00  0.88922315036E+00  0.88000000000E+00 0. -1.
        -11    1    4    4    0    0  0.14701682361E-01 -0.15623495511E-01 -0.49328213134E-01  0.53793743207E-01  0.51100000000E-03 0.  1.
         11    1    4    4    0    0 -0.27574971250E-02 -0.26682353332E-01 -0.68989022585E-01  0.74022281293E-01  0.51100000000E-03 0. -1.
</event>
<event>
 8    1  0.9956970E+004  0.1043930E+01  0.7957747E-01            NaN
         13   -1    0    0    0    0  0.00000000000E+00  0.00000000000E+00  0.74505805969E-08  0.10566000000E+00  0.10566000000E+00 0. -1.
     999900   -1    0    0    0    0 -0.00000000000E+00 -0.00000000000E+00 -0.74505805969E-08  0.93827000000E+00  0.93827000000E+00 0. -1.
     999902    2    1    2    0    0 -0.93742744253E-02  0.16559880427E-01 -0.13751964226E-01  0.10204518574E+01  0.10201817338E+01 0.  0.
     999903    2    3    3    0    0  0.12299504016E+00 -0.13967166592E-01  0.29290696803E-01  0.12898889869E+00  0.21385261757E-01 0.  0.
         14    1    1    2    0    0  0.93742744253E-02 -0.16559880427E-01  0.13751964226E-01  0.23478142619E-01  0.00000000000E+00 0. -1.
     999901    1    3    3    0    0 -0.13236931459E+00  0.30527047019E-01 -0.43042661029E-01  0.89146295869E+00  0.88000000000E+00 0. -1.
        -11    1    4    4    0    0  0.53405539680E-01 -0.12829363506E-01  0.21374098815E-01  0.58939438899E-01  0.51100000000E-03 0.  1.
         11    1    4    4    0    0  0.69589500480E-01 -0.11378030866E-02  0.79165979876E-02  0.70049459795E-01  0.51100000000E-03 0. -1.
</event>
<event>
 8    1  0.9956970E+004  0.1043930E+01  0.7957747E-01            NaN
         13   -1    0    0    0    0  0.00000000000E+00  0.00000000000E+00  0.74505805969E-08  0.10566000000E+00  0.10566000000E+00 0. -1.
     999900   -1    0    0    0    0 -0.00000000000E+00 -0.00000000000E+00 -0.74505805969E-08  0.93827000000E+00  0.93827000000E+00 0. -1.
     999902    2    1    2    0    0 -0.11634889880E-01 -0.68859710543E-03  0.21066581117E-01  0.10198541684E+01  0.10195699481E+01 0.  0.
     999903    2    3    3    0    0  0.94162313463E-01 -0.17871603894E-01  0.86929564500E-01  0.13090746776E+00  0.19851459097E-01 0.  0.
         14    1    1    2    0    0  0.11634889880E-01  0.68859710543E-03 -0.21066581117E-01  0.24075831625E-01  0.00000000000E+00 0.  1.
     999901    1    3    3    0    0 -0.10579720334E+00  0.17183006788E-01 -0.65862983383E-01  0.88894670062E+00  0.88000000000E+00 0. -1.
        -11    1    4    4    0    0  0.13222242813E-01 -0.38003059785E-02  0.43900164432E-02  0.14450031000E-01  0.51100000000E-03 0. -1.
         11    1    4    4    0    0  0.80940070650E-01 -0.14071297915E-01  0.82539548057E-01  0.11645743676E+00  0.51100000000E-03 0.  1.
</event>
<event>
 8    1  0.9956970E+004  0.1043930E+01  0.7957747E-01            NaN
         13   -1    0    0    0    0  0.00000000000E+00  0.00000000000E+00  0.74505805969E-08  0.10566000000E+00  0.10566000000E+00 0.  1.
     999900   -1    0    0    0    0 -0.00000000000E+00 -0.00000000000E+00 -0.74505805969E-08  0.93827000000E+00  0.93827000000E+00 0.  1.
     999902    2    1    2    0    0  0.17655802006E-01  0.14750482716E-01  0.23435613931E-02  0.10208043354E+01  0.10205423532E+01 0.  0.
     999903    2    3    3    0    0  0.95224042486E-01 -0.80815310179E-01  0.36228618623E-01  0.13159240910E+00  0.20132478720E-01 0.  0.
         14    1    1    2    0    0 -0.17655802006E-01 -0.14750482716E-01 -0.23435613931E-02  0.23125664636E-01  0.00000000000E+00 0. -1.
     999901    1    3    3    0    0 -0.77568240481E-01  0.95565792895E-01 -0.33885057230E-01  0.88921192626E+00  0.88000000000E+00 0. -1.
        -11    1    4    4    0    0  0.32129691107E-01 -0.28267121589E-01  0.26494841343E-02  0.42879226914E-01  0.51100000000E-03 0. -1.
         11    1    4    4    0    0  0.63094351379E-01 -0.52548188589E-01  0.33579134489E-01  0.88713182188E-01  0.51100000000E-03 0.  1.
</event>
<event>
 8    1  0.1003499E+005  0.1043930E+01  0.7957747E-01            NaN
         13   -1    0    0    0    0  0.00000000000E+00  0.00000000000E+00  0.74505805969E-08  0.10566000000E+00  0.10566000000E+00 0.  1.
     999900   -1    0    0    0    0 -0.00000000000E+00 -0.00000000000E+00 -0.74505805969E-08  0.93827000000E+00  0.93827000000E+00 0.  1.
     999902    2    1    2    0    0  0.14109700522E-01 -0.67434989849E-02  0.17092693375E-01  0.10207628121E+01  0.10204998775E+01 0.  0.
     999903    2    3    3    0    0  0.96743735869E-01 -0.65185898470E-01 -0.58049788344E-01  0.13178008427E+00  0.19689105992E-01 0.  0.
         14    1    1    2    0    0 -0.14109700522E-01  0.67434989849E-02 -0.17092693375E-01  0.23167187879E-01  0.00000000000E+00 0. -1.
     999901    1    3    3    0    0 -0.82634035347E-01  0.58442399485E-01  0.75142481719E-01  0.88898272785E+00  0.88000000000E+00 0. -1.
        -11    1    4    4    0    0  0.55284798569E-01 -0.27344645454E-01 -0.24386925706E-01  0.66325876204E-01  0.51100000000E-03 0.  1.
         11    1    4    4    0    0  0.41458937300E-01 -0.37841253016E-01 -0.33662862638E-01  0.65454208068E-01  0.51100000000E-03 0. -1.
</event>
<event>
 8    1  0.9956970E+004  0.1043930E+01  0.7957747E-01            NaN
         13   -1    0    0    0    0  0.00000000000E+00  0.00000000000E+00  0.74505805969E-08  0.10566000000E+00  0.10566000000E+00 0.  1.
     999900   -1    0    0    0    0 -0.00000000000E+00 -0.00000000000E+00 -0.74505805969E-08  0.93827000000E+00  0.93827000000E+00 0.  1.
     999902    2    1    2    0    0  0.41832659693E-02  0.60660686214E-02  0.22767527861E-01  0.10199997424E+01  0.10197189894E+01 0.  0.
     999903    2    3    3    0    0  0.90165646190E-01  0.91597063553E-01  0.20585004802E-01  0.13167925735E+00  0.19895190082E-01 0.  0.
         14    1    1    2    0    0 -0.41832659693E-02 -0.60660686214E-02 -0.22767527861E-01  0.23930257575E-01  0.00000000000E+00 0. -1.
     999901    1    3    3    0    0 -0.85982380221E-01 -0.85530994931E-01  0.21825230595E-02  0.88832048508E+00  0.88000000000E+00 0.  1.
        -11    1    4    4    0    0  0.35466552650E-01  0.40701511662E-01 -0.68875725906E-03  0.53992822819E-01  0.51100000000E-03 0. -1.
         11    1    4    4    0    0  0.54699093541E-01  0.50895551891E-01  0.21273762061E-01  0.77686434528E-01  0.51100000000E-03 0.  1.
</event>
<event>
 8    1  0.9956970E+004  0.1043930E+01  0.7957747E-01            NaN
         13   -1    0    0    0    0  0.00000000000E+00  0.00000000000E+00  0.74505805969E-08  0.10566000000E+00  0.10566000000E+00 0. -1.
     999900   -1    0    0    0    0 -0.00000000000E+00 -0.00000000000E+00 -0.74505805969E-08  0.93827000000E+00  0.93827000000E+00 0. -1.
     999902    2    1    2    0    0  0.39243942633E-03  0.18086564795E-01 -0.14535405623E-01  0.10207231939E+01  0.10204593488E+01 0.  0.
     999903    2    3    3    0    0  0.12358652050E+00  0.27442308653E-01  0.29810177434E-01  0.13098680464E+00  0.15562389227E-01 0.  0.
         14    1    1    2    0    0 -0.39243942633E-03 -0.18086564795E-01  0.14535405623E-01  0.23206806145E-01  0.00000000000E+00 0. -1.
     999901    1    3    3    0    0 -0.12319408107E+00 -0.93557438572E-02 -0.44345583057E-01  0.88973638921E+00  0.88000000000E+00 0. -1.
        -11    1    4    4    0    0  0.10024387874E+00  0.23867285254E-01  0.18106649813E-01  0.10462597392E+00  0.51100000000E-03 0. -1.
         11    1    4    4    0    0  0.23342641757E-01  0.35750233991E-02  0.11703527620E-01  0.26360830720E-01  0.51100000000E-03 0.  1.
</event>
<event>
 8    1  0.9956970E+004  0.1043930E+01  0.7957747E-01            NaN
         13   -1    0    0    0    0  0.00000000000E+00  0.00000000000E+00  0.74505805969E-08  0.10566000000E+00  0.10566000000E+00 0. -1.
     999900   -1    0    0    0    0 -0.00000000000E+00 -0.00000000000E+00 -0.74505805969E-08  0.93827000000E+00  0.93827000000E+00 0. -1.
     999902    2    1    2    0    0  0.11710706802E-01 -0.17826501000E-01  0.98463546733E-02  0.10204379696E+01  0.10201675227E+01 0.  0.
     999903    2    3    3    0    0  0.14906709533E-01  0.11133272752E+00  0.60568990132E-01  0.12955913020E+00  0.22355747517E-01 0.  0.
         14    1    1    2    0    0 -0.11710706802E-01  0.17826501000E-01 -0.98463546733E-02  0.23492030395E-01  0.00000000000E+00 0.  1.
     999901    1    3    3    0    0 -0.31960027307E-02 -0.12915922852E+00 -0.50722635459E-01  0.89087883940E+00  0.88000000000E+00 0. -1.
        -11    1    4    4    0    0  0.14723954475E-01  0.80852252311E-01  0.54109310795E-01  0.98396952061E-01  0.51100000000E-03 0.  1.
         11    1    4    4    0    0  0.18275505808E-03  0.30480475211E-01  0.64596793369E-02  0.31162178143E-01  0.51100000000E-03 0. -1.
</event>
<event>
 8    1  0.9956970E+004  0.1043930E+01  0.7957747E-01            NaN
         13   -1    0    0    0    0  0.00000000000E+00  0.00000000000E+00  0.74505805969E-08  0.10566000000E+00  0.10566000000E+00 0.  1.
     999900   -1    0    0    0    0 -0.00000000000E+00 -0.00000000000E+00 -0.74505805969E-08  0.93827000000E+00  0.93827000000E+00 0.  1.
     999902    2    1    2    0    0 -0.15408084277E-01  0.16502223026E-01  0.67796093562E-02  0.10203568049E+01  0.10200844640E+01 0.  0.
     999903    2    3    3    0    0 -0.83908211821E-01 -0.69447178593E-01  0.70352980723E-01  0.13124424694E+00  0.20298074604E-01 0.  0.
         14    1    1    2    0    0  0.15408084277E-01 -0.16502223026E-01 -0.67796093562E-02  0.23573195136E-01  0.00000000000E+00 0.  1.
     999901    1    3    3    0    0  0.68500127544E-01  0.85949401619E-01 -0.63573371367E-01  0.88911255792E+00  0.88000000000E+00 0.  1.
        -11    1    4    4    0    0 -0.64942420332E-01 -0.42919205181E-01  0.44834297466E-01  0.89832908681E-01  0.51100000000E-03 0.  1.
         11    1    4    4    0    0 -0.18965791489E-01 -0.26527973413E-01  0.25518683256E-01  0.41411338258E-01  0.51100000000E-03 0. -1.
</event>
<event>
 8    1  0.9956970E+004  0.1043930E+01  0.7957747E-01            NaN
         13   -1    0    0    0    0  0.00000000000E+00  0.00000000000E+00  0.74505805969E-08  0.10566000000E+00  0.10566000000E+00 0.  1.
     999900   -1    0    0    0    0 -0.00000000000E+00 -0.00000000000E+00 -0.74505805969E-08  0.93827000000E+00  0.93827000000E+00 0.  1.
     999902    2    1    2    0    0 -0.13117936155E-01  0.98371241561E-02  0.11294785935E-01  0.10240196647E+01  0.10238260850E+01 0.  0.
     999903    2    3    3    0    0  0.12393444604E-01 -0.11970876609E-01  0.13245064769E+00  0.13508481770E+00  0.20194913837E-01 0.  0.
         14    1    1    2    0    0  0.13117936155E-01 -0.98371241561E-02 -0.11294785935E-01  0.19910335255E-01  0.00000000000E+00 0.  1.
     999901    1    3    3    0    0 -0.25511380760E-01  0.21808000766E-01 -0.12115586175E+00  0.88893484704E+00  0.88000000000E+00 0.  1.
        -11    1    4    4    0    0  0.42927840321E-02  0.36909953561E-02  0.11223169874E-01  0.12580624169E-01  0.51100000000E-03 0. -1.
         11    1    4    4    0    0  0.81006605722E-02 -0.15661871966E-01  0.12122747782E+00  0.12250419354E+00  0.51100000000E-03 0.  1.
</event>
<event>
 8    1  0.9956970E+004  0.1043930E+01  0.7957747E-01            NaN
         13   -1    0    0    0    0  0.00000000000E+00  0.00000000000E+00  0.74505805969E-08  0.10566000000E+00  0.10566000000E+00 0. -1.
     999900   -1    0    0    0    0 -0.00000000000E+00 -0.00000000000E+00 -0.74505805969E-08  0.93827000000E+00  0.93827000000E+00 0.  1.
     999902    2    1    2    0    0  0.61154928602E-02 -0.81097519253E-02 -0.22920015074E-01  0.10188602090E+01  0.10185517322E+01 0.  0.
     999903    2    3    3    0    0  0.31943842715E-01  0.12173738444E+00  0.12671627190E-01  0.12824573154E+00  0.21118656815E-01 0.  0.
         14    1    1    2    0    0 -0.61154928602E-02  0.81097519253E-02  0.22920015074E-01  0.25069790988E-01  0.00000000000E+00 0. -1.
     999901    1    3    3    0    0 -0.25828349854E-01 -0.12984713637E+00 -0.35591642264E-01  0.89061447747E+00  0.88000000000E+00 0.  1.
        -11    1    4    4    0    0  0.22136155832E-01  0.45447609940E-01  0.80117917190E-02  0.51185394126E-01  0.51100000000E-03 0. -1.
         11    1    4    4    0    0  0.98076868831E-02  0.76289774499E-01  0.46598354712E-02  0.77060337417E-01  0.51100000000E-03 0.  1.
</event>
<event>
 8    1  0.9956970E+004  0.1043930E+01  0.7957747E-01            NaN
         13   -1    0    0    0    0  0.00000000000E+00  0.00000000000E+00  0.74505805969E-08  0.10566000000E+00  0.10566000000E+00 0. -1.
     999900   -1    0    0    0    0 -0.00000000000E+00 -0.00000000000E+00 -0.74505805969E-08  0.93827000000E+00  0.93827000000E+00 0.  1.
     999902    2    1    2    0    0 -0.12020769242E-01  0.38572400430E-02 -0.20479818366E-01  0.10198717342E+01  0.10195879334E+01 0.  0.
     999903    2    3    3    0    0 -0.86055946215E-01  0.90515764834E-01 -0.39456793611E-01  0.13231833695E+00  0.18776958444E-01 0.  0.
         14    1    1    2    0    0  0.12020769242E-01 -0.38572400430E-02  0.20479818366E-01  0.24058265819E-01  0.00000000000E+00 0. -1.
     999901    1    3    3    0    0  0.74035176973E-01 -0.86658524791E-01  0.18976975245E-01  0.88755339723E+00  0.88000000000E+00 0. -1.
        -11    1    4    4    0    0 -0.30540673706E-01  0.20254763523E-01 -0.13865558573E-01  0.39185495165E-01  0.51100000000E-03 0.  1.
         11    1    4    4    0    0 -0.55515272509E-01  0.70261001310E-01 -0.25591235038E-01  0.93132841783E-01  0.51100000000E-03 0. -1.
</event>
<event>
 8    1  0.9956970E+004  0.1043930E+01  0.7957747E-01            NaN
         13   -1    0    0    0    0  0.00000000000E+00  0.00000000000E+00  0.74505805969E-08  0.10566000000E+00  0.10566000000E+00 0. -1.
     999900   -1    0    0    0    0 -0.00000000000E+00 -0.00000000000E+00 -0.74505805969E-08  0.93827000000E+00  0.93827000000E+00 0. -1.
     999902    2    1    2    0    0 -0.70905356742E-02 -0.79833278609E-02 -0.21857470420E-01  0.10196039187E+01  0.10193136871E+01 0.  0.
     999903    2    3    3    0    0 -0.97112011073E-02  0.10793937646E+00  0.65165236257E-01  0.12774188183E+00  0.18062777744E-01 0.  0.
         14    1    1    2    0    0  0.70905356742E-02  0.79833278609E-02  0.21857470420E-01  0.24326081334E-01  0.00000000000E+00 0. -1.
     999901    1    3    3    0    0  0.26206654331E-02 -0.11592270432E+00 -0.87022706677E-01  0.89186203683E+00  0.88000000000E+00 0. -1.
        -11    1    4    4    0    0 -0.34404597463E-02  0.32363926368E-01  0.29532220593E-01  0.43950809633E-01  0.51100000000E-03 0.  1.
         11    1    4    4    0    0 -0.62707413610E-02  0.75575450095E-01  0.35633015664E-01  0.83791072201E-01  0.51100000000E-03 0. -1.
</event>
<event>
 8    1  0.9956970E+004  0.1043930E+01  0.7957747E-01            NaN
         13   -1    0    0    0    0  0.00000000000E+00  0.00000000000E+00  0.74505805969E-08  0.10566000000E+00  0.10566000000E+00 0. -1.
     999900   -1    0    0    0    0 -0.00000000000E+00 -0.00000000000E+00 -0.74505805969E-08  0.93827000000E+00  0.93827000000E+00 0.  1.
     999902    2    1    2    0    0  0.13143804975E-01  0.38408543921E-03 -0.15400905386E-01  0.10236791971E+01  0.10234788731E+01 0.  0.
     999903    2    3    3    0    0  0.11278366325E+00  0.32842229721E-01  0.61441561281E-01  0.13413639479E+00  0.20463142601E-01 0.  0.
         14    1    1    2    0    0 -0.13143804975E-01 -0.38408543921E-03  0.15400905386E-01  0.20250802886E-01  0.00000000000E+00 0.  1.
     999901    1    3    3    0    0 -0.99639858273E-01 -0.32458144282E-01 -0.76842466667E-01  0.88954280233E+00  0.88000000000E+00 0.  1.
        -11    1    4    4    0    0  0.36013098637E-01  0.11547868658E-01  0.93955135679E-02  0.38972212411E-01  0.51100000000E-03 0. -1.
         11    1    4    4    0    0  0.76770564611E-01  0.21294361063E-01  0.52046047713E-01  0.95164182376E-01  0.51100000000E-03 0.  1.
</event>
<event>
 8    1  0.9956970E+004  0.1043930E+01  0.7957747E-01            NaN
         13   -1    0    0    0    0  0.00000000000E+00  0.00000000000E+00  0.74505805969E-08  0.10566000000E+00  0.10566000000E+00 0. -1.
     999900   -1    0    0    0    0 -0.00000000000E+00 -0.00000000000E+00 -0.74505805969E-08  0.93827000000E+00  0.93827000000E+00 0. -1.
     999902    2    1    2    0    0 -0.12206583899E-01 -0.39035945727E-02 -0.18031156769E-01  0.10218084866E+01  0.10215690001E+01 0.  0.
     999903    2    3    3    0    0 -0.29810708441E-01 -0.34097744637E-01  0.12053448581E+00  0.13028056824E+00  0.19827497667E-01 0.  0.
         14    1    1    2    0    0  0.12206583899E-01  0.39035945727E-02  0.18031156769E-01  0.22121513409E-01  0.00000000000E+00 0. -1.
     999901    1    3    3    0    0  0.17604124543E-01  0.30194150065E-01 -0.13856564258E+00  0.89152791835E+00  0.88000000000E+00 0. -1.
        -11    1    4    4    0    0 -0.22015282678E-01 -0.28254502646E-01  0.68108874784E-01  0.76954983832E-01  0.51100000000E-03 0. -1.
         11    1    4    4    0    0 -0.77954257631E-02 -0.58432419913E-02  0.52425611026E-01  0.53325584406E-01  0.51100000000E-03 0.  1.
</event>
<event>
 7    1  0.9956970E+004  0.1043930E+01  0.7957747E-01            NaN
         13   -1    0    0    0    0  0.00000000000E+00  0.00000000000E+00  0.74505805969E-08  0.10566000000E+00  0.10566000000E+00 0. -1.
     999900   -1    0    0    0    0 -0.00000000000E+00 -0.00000000000E+00 -0.74505805969E-08  0.93827000000E+00  0.93827000000E+00 0.  1.
     999903    2    1    2    0    0  0.55004866450E-01  0.45720702549E-01  0.78104028775E-01  0.10771609357E+00  0.19662134378E-01 0.  0.
         14    1    1    2    0    0  0.44601652081E-01  0.59224089956E-02  0.46805185753E-02  0.45235932077E-01  0.00000000000E+00 0.  1.
     999901    1    1    2    0    0 -0.99606518531E-01 -0.51643111545E-01 -0.82784547350E-01  0.89097797435E+00  0.88000000000E+00 0.  1.
        -11    1    3    3    0    0  0.30820487739E-01  0.36932279311E-01  0.55660471130E-01  0.73567961009E-01  0.51100000000E-03 0. -1.
         11    1    3    3    0    0  0.24184378711E-01  0.87884232386E-02  0.22443557644E-01  0.34148132561E-01  0.51100000000E-03 0.  1.
</event>
<event>
 8    1  0.9956970E+004  0.1043930E+01  0.7957747E-01            NaN
         13   -1    0    0    0    0  0.00000000000E+00  0.00000000000E+00  0.74505805969E-08  0.10566000000E+00  0.10566000000E+00 0. -1.
     999900   -1    0    0    0    0 -0.00000000000E+00 -0.00000000000E+00 -0.74505805969E-08  0.93827000000E+00  0.93827000000E+00 0. -1.
     999902    2    1    2    0    0  0.13045327717E-01 -0.13032988896E-01  0.14459612886E-01  0.10204966951E+01  0.10202276143E+01 0.  0.
     999903    2    3    3    0    0  0.51896361569E-01 -0.29995160194E-01  0.11738810919E+00  0.13348407203E+00  0.21097092911E-01 0.  0.
         14    1    1    2    0    0 -0.13045327717E-01  0.13032988896E-01 -0.14459612886E-01  0.23433304923E-01  0.00000000000E+00 0.  1.
     999901    1    3    3    0    0 -0.38851033852E-01  0.16962171298E-01 -0.10292849630E+00  0.88701262304E+00  0.88000000000E+00 0. -1.
        -11    1    4    4    0    0  0.23036882828E-01 -0.25076492264E-01  0.57687977770E-01  0.66990240594E-01  0.51100000000E-03 0.  1.
         11    1    4    4    0    0  0.28859478741E-01 -0.49186679302E-02  0.59700131417E-01  0.66493831440E-01  0.51100000000E-03 0. -1.
</event>
<event>
 8    1  0.9956970E+004  0.1043930E+01  0.7957747E-01            NaN
         13   -1    0    0    0    0  0.00000000000E+00  0.00000000000E+00  0.74505805969E-08  0.10566000000E+00  0.10566000000E+00 0.  1.
     999900   -1    0    0    0    0 -0.00000000000E+00 -0.00000000000E+00 -0.74505805969E-08  0.93827000000E+00  0.93827000000E+00 0. -1.
     999902    2    1    2    0    0  0.24868286279E-01  0.72445476748E-02 -0.10870767251E-03  0.10180277424E+01  0.10176981661E+01 0.  0.
     999903    2    3    3    0    0 -0.40485900812E-01  0.36311273089E-01 -0.11374983486E+00  0.12784217177E+00  0.21141883392E-01 0.  0.
         14    1    1    2    0    0 -0.24868286279E-01 -0.72445476748E-02  0.10870767251E-03  0.25902257640E-01  0.00000000000E+00 0.  1.
     999901    1    3    3    0    0  0.65354187091E-01 -0.29066725414E-01  0.11364112719E+00  0.89018557059E+00  0.88000000000E+00 0.  1.
        -11    1    4    4    0    0 -0.37624390898E-01  0.21765993482E-01 -0.82547102562E-01  0.93293293034E-01  0.51100000000E-03 0. -1.
         11    1    4    4    0    0 -0.28615099143E-02  0.14545279606E-01 -0.31202732303E-01  0.34548878737E-01  0.51100000000E-03 0.  1.
</event>
<event>
 8    1  0.9956970E+004  0.1043930E+01  0.7957747E-01            NaN
         13   -1    0    0    0    0  0.00000000000E+00  0.00000000000E+00  0.74505805969E-08  0.10566000000E+00  0.10566000000E+00 0. -1.
     999900   -1    0    0    0    0 -0.00000000000E+00 -0.00000000000E+00 -0.74505805969E-08  0.93827000000E+00  0.93827000000E+00 0.  1.
     999902    2    1    2    0    0 -0.15952149578E-01 -0.14721265561E-01 -0.10271667466E-01  0.10199155483E+01  0.10196327927E+01 0.  0.
     999903    2    3    3    0    0  0.25271735497E-01  0.11784909490E+00  0.37423613819E-01  0.12775572576E+00  0.19847639923E-01 0.  0.
         14    1    1    2    0    0  0.15952149578E-01  0.14721265561E-01  0.10271667466E-01  0.24014451657E-01  0.00000000000E+00 0. -1.
     999901    1    3    3    0    0 -0.41223885075E-01 -0.13257036046E+00 -0.47695281285E-01  0.89215982258E+00  0.88000000000E+00 0.  1.
        -11    1    4    4    0    0  0.14158148453E-01  0.29503232561E-01  0.14576273933E-01  0.35827681783E-01  0.51100000000E-03 0. -1.
         11    1    4    4    0    0  0.11113587044E-01  0.88345862335E-01  0.22847339886E-01  0.91928043978E-01  0.51100000000E-03 0.  1.
</event>
<event>
 8    1  0.9956970E+004  0.1043930E+01  0.7957747E-01            NaN
         13   -1    0    0    0    0  0.00000000000E+00  0.00000000000E+00  0.74505805969E-08  0.10566000000E+00  0.10566000000E+00 0. -1.
     999900   -1    0    0    0    0 -0.00000000000E+00 -0.00000000000E+00 -0.74505805969E-08  0.93827000000E+00  0.93827000000E+00 0.  1.
     999902    2    1    2    0    0 -0.35991650149E-02  0.13317240950E-01 -0.19665776566E-01  0.10199082252E+01  0.10196252950E+01 0.  0.
     999903    2    3    3    0    0  0.62773994267E-02 -0.72386049660E-01  0.10267672234E+00  0.12726591860E+00  0.19363852848E-01 0.  0.
         14    1    1    2    0    0  0.35991650149E-02 -0.13317240950E-01  0.19665776566E-01  0.24021774774E-01  0.00000000000E+00 0. -1.
     999901    1    3    3    0    0 -0.98765644416E-02  0.85703290610E-01 -0.12234249890E+00  0.89264230663E+00  0.88000000000E+00 0.  1.
        -11    1    4    4    0    0  0.31389494643E-02 -0.39745602759E-01  0.72291012920E-01  0.82557965166E-01  0.51100000000E-03 0. -1.
         11    1    4    4    0    0  0.31384499624E-02 -0.32640446901E-01  0.30385709419E-01  0.44707953431E-01  0.51100000000E-03 0.  1.
</event>
<event>
 8    1  0.9956970E+004  0.1043930E+01  0.7957747E-01            NaN
         13   -1    0    0    0    0  0.00000000000E+00  0.00000000000E+00  0.74505805969E-08  0.10566000000E+00  0.10566000000E+00 0. -1.
     999900   -1    0    0    0    0 -0.00000000000E+00 -0.00000000000E+00 -0.74505805969E-08  0.93827000000E+00  0.93827000000E+00 0.  1.
     999902    2    1    2    0    0 -0.12171357870E-01 -0.19622395471E-01 -0.50418434768E-02  0.10202952683E+01  0.10200214870E+01 0.  0.
     999903    2    3    3    0    0  0.31422534581E-01 -0.88470948245E-01  0.89897584331E-01  0.13144542406E+00  0.19540713235E-01 0.  0.
         14    1    1    2    0    0  0.12171357870E-01  0.19622395471E-01  0.50418434768E-02  0.23634731690E-01  0.00000000000E+00 0.  1.
     999901    1    3    3    0    0 -0.43593892451E-01  0.68848552773E-01 -0.94939427808E-01  0.88884984425E+00  0.88000000000E+00 0.  1.
        -11    1    4    4    0    0  0.17125621500E-01 -0.63131555019E-01  0.72019960802E-01  0.97293453150E-01  0.51100000000E-03 0.  1.
         11    1    4    4    0    0  0.14296913082E-01 -0.25339393226E-01  0.17877623529E-01  0.34151970906E-01  0.51100000000E-03 0. -1.
</event>
<event>
 8    1  0.9956970E+004  0.1043930E+01  0.7957747E-01            NaN
         13   -1    0    0    0    0  0.00000000000E+00  0.00000000000E+00  0.74505805969E-08  0.10566000000E+00  0.10566000000E+00 0. -1.
     999900   -1    0    0    0    0 -0.00000000000E+00 -0.00000000000E+00 -0.74505805969E-08  0.93827000000E+00  0.93827000000E+00 0. -1.
     999902    2    1    2    0    0  0.16642666483E-01 -0.31685430937E-02 -0.16662845040E-01  0.10201672473E+01  0.10198904568E+01 0.  0.
     999903    2    3    3    0    0 -0.96849719822E-01 -0.57055522459E-01  0.57975852860E-01  0.12811609205E+00  0.20428721288E-01 0.  0.
         14    1    1    2    0    0 -0.16642666483E-01  0.31685430937E-02  0.16662845040E-01  0.23762752741E-01  0.00000000000E+00 0. -1.
     999901    1    3    3    0    0  0.11349238630E+00  0.53886979365E-01 -0.74638697900E-01  0.89205115521E+00  0.88000000000E+00 0. -1.
        -11    1    4    4    0    0 -0.43235029783E-01 -0.17617524113E-01  0.32313642903E-01  0.56780961553E-01  0.51100000000E-03 0.  1.
         11    1    4    4    0    0 -0.53614690038E-01 -0.39437998345E-01  0.25662209957E-01  0.71335130492E-01  0.51100000000E-03 0. -1.
</event>
<event>
 8    1  0.9956970E+004  0.1043930E+01  0.7957747E-01            NaN
         13   -1    0    0    0    0  0.00000000000E+00  0.00000000000E+00  0.74505805969E-08  0.10566000000E+00  0.10566000000E+00 0.  1.
     999900   -1    0    0    0    0 -0.00000000000E+00 -0.00000000000E+00 -0.74505805969E-08  0.93827000000E+00  0.93827000000E+00 0. -1.
     999902    2    1    2    0    0  0.19301054931E-01 -0.10225595180E-01 -0.51461845641E-02  0.10214894845E+01  0.10212429634E+01 0.  0.
     999903    2    3    3    0    0 -0.40807012543E-02 -0.82103660045E-01  0.10125081100E+00  0.13186401088E+00  0.19460922931E-01 0.  0.
         14    1    1    2    0    0 -0.19301054931E-01  0.10225595180E-01  0.51461845641E-02  0.22440515453E-01  0.00000000000E+00 0.  1.
     999901    1    3    3    0    0  0.23381756185E-01  0.71878064864E-01 -0.10639699557E+00  0.88962547367E+00  0.88000000000E+00 0. -1.
        -11    1    4    4    0    0 -0.92628858291E-02 -0.60530930286E-01  0.82911624669E-01  0.10307469719E+00  0.51100000000E-03 0.  1.
         11    1    4    4    0    0  0.51821845748E-02 -0.21572729759E-01  0.18339186333E-01  0.28789313687E-01  0.51100000000E-03 0. -1.
</event>
<event>
 8    1  0.9956970E+004  0.1043930E+01  0.7957747E-01            NaN
         13   -1    0    0    0    0  0.00000000000E+00  0.00000000000E+00  0.74505805969E-08  0.10566000000E+00  0.10566000000E+00 0.  1.
     999900   -1    0    0    0    0 -0.00000000000E+00 -0.00000000000E+00 -0.74505805969E-08  0.93827000000E+00  0.93827000000E+00 0.  1.
     999902    2    1    2    0    0 -0.19046250149E-01 -0.30534578497E-02 -0.13050808750E-01  0.10206403701E+01  0.10203746167E+01 0.  0.
     999903    2    3    3    0    0 -0.12849345737E+00  0.27496312021E-01  0.70492523760E-02  0.13310671329E+00  0.20027216502E-01 0.  0.
         14    1    1    2    0    0  0.19046250149E-01  0.30534578497E-02  0.13050808750E-01  0.23289629851E-01  0.00000000000E+00 0.  1.
     999901    1    3    3    0    0  0.10944720722E+00 -0.30549769871E-01 -0.20100061126E-01  0.88753365686E+00  0.88000000000E+00 0. -1.
        -11    1    4    4    0    0 -0.62284489528E-01  0.10067580289E-01 -0.60996451749E-02  0.63389120525E-01  0.51100000000E-03 0.  1.
         11    1    4    4    0    0 -0.66208967842E-01  0.17428731732E-01  0.13148897551E-01  0.69717592760E-01  0.51100000000E-03 0. -1.
</event>
<event>
 8    1  0.9956970E+004  0.1043930E+01  0.7957747E-01            NaN
         13   -1    0    0    0    0  0.00000000000E+00  0.00000000000E+00  0.74505805969E-08  0.10566000000E+00  0.10566000000E+00 0.  1.
     999900   -1    0    0    0    0 -0.00000000000E+00 -0.00000000000E+00 -0.74505805969E-08  0.93827000000E+00  0.93827000000E+00 0.  1.
     999902    2    1    2    0    0 -0.89792283932E-02  0.12735174629E-01 -0.17560732483E-01  0.10204525525E+01  0.10201824451E+01 0.  0.
     999903    2    3    3    0    0  0.12767354527E+00 -0.69729368672E-02 -0.69624134237E-02  0.12962444643E+00  0.20121279813E-01 0.  0.
         14    1    1    2    0    0  0.89792283932E-02 -0.12735174629E-01  0.17560732483E-01  0.23477447491E-01  0.00000000000E+00 0.  1.
     999901    1    3    3    0    0 -0.13665277367E+00  0.19708111496E-01 -0.10598319059E-01  0.89082810608E+00  0.88000000000E+00 0. -1.
        -11    1    4    4    0    0  0.31022335003E-01 -0.92128407080E-02 -0.61384364822E-02  0.32942422898E-01  0.51100000000E-03 0.  1.
         11    1    4    4    0    0  0.96651210269E-01  0.22399038408E-02 -0.82397694152E-03  0.96682023534E-01  0.51100000000E-03 0. -1.
</event>
<event>
 8    1  0.9956970E+004  0.1043930E+01  0.7957747E-01            NaN
         13   -1    0    0    0    0  0.00000000000E+00  0.00000000000E+00  0.74505805969E-08  0.10566000000E+00  0.10566000000E+00 0. -1.
     999900   -1    0    0    0    0 -0.00000000000E+00 -0.00000000000E+00 -0.74505805969E-08  0.93827000000E+00  0.93827000000E+00 0. -1.
     999902    2    1    2    0    0  0.13112562266E-01  0.75201112167E-02  0.17331098761E-01  0.10209330796E+01  0.10206740394E+01 0.  0.
     999903    2    3    3    0    0  0.38870751056E-01  0.37945248437E-01 -0.11635840446E+00  0.12994371015E+00  0.19882463449E-01 0.  0.
         14    1    1    2    0    0 -0.13112562266E-01 -0.75201112167E-02 -0.17331098761E-01  0.22996920362E-01  0.00000000000E+00 0.  1.
     999901    1    3    3    0    0 -0.25758188790E-01 -0.30425137221E-01  0.13368950322E+00  0.89098936949E+00  0.88000000000E+00 0.  1.
        -11    1    4    4    0    0  0.28731076853E-01  0.15735446212E-01 -0.76180856951E-01  0.82926854103E-01  0.51100000000E-03 0.  1.
         11    1    4    4    0    0  0.10139674203E-01  0.22209802226E-01 -0.40177547510E-01  0.47016856049E-01  0.51100000000E-03 0. -1.
</event>
<event>
 8    1  0.9956970E+004  0.1043930E+01  0.7957747E-01            NaN
         13   -1    0    0    0    0  0.00000000000E+00  0.00000000000E+00  0.74505805969E-08  0.10566000000E+00  0.10566000000E+00 0. -1.
     999900   -1    0    0    0    0 -0.00000000000E+00 -0.00000000000E+00 -0.74505805969E-08  0.93827000000E+00  0.93827000000E+00 0. -1.
     999902    2    1    2    0    0 -0.14093043746E-01 -0.44915462984E-02 -0.19820599191E-01  0.10191985621E+01  0.10188984566E+01 0.  0.
     999903    2    3    3    0    0 -0.96667314335E-01  0.69113069994E-01 -0.52936878257E-01  0.13165541514E+00  0.20239791311E-01 0.  0.
         14    1    1    2    0    0  0.14093043746E-01  0.44915462984E-02  0.19820599191E-01  0.24731437938E-01  0.00000000000E+00 0. -1.
     999901    1    3    3    0    0  0.82574270589E-01 -0.73604616292E-01  0.33116279067E-01  0.88754314692E+00  0.88000000000E+00 0. -1.
        -11    1    4    4    0    0 -0.49667419662E-01  0.28757899020E-01 -0.34734840750E-01  0.67086806563E-01  0.51100000000E-03 0.  1.
         11    1    4    4    0    0 -0.46999894673E-01  0.40355170974E-01 -0.18202037508E-01  0.64568608581E-01  0.51100000000E-03 0. -1.
</event>
<event>
 8    1  0.9956970E+004  0.1043930E+01  0.7957747E-01            NaN
         13   -1    0    0    0    0  0.00000000000E+00  0.00000000000E+00  0.74505805969E-08  0.10566000000E+00  0.10566000000E+00 0.  1.
     999900   -1    0    0    0    0 -0.00000000000E+00 -0.00000000000E+00 -0.74505805969E-08  0.93827000000E+00  0.93827000000E+00 0.  1.
     999902    2    1    2    0    0 -0.78476515693E-02 -0.70510123731E-03  0.22295774774E-01  0.10202829204E+01  0.10200088496E+01 0.  0.
     999903    2    3    3    0    0  0.33228903750E-01  0.49361571013E-01  0.11705202162E+00  0.13282999125E+00  0.20047595147E-01 0.  0.
         14    1    1    2    0    0  0.78476515693E-02  0.70510123731E-03 -0.22295774774E-01  0.23647079644E-01  0.00000000000E+00 0. -1.
     999901    1    3    3    0    0 -0.41076555319E-01 -0.50066672250E-01 -0.94756246850E-01  0.88745292911E+00  0.88000000000E+00 0.  1.
        -11    1    4    4    0    0  0.33303730548E-01  0.45508963301E-01  0.95324499236E-01  0.11075750758E+00  0.51100000000E-03 0.  1.
         11    1    4    4    0    0 -0.74826797973E-04  0.38526077115E-02  0.21727522388E-01  0.22072483670E-01  0.51100000000E-03 0. -1.
</event>
<event>
 8    1  0.9956970E+004  0.1043930E+01  0.7957747E-01            NaN
         13   -1    0    0    0    0  0.00000000000E+00  0.00000000000E+00  0.74505805969E-08  0.10566000000E+00  0.10566000000E+00 0.  1.
     999900   -1    0    0    0    0 -0.00000000000E+00 -0.00000000000E+00 -0.74505805969E-08  0.93827000000E+00  0.93827000000E+00 0.  1.
     999902    2    1    2    0    0  0.20682175709E-01  0.11376104101E-01 -0.21991399272E-02  0.10202233690E+01  0.10199478998E+01 0.  0.
     999903    2    3    3    0    0  0.58429189359E-02  0.22883121822E-01  0.12679072857E+00  0.13062177213E+00  0.20697379946E-01 0.  0.
         14    1    1    2    0    0 -0.20682175709E-01 -0.11376104101E-01  0.21991399272E-02  0.23706630992E-01  0.00000000000E+00 0. -1.
     999901    1    3    3    0    0  0.14839256773E-01 -0.11507017721E-01 -0.12898986850E+00  0.88960159688E+00  0.88000000000E+00 0.  1.
        -11    1    4    4    0    0  0.13512967951E-01  0.15306599222E-01  0.89471216449E-01  0.91772828094E-01  0.51100000000E-03 0.  1.
         11    1    4    4    0    0 -0.76700490149E-02  0.75765226001E-02  0.37319512120E-01  0.38848944033E-01  0.51100000000E-03 0. -1.
</event>
<event>
 8    1  0.9956970E+004  0.1043930E+01  0.7957747E-01            NaN
         13   -1    0    0    0    0  0.00000000000E+00  0.00000000000E+00  0.74505805969E-08  0.10566000000E+00  0.10566000000E+00 0. -1.
     999900   -1    0    0    0    0 -0.00000000000E+00 -0.00000000000E+00 -0.74505805969E-08  0.93827000000E+00  0.93827000000E+00 0.  1.
     999902    2    1    2    0    0 -0.17414819962E-01  0.97406186212E-03  0.13943440207E-01  0.10215996557E+01  0.10213555758E+01 0.  0.
     999903    2    3    3    0    0  0.79477473505E-01  0.10159799451E+00 -0.13042390992E-02  0.13045107996E+00  0.19415507731E-01 0.  0.
         14    1    1    2    0    0  0.17414819962E-01 -0.97406186212E-03 -0.13943440207E-01  0.22330344279E-01  0.00000000000E+00 0.  1.
     999901    1    3    3    0    0 -0.96892293467E-01 -0.10062393265E+00  0.15247679307E-01  0.89114857576E+00  0.88000000000E+00 0.  1.
        -11    1    4    4    0    0  0.21503183995E-01  0.30346204137E-01 -0.90026691749E-02  0.38269938604E-01  0.51100000000E-03 0. -1.
         11    1    4    4    0    0  0.57974289509E-01  0.71251790372E-01  0.76984300757E-02  0.92181141357E-01  0.51100000000E-03 0.  1.
</event>
<event>
 8    1  0.9956970E+004  0.1043930E+01  0.7957747E-01            NaN
         13   -1    0    0    0    0  0.00000000000E+00  0.00000000000E+00  0.74505805969E-08  0.10566000000E+00  0.10566000000E+00 0.  1.
     999900   -1    0    0    0    0 -0.00000000000E+00 -0.00000000000E+00 -0.74505805969E-08  0.93827000000E+00  0.93827000000E+00 0. -1.
     999902    2    1    2    0    0  0.70358049337E-02 -0.16373964092E-01 -0.15396170448E-01  0.10203789636E+01  0.10201071405E+01 0.  0.
     999903    2    3    3    0    0 -0.32403850337E-01  0.82128293483E-01  0.89970121741E-01  0.12776469266E+00  0.20835733172E-01 0.  0.
         14    1    1    2    0    0 -0.70358049337E-02  0.16373964092E-01  0.15396170448E-01  0.23551036402E-01  0.00000000000E+00 0.  1.
     999901    1    3    3    0    0  0.39439655270E-01 -0.98502257575E-01 -0.10536629219E+00  0.89261427094E+00  0.88000000000E+00 0. -1.
        -11    1    4    4    0    0 -0.11663992041E-01  0.97374870903E-02  0.12017601602E-01  0.19379144316E-01  0.51100000000E-03 0.  1.
         11    1    4    4    0    0 -0.20739858296E-01  0.72390806393E-01  0.77952520139E-01  0.10838554834E+00  0.51100000000E-03 0. -1.
</event>
<event>
 8    1  0.9956970E+004  0.1043930E+01  0.7957747E-01            NaN
         13   -1    0    0    0    0  0.00000000000E+00  0.00000000000E+00  0.74505805969E-08  0.10566000000E+00  0.10566000000E+00 0.  1.
     999900   -1    0    0    0    0 -0.00000000000E+00 -0.00000000000E+00 -0.74505805969E-08  0.93827000000E+00  0.93827000000E+00 0.  1.
     999902    2    1    2    0    0  0.22740903134E-01 -0.29670186575E-02  0.51115314473E-02  0.10204336252E+01  0.10201630771E+01 0.  0.
     999903    2    3    3    0    0  0.87347268819E-01  0.11300496169E-02  0.97664026205E-01  0.13321508800E+00  0.24024472420E-01 0.  0.
         14    1    1    2    0    0 -0.22740903134E-01  0.29670186575E-02 -0.51115314473E-02  0.23496374802E-01  0.00000000000E+00 0.  1.
     999901    1    3    3    0    0 -0.64606365684E-01 -0.40970682743E-02 -0.92552494758E-01  0.88721853719E+00  0.88000000000E+00 0.  1.
        -11    1    4    4    0    0  0.75347656366E-01  0.90910644636E-02  0.85795747548E-01  0.11454731857E+00  0.51100000000E-03 0.  1.
         11    1    4    4    0    0  0.11999612453E-01 -0.79610148467E-02  0.11868278657E-01  0.18667769435E-01  0.51100000000E-03 0. -1.
</event>
<event>
 8    1  0.9956970E+004  0.1043930E+01  0.7957747E-01            NaN
         13   -1    0    0    0    0  0.00000000000E+00  0.00000000000E+00  0.74505805969E-08  0.10566000000E+00  0.10566000000E+00 0. -1.
     999900   -1    0    0    0    0 -0.00000000000E+00 -0.00000000000E+00 -0.74505805969E-08  0.93827000000E+00  0.93827000000E+00 0.  1.
     999902    2    1    2    0    0  0.22408145436E-01 -0.59727847065E-02 -0.52208659433E-02  0.10201590812E+01  0.10198820983E+01 0.  0.
     999903    2    3    3    0    0  0.92486593007E-01 -0.19533643755E-01  0.90117285466E-01  0.13213641887E+00  0.20089174384E-01 0.  0.
         14    1    1    2    0    0 -0.22408145436E-01  0.59727847065E-02  0.52208659433E-02  0.23770918792E-01  0.00000000000E+00 0.  1.
     999901    1    3    3    0    0 -0.70078447571E-01  0.13560859048E-01 -0.95338151409E-01  0.88802266234E+00  0.88000000000E+00 0.  1.
        -11    1    4    4    0    0  0.33753478719E-01 -0.31864804652E-02  0.20612339863E-01  0.39680986114E-01  0.51100000000E-03 0.  1.
         11    1    4    4    0    0  0.58733114289E-01 -0.16347163289E-01  0.69504945603E-01  0.92455432755E-01  0.51100000000E-03 0. -1.
</event>
<event>
 8    1  0.9956970E+004  0.1043930E+01  0.7957747E-01            NaN
         13   -1    0    0    0    0  0.00000000000E+00  0.00000000000E+00  0.74505805969E-08  0.10566000000E+00  0.10566000000E+00 0. -1.
     999900   -1    0    0    0    0 -0.00000000000E+00 -0.00000000000E+00 -0.74505805969E-08  0.93827000000E+00  0.93827000000E+00 0. -1.
     999902    2    1    2    0    0 -0.12065077096E-01  0.95207522719E-03 -0.19864022408E-01  0.10206694772E+01  0.10204043953E+01 0.  0.
     999903    2    3    3    0    0  0.12229797098E+00  0.85568896547E-02  0.33878793424E-01  0.12881772267E+00  0.20401445127E-01 0.  0.
         14    1    1    2    0    0  0.12065077096E-01 -0.95207522719E-03  0.19864022408E-01  0.23260522754E-01  0.00000000000E+00 0. -1.
     999901    1    3    3    0    0 -0.13436304808E+00 -0.76048144275E-02 -0.53742815832E-01  0.89185175458E+00  0.88000000000E+00 0. -1.
        -11    1    4    4    0    0  0.29758975989E-01  0.48928894808E-02  0.17176834980E-01  0.34710831167E-01  0.51100000000E-03 0. -1.
         11    1    4    4    0    0  0.92538994990E-01  0.36640001739E-02  0.16701958444E-01  0.94106891501E-01  0.51100000000E-03 0.  1.
</event>
<event>
 8    1  0.9956970E+004  0.1043930E+01  0.7957747E-01            NaN
         13   -1    0    0    0    0  0.00000000000E+00  0.00000000000E+00  0.74505805969E-08  0.10566000000E+00  0.10566000000E+00 0. -1.
     999900   -1    0    0    0    0 -0.00000000000E+00 -0.00000000000E+00 -0.74505805969E-08  0.93827000000E+00  0.93827000000E+00 0. -1.
     999902    2    1    2    0    0  0.36948929203E-02 -0.13153150780E-01  0.18377771719E-01  0.10210302161E+01  0.10207733843E+01 0.  0.
     999903    2    3    3    0    0  0.26151425604E-01  0.12158908607E+00 -0.29073230330E-01  0.12922790401E+00  0.19667118288E-01 0.  0.
         14    1    1    2    0    0 -0.36948929203E-02  0.13153150780E-01 -0.18377771719E-01  0.22899783896E-01  0.00000000000E+00 0.  1.
     999901    1    3    3    0    0 -0.22456532684E-01 -0.13474223685E+00  0.47451002049E-01  0.89180231209E+00  0.88000000000E+00 0.  1.
        -11    1    4    4    0    0  0.15557828323E-01  0.95371906601E-01 -0.29190436019E-01  0.10094646733E+00  0.51100000000E-03 0. -1.
         11    1    4    4    0    0  0.10593597281E-01  0.26217179469E-01  0.11720568881E-03  0.28281436683E-01  0.51100000000E-03 0.  1.
</event>
<event>
 8    1  0.9956970E+004  0.1043930E+01  0.7957747E-01            NaN
         13   -1    0    0    0    0  0.00000000000E+00  0.00000000000E+00  0.74505805969E-08  0.10566000000E+00  0.10566000000E+00 0.  1.
     999900   -1    0    0    0    0 -0.00000000000E+00 -0.00000000000E+00 -0.74505805969E-08  0.93827000000E+00  0.93827000000E+00 0. -1.
     999902    2    1    2    0    0 -0.38205157653E-02 -0.21943664676E-01 -0.86027060902E-02  0.10200526611E+01  0.10197731631E+01 0.  0.
     999903    2    3    3    0    0  0.12193788964E+00 -0.38766441345E-01 -0.19923478069E-01  0.13088094417E+00  0.19005016755E-01 0.  0.
         14    1    1    2    0    0  0.38205157653E-02  0.21943664676E-01  0.86027060902E-02  0.23877338885E-01  0.00000000000E+00 0.  1.
     999901    1    3    3    0    0 -0.12575840541E+00  0.16822776669E-01  0.11320771979E-01  0.88917171695E+00  0.88000000000E+00 0.  1.
        -11    1    4    4    0    0  0.11482329410E+00 -0.38747704320E-01 -0.14773463274E-01  0.12208312658E+00  0.51100000000E-03 0. -1.
         11    1    4    4    0    0  0.71145955419E-02 -0.18737025108E-04 -0.51500147949E-02  0.87978175810E-02  0.51100000000E-03 0.  1.
</event>
<event>
 8    1  0.9956970E+004  0.1043930E+01  0.7957747E-01            NaN
         13   -1    0    0    0    0  0.00000000000E+00  0.00000000000E+00  0.74505805969E-08  0.10566000000E+00  0.10566000000E+00 0. -1.
     999900   -1    0    0    0    0 -0.00000000000E+00 -0.00000000000E+00 -0.74505805969E-08  0.93827000000E+00  0.93827000000E+00 0.  1.
     999902    2    1    2    0    0  0.22587020566E-02  0.20472440622E-01  0.12918189635E-01  0.10196174069E+01  0.10193275010E+01 0.  0.
     999903    2    3    3    0    0 -0.74097101020E-02 -0.73109176037E-01 -0.10166078450E+00  0.12721652249E+00  0.21196062507E-01 0.  0.
         14    1    1    2    0    0 -0.22587020566E-02 -0.20472440622E-01 -0.12918189635E-01  0.24312593104E-01  0.00000000000E+00 0.  1.
     999901    1    3    3    0    0  0.96684121586E-02  0.93581616659E-01  0.11457897413E+00  0.89240088440E+00  0.88000000000E+00 0.  1.
        -11    1    4    4    0    0  0.35551097020E-02 -0.53423697004E-01 -0.77242327784E-01  0.93986001772E-01  0.51100000000E-03 0. -1.
         11    1    4    4    0    0 -0.10964819804E-01 -0.19685479033E-01 -0.24418456714E-01  0.33230520721E-01  0.51100000000E-03 0.  1.
</event>
<event>
 8    1  0.9956970E+004  0.1043930E+01  0.7957747E-01            NaN
         13   -1    0    0    0    0  0.00000000000E+00  0.00000000000E+00  0.74505805969E-08  0.10566000000E+00  0.10566000000E+00 0. -1.
     999900   -1    0    0    0    0 -0.00000000000E+00 -0.00000000000E+00 -0.74505805969E-08  0.93827000000E+00  0.93827000000E+00 0. -1.
     999902    2    1    2    0    0 -0.74235771004E-02 -0.21597696167E-01  0.78858339210E-02  0.10197689497E+01  0.10194826896E+01 0.  0.
     999903    2    3    3    0    0 -0.13245354239E-01 -0.11247156812E+00 -0.64888469603E-01  0.13208203811E+00  0.20244956421E-01 0.  0.
         14    1    1    2    0    0  0.74235771004E-02  0.21597696167E-01 -0.78858339210E-02  0.24161050335E-01  0.00000000000E+00 0.  1.
     999901    1    3    3    0    0  0.58217771385E-02  0.90873871949E-01  0.72774303524E-01  0.88768691155E+00  0.88000000000E+00 0.  1.
        -11    1    4    4    0    0  0.36623636791E-04 -0.79273006696E-01 -0.45476269062E-01  0.91392358000E-01  0.51100000000E-03 0. -1.
         11    1    4    4    0    0 -0.13281977876E-01 -0.33198561420E-01 -0.19412200541E-01  0.40689680110E-01  0.51100000000E-03 0.  1.
</event>
<event>
 8    1  0.9956970E+004  0.1043930E+01  0.7957747E-01            NaN
         13   -1    0    0    0    0  0.00000000000E+00  0.00000000000E+00  0.74505805969E-08  0.10566000000E+00  0.10566000000E+00 0. -1.
     999900   -1    0    0    0    0 -0.00000000000E+00 -0.00000000000E+00 -0.74505805969E-08  0.93827000000E+00  0.93827000000E+00 0. -1.
     999902    2    1    2    0    0 -0.83303633149E-02 -0.11974236551E-01  0.19078892615E-01  0.10199137256E+01  0.10196309265E+01 0.  0.
     999903    2    3    3    0    0 -0.70778722539E-01 -0.18115511889E-01 -0.10451221690E+00  0.12906453790E+00  0.19926166848E-01 0.  0.
         14    1    1    2    0    0  0.83303633149E-02  0.11974236551E-01 -0.19078892615E-01  0.24016274427E-01  0.00000000000E+00 0.  1.
     999901    1    3    3    0    0  0.62448359224E-01  0.61412753376E-02  0.12359110952E+00  0.89084918768E+00  0.88000000000E+00 0.  1.
        -11    1    4    4    0    0 -0.17580119152E-01 -0.24466432085E-02 -0.41395122799E-01  0.45042912483E-01  0.51100000000E-03 0. -1.
         11    1    4    4    0    0 -0.53198603387E-01 -0.15668868681E-01 -0.63117094103E-01  0.84021625413E-01  0.51100000000E-03 0.  1.
</event>
<event>
 8    1  0.9956970E+004  0.1043930E+01  0.7957747E-01            NaN
         13   -1    0    0    0    0  0.00000000000E+00  0.00000000000E+00  0.74505805969E-08  0.10566000000E+00  0.10566000000E+00 0. -1.
     999900   -1    0    0    0    0 -0.00000000000E+00 -0.00000000000E+00 -0.74505805969E-08  0.93827000000E+00  0.93827000000E+00 0. -1.
     999902    2    1    2    0    0 -0.70430895088E-03  0.10190042048E-01  0.19497631197E-01  0.10219188521E+01  0.10216817752E+01 0.  0.
     999903    2    3    3    0    0  0.94431565743E-01 -0.84973055326E-01 -0.23935441546E-01  0.13063142287E+00  0.18812829122E-01 0.  0.
         14    1    1    2    0    0  0.70430895088E-03 -0.10190042048E-01 -0.19497631197E-01  0.22011147864E-01  0.00000000000E+00 0.  1.
     999901    1    3    3    0    0 -0.95135874694E-01  0.95163097373E-01  0.43433072743E-01  0.89128742926E+00  0.88000000000E+00 0. -1.
        -11    1    4    4    0    0  0.42275954586E-01 -0.44903754923E-01 -0.35722426333E-02  0.61778844120E-01  0.51100000000E-03 0.  1.
         11    1    4    4    0    0  0.52155611157E-01 -0.40069300403E-01 -0.20363198912E-01  0.68852578752E-01  0.51100000000E-03 0. -1.
</event>
<event>
 8    1  0.9956970E+004  0.1043930E+01  0.7957747E-01            NaN
         13   -1    0    0    0    0  0.00000000000E+00  0.00000000000E+00  0.74505805969E-08  0.10566000000E+00  0.10566000000E+00 0. -1.
     999900   -1    0    0    0    0 -0.00000000000E+00 -0.00000000000E+00 -0.74505805969E-08  0.93827000000E+00  0.93827000000E+00 0.  1.
     999902    2    1    2    0    0  0.91321956546E-02  0.12168857444E-01 -0.17964462947E-01  0.10203885468E+01  0.10201169474E+01 0.  0.
     999903    2    3    3    0    0  0.79717012946E-01 -0.49489771239E-01 -0.91176003671E-01  0.13238858476E+00  0.20239419910E-01 0.  0.
         14    1    1    2    0    0 -0.91321956546E-02 -0.12168857444E-01  0.17964462947E-01  0.23541453182E-01  0.00000000000E+00 0. -1.
     999901    1    3    3    0    0 -0.70584817291E-01  0.61658628683E-01  0.73211540724E-01  0.88799996206E+00  0.88000000000E+00 0. -1.
        -11    1    4    4    0    0  0.15902771217E-01 -0.19514773849E-01 -0.19493661084E-01  0.31843185679E-01  0.51100000000E-03 0.  1.
         11    1    4    4    0    0  0.63814241729E-01 -0.29974997390E-01 -0.71682342587E-01  0.10054539908E+00  0.51100000000E-03 0. -1.
</event>
<event>
 8    1  0.9956970E+004  0.1043930E+01  0.7957747E-01            NaN
         13   -1    0    0    0    0  0.00000000000E+00  0.00000000000E+00  0.74505805969E-08  0.10566000000E+00  0.10566000000E+00 0.  1.
     999900   -1    0    0    0    0 -0.00000000000E+00 -0.00000000000E+00 -0.74505805969E-08  0.93827000000E+00  0.93827000000E+00 0. -1.
     999902    2    1    2    0    0 -0.21595055608E-01 -0.93941006409E-02 -0.57407443449E-03  0.10203731514E+01  0.10201011925E+01 0.  0.
     999903    2    3    3    0    0  0.21327679446E-01 -0.12802222436E+00  0.26774091660E-02  0.13137058389E+00  0.20161893560E-01 0.  0.
         14    1    1    2    0    0  0.21595055608E-01  0.93941006409E-02  0.57407443449E-03  0.23556848580E-01  0.00000000000E+00 0. -1.
     999901    1    3    3    0    0 -0.42922735054E-01  0.11862812372E+00 -0.32514836005E-02  0.88900256753E+00  0.88000000000E+00 0. -1.
        -11    1    4    4    0    0  0.63192338965E-02 -0.73599005107E-02  0.10050577017E-02  0.97658647620E-02  0.51100000000E-03 0. -1.
         11    1    4    4    0    0  0.15008445550E-01 -0.12066232385E+00  0.16723514643E-02  0.12160471913E+00  0.51100000000E-03 0.  1.
</event>
<event>
 8    1  0.9956970E+004  0.1043930E+01  0.7957747E-01            NaN
         13   -1    0    0    0    0  0.00000000000E+00  0.00000000000E+00  0.74505805969E-08  0.10566000000E+00  0.10566000000E+00 0.  1.
     999900   -1    0    0    0    0 -0.00000000000E+00 -0.00000000000E+00 -0.74505805969E-08  0.93827000000E+00  0.93827000000E+00 0.  1.
     999902    2    1    2    0    0  0.24157791108E-01  0.61376133161E-02  0.35083406917E-02  0.10187590321E+01  0.10184480291E+01 0.  0.
     999903    2    3    3    0    0 -0.41713622652E-01  0.24463365578E-01 -0.11674443817E+00  0.12795287637E+00  0.20104530768E-01 0.  0.
         14    1    1    2    0    0 -0.24157791108E-01 -0.61376133161E-02 -0.35083406917E-02  0.25170967856E-01  0.00000000000E+00 0. -1.
     999901    1    3    3    0    0  0.65871413760E-01 -0.18325752262E-01  0.12025277886E+00  0.89080615578E+00  0.88000000000E+00 0. -1.
        -11    1    4    4    0    0 -0.23768904896E-01  0.20835363514E-01 -0.53821350504E-01  0.62418523723E-01  0.51100000000E-03 0. -1.
         11    1    4    4    0    0 -0.17944717756E-01  0.36280020637E-02 -0.62923087663E-01  0.65534352643E-01  0.51100000000E-03 0.  1.
</event>
<event>
 8    1  0.9956970E+004  0.1043930E+01  0.7957747E-01            NaN
         13   -1    0    0    0    0  0.00000000000E+00  0.00000000000E+00  0.74505805969E-08  0.10566000000E+00  0.10566000000E+00 0.  1.
     999900   -1    0    0    0    0 -0.00000000000E+00 -0.00000000000E+00 -0.74505805969E-08  0.93827000000E+00  0.93827000000E+00 0. -1.
     999902    2    1    2    0    0 -0.19637520688E-01  0.10333088130E-01  0.62076238678E-02  0.10208878750E+01  0.10206278038E+01 0.  0.
     999903    2    3    3    0    0  0.69533075627E-01 -0.97442101179E-01  0.43860758322E-01  0.12904447778E+00  0.19972466986E-01 0.  0.
         14    1    1    2    0    0  0.19637520688E-01 -0.10333088130E-01 -0.62076238678E-02  0.23042124970E-01  0.00000000000E+00 0. -1.
     999901    1    3    3    0    0 -0.89170596315E-01  0.10777518931E+00 -0.37653134454E-01  0.89184339725E+00  0.88000000000E+00 0.  1.
        -11    1    4    4    0    0  0.21735968312E-01 -0.24205359345E-01  0.34968271492E-02  0.32723701816E-01  0.51100000000E-03 0.  1.
         11    1    4    4    0    0  0.47797107316E-01 -0.73236741834E-01  0.40363931172E-01  0.96320775967E-01  0.51100000000E-03 0. -1.
</event>
<event>
 8    1  0.9956970E+004  0.1043930E+01  0.7957747E-01            NaN
         13   -1    0    0    0    0  0.00000000000E+00  0.00000000000E+00  0.74505805969E-08  0.10566000000E+00  0.10566000000E+00 0.  1.
     999900   -1    0    0    0    0 -0.00000000000E+00 -0.00000000000E+00 -0.74505805969E-08  0.93827000000E+00  0.93827000000E+00 0. -1.
     999902    2    1    2    0    0 -0.53060956099E-02 -0.19496273022E-01 -0.11932863272E-01  0.10204640132E+01  0.10201941725E+01 0.  0.
     999903    2    3    3    0    0 -0.80593208221E-01 -0.76999077380E-01 -0.70800556137E-01  0.13342391988E+00  0.19107603645E-01 0.  0.
         14    1    1    2    0    0  0.53060956099E-02  0.19496273022E-01  0.11932863272E-01  0.23465986837E-01  0.00000000000E+00 0. -1.
     999901    1    3    3    0    0  0.75287112611E-01  0.57502804358E-01  0.58867692865E-01  0.88704009329E+00  0.88000000000E+00 0.  1.
        -11    1    4    4    0    0 -0.21431754488E-01 -0.14219255176E-01 -0.87950323366E-02  0.27186780483E-01  0.51100000000E-03 0. -1.
         11    1    4    4    0    0 -0.59161453733E-01 -0.62779822204E-01 -0.62005523801E-01  0.10623713939E+00  0.51100000000E-03 0.  1.
</event>
<event>
 8    1  0.9956970E+004  0.1043930E+01  0.7957747E-01            NaN
         13   -1    0    0    0    0  0.00000000000E+00  0.00000000000E+00  0.74505805969E-08  0.10566000000E+00  0.10566000000E+00 0. -1.
     999900   -1    0    0    0    0 -0.00000000000E+00 -0.00000000000E+00 -0.74505805969E-08  0.93827000000E+00  0.93827000000E+00 0.  1.
     999902    2    1    2    0    0 -0.68807381507E-02  0.20696687297E-01  0.97734864437E-02  0.10200298230E+01  0.10197497837E+01 0.  0.
     999903    2    3    3    0    0 -0.14041787161E-01 -0.40753915448E-01  0.12179365763E+00  0.13077396785E+00  0.20250486822E-01 0.  0.
         14    1    1    2    0    0  0.68807381507E-02 -0.20696687297E-01 -0.97734864437E-02  0.23900176983E-01  0.00000000000E+00 0.  1.
     999901    1    3    3    0    0  0.71610490101E-02  0.61450602745E-01 -0.11202017119E+00  0.88925585517E+00  0.88000000000E+00 0.  1.
        -11    1    4    4    0    0 -0.13014749833E-01 -0.34297937897E-01  0.74668596839E-01  0.83194908090E-01  0.51100000000E-03 0. -1.
         11    1    4    4    0    0 -0.10270373278E-02 -0.64559775516E-02  0.47125060792E-01  0.47579059758E-01  0.51100000000E-03 0.  1.
</event>
<event>
 8    1  0.9956970E+004  0.1043930E+01  0.7957747E-01            NaN
         13   -1    0    0    0    0  0.00000000000E+00  0.00000000000E+00  0.74505805969E-08  0.10566000000E+00  0.10566000000E+00 0.  1.
     999900   -1    0    0    0    0 -0.00000000000E+00 -0.00000000000E+00 -0.74505805969E-08  0.93827000000E+00  0.93827000000E+00 0.  1.
     999902    2    1    2    0    0 -0.47651654857E-02 -0.73397270190E-02 -0.22110658274E-01  0.10201506055E+01  0.10198734227E+01 0.  0.
     999903    2    3    3    0    0  0.10692268728E-01  0.10921025859E+00  0.63527003660E-01  0.12821078656E+00  0.19003168273E-01 0.  0.
         14    1    1    2    0    0  0.47651654857E-02  0.73397270190E-02  0.22110658274E-01  0.23779394528E-01  0.00000000000E+00 0.  1.
     999901    1    3    3    0    0 -0.15457434213E-01 -0.11654998561E+00 -0.85637661934E-01  0.89193981891E+00  0.88000000000E+00 0.  1.
        -11    1    4    4    0    0  0.47518708587E-02  0.16042617421E-01  0.17159967037E-01  0.23972305690E-01  0.51100000000E-03 0. -1.
         11    1    4    4    0    0  0.59403978690E-02  0.93167641170E-01  0.46367036623E-01  0.10423848087E+00  0.51100000000E-03 0.  1.
</event>
<event>
 8    1  0.9956970E+004  0.1043930E+01  0.7957747E-01            NaN
         13   -1    0    0    0    0  0.00000000000E+00  0.00000000000E+00  0.74505805969E-08  0.10566000000E+00  0.10566000000E+00 0. -1.
     999900   -1    0    0    0    0 -0.00000000000E+00 -0.00000000000E+00 -0.74505805969E-08  0.93827000000E+00  0.93827000000E+00 0. -1.
     999902    2    1    2    0    0 -0.58023635482E-02  0.12522668988E-01  0.20271745614E-01  0.10194059642E+01  0.10191109319E+01 0.  0.
     999903    2    3    3    0    0  0.31293093541E-02 -0.93456075172E-01 -0.83494143564E-01  0.12694945056E+00  0.20026493058E-01 0.  0.
         14    1    1    2    0    0  0.58023635482E-02 -0.12522668988E-01 -0.20271745614E-01  0.24524035793E-01  0.00000000000E+00 0.  1.
     999901    1    3    3    0    0 -0.89316729022E-02  0.10597874416E+00  0.10376588918E+00  0.89245651365E+00  0.88000000000E+00 0.  1.
        -11    1    4    4    0    0 -0.74909927042E-02 -0.61191394868E-01 -0.54570570565E-01  0.82332922154E-01  0.51100000000E-03 0.  1.
         11    1    4    4    0    0  0.10620302058E-01 -0.32264680304E-01 -0.28923572999E-01  0.44616528406E-01  0.51100000000E-03 0. -1.
</event>
<event>
 8    1  0.9956970E+004  0.1043930E+01  0.7957747E-01            NaN
         13   -1    0    0    0    0  0.00000000000E+00  0.00000000000E+00  0.74505805969E-08  0.10566000000E+00  0.10566000000E+00 0.  1.
     999900   -1    0    0    0    0 -0.00000000000E+00 -0.00000000000E+00 -0.74505805969E-08  0.93827000000E+00  0.93827000000E+00 0.  1.
     999902    2    1    2    0    0 -0.12066667051E-01  0.46906351802E-02 -0.20108471912E-01  0.10200143743E+01  0.10197339685E+01 0.  0.
     999903    2    3    3    0    0  0.27317371088E-01  0.49300975254E-01  0.11323847819E+00  0.12798153069E+00  0.19480614198E-01 0.  0.
         14    1    1    2    0    0  0.12066667051E-01 -0.46906351802E-02  0.20108471912E-01  0.23915625744E-01  0.00000000000E+00 0.  1.
     999901    1    3    3    0    0 -0.39384038138E-01 -0.44610340073E-01 -0.13334695011E+00  0.89203284357E+00  0.88000000000E+00 0.  1.
        -11    1    4    4    0    0  0.23870749321E-02  0.21657916061E-01  0.50948876720E-01  0.55414913289E-01  0.51100000000E-03 0. -1.
         11    1    4    4    0    0  0.24930296156E-01  0.27643059192E-01  0.62289601474E-01  0.72566617398E-01  0.51100000000E-03 0.  1.
</event>
<event>
 8    1  0.9956970E+004  0.1043930E+01  0.7957747E-01            NaN
         13   -1    0    0    0    0  0.00000000000E+00  0.00000000000E+00  0.74505805969E-08  0.10566000000E+00  0.10566000000E+00 0. -1.
     999900   -1    0    0    0    0 -0.00000000000E+00 -0.00000000000E+00 -0.74505805969E-08  0.93827000000E+00  0.93827000000E+00 0.  1.
     999902    2    1    2    0    0  0.30401588700E-02  0.13682116137E-01 -0.18182280503E-01  0.10209726876E+01  0.10207145491E+01 0.  0.
     999903    2    3    3    0    0  0.54331726628E-01  0.11918162810E+00 -0.13693057316E-01  0.13317703259E+00  0.19809724785E-01 0.  0.
         14    1    1    2    0    0 -0.30401588700E-02 -0.13682116137E-01  0.18182280503E-01  0.22957312392E-01  0.00000000000E+00 0. -1.
     999901    1    3    3    0    0 -0.51291567758E-01 -0.10549951196E+00 -0.44892231873E-02  0.88779565502E+00  0.88000000000E+00 0. -1.
        -11    1    4    4    0    0  0.32575248273E-01  0.90537641866E-01 -0.61215323240E-02  0.96415484615E-01  0.51100000000E-03 0. -1.
         11    1    4    4    0    0  0.21756478355E-01  0.28643986232E-01 -0.75715249920E-02  0.36761547973E-01  0.51100000000E-03 0.  1.
</event>
<event>
 8    1  0.9956970E+004  0.1043930E+01  0.7957747E-01            NaN
         13   -1    0    0    0    0  0.00000000000E+00  0.00000000000E+00  0.74505805969E-08  0.10566000000E+00  0.10566000000E+00 0. -1.
     999900   -1    0    0    0    0 -0.00000000000E+00 -0.00000000000E+00 -0.74505805969E-08  0.93827000000E+00  0.93827000000E+00 0. -1.
     999902    2    1    2    0    0  0.15786815221E-01 -0.79640084326E-03  0.16150274746E-01  0.10213315672E+01  0.10210815252E+01 0.  0.
     999903    2    3    3    0    0  0.86246320756E-01 -0.91843826216E-01  0.39310304199E-01  0.13353059711E+00  0.20283098642E-01 0.  0.
         14    1    1    2    0    0 -0.15786815221E-01  0.79640084326E-03 -0.16150274746E-01  0.22598432767E-01  0.00000000000E+00 0.  1.
     999901    1    3    3    0    0 -0.70459505535E-01  0.91047425373E-01 -0.23160029452E-01  0.88780097012E+00  0.88000000000E+00 0. -1.
        -11    1    4    4    0    0  0.37041036412E-01 -0.48301148829E-01  0.10435748679E-01  0.61759252976E-01  0.51100000000E-03 0. -1.
         11    1    4    4    0    0  0.49205284344E-01 -0.43542677387E-01  0.28874555519E-01  0.71771344134E-01  0.51100000000E-03 0.  1.
</event>
<event>
 8    1  0.9956970E+004  0.1043930E+01  0.7957747E-01            NaN
         13   -1    0    0    0    0  0.00000000000E+00  0.00000000000E+00  0.74505805969E-08  0.10566000000E+00  0.10566000000E+00 0.  1.
     999900   -1    0    0    0    0 -0.00000000000E+00 -0.00000000000E+00 -0.74505805969E-08  0.93827000000E+00  0.93827000000E+00 0. -1.
     999902    2    1    2    0    0  0.10134473081E-01 -0.20376387242E-01  0.16707786764E-01  0.10156978403E+01  0.10153053964E+01 0.  0.
     999903    2    3    3    0    0  0.41095474208E-01  0.95071491813E-01 -0.64826785922E-01  0.12388245420E+00  0.20418710311E-01 0.  0.
         14    1    1    2    0    0 -0.10134473081E-01  0.20376387242E-01 -0.16707786764E-01  0.28232159681E-01  0.00000000000E+00 0. -1.
     999901    1    3    3    0    0 -0.30961001126E-01 -0.11544787905E+00  0.81534572687E-01  0.89181538612E+00  0.88000000000E+00 0. -1.
        -11    1    4    4    0    0  0.30342197562E-01  0.74076425345E-01 -0.39492840175E-01  0.89263157522E-01  0.51100000000E-03 0.  1.
         11    1    4    4    0    0  0.10753276646E-01  0.20995066468E-01 -0.25333945747E-01  0.34619296682E-01  0.51100000000E-03 0. -1.
</event>
<event>
 8    1  0.9956970E+004  0.1043930E+01  0.7957747E-01            NaN
         13   -1    0    0    0    0  0.00000000000E+00  0.00000000000E+00  0.74505805969E-08  0.10566000000E+00  0.10566000000E+00 0.  1.
     999900   -1    0    0    0    0 -0.00000000000E+00 -0.00000000000E+00 -0.74505805969E-08  0.93827000000E+00  0.93827000000E+00 0.  1.
     999902    2    1    2    0    0 -0.87116766564E-02 -0.13906627801E-01 -0.17214351405E-01  0.10201472016E+01  0.10198699385E+01 0.  0.
     999903    2    3    3    0    0  0.87829511974E-02  0.11789913343E+00  0.45020957358E-01  0.12798575073E+00  0.19393810736E-01 0.  0.
         14    1    1    2    0    0  0.87116766564E-02  0.13906627801E-01  0.17214351405E-01  0.23782798432E-01  0.00000000000E+00 0.  1.
     999901    1    3    3    0    0 -0.17494627854E-01 -0.13180576123E+00 -0.62235308764E-01  0.89216145083E+00  0.88000000000E+00 0. -1.
        -11    1    4    4    0    0  0.61105768573E-02  0.37313477106E-01  0.23537937439E-01  0.44541332975E-01  0.51100000000E-03 0. -1.
         11    1    4    4    0    0  0.26723743401E-02  0.80585656321E-01  0.21483019919E-01  0.83444417759E-01  0.51100000000E-03 0.  1.
</event>
<event>
 8    1  0.9956970E+004  0.1043930E+01  0.7957747E-01            NaN
         13   -1    0    0    0    0  0.00000000000E+00  0.00000000000E+00  0.74505805969E-08  0.10566000000E+00  0.10566000000E+00 0. -1.
     999900   -1    0    0    0    0 -0.00000000000E+00 -0.00000000000E+00 -0.74505805969E-08  0.93827000000E+00  0.93827000000E+00 0.  1.
     999902    2    1    2    0    0 -0.14513528342E-01 -0.73945914078E-02  0.18523729849E-01  0.10192631993E+01  0.10189646797E+01 0.  0.
     999903    2    3    3    0    0 -0.29498597407E-01  0.76886115101E-01  0.10032169838E+00  0.13133375539E+00  0.20061659835E-01 0.  0.
         14    1    1    2    0    0  0.14513528342E-01  0.73945914078E-02 -0.18523729849E-01  0.24666800654E-01  0.00000000000E+00 0.  1.
     999901    1    3    3    0    0  0.14985069065E-01 -0.84280706509E-01 -0.81797968530E-01  0.88792944395E+00  0.88000000000E+00 0.  1.
        -11    1    4    4    0    0 -0.15190459150E-02  0.25523454512E-01  0.23111466649E-01  0.34469627825E-01  0.51100000000E-03 0. -1.
         11    1    4    4    0    0 -0.27979551492E-01  0.51362660589E-01  0.77210231730E-01  0.96864127567E-01  0.51100000000E-03 0.  1.
</event>
<event>
 8    1  0.9956970E+004  0.1043930E+01  0.7957747E-01            NaN
         13   -1    0    0    0    0  0.00000000000E+00  0.00000000000E+00  0.74505805969E-08  0.10566000000E+00  0.10566000000E+00 0. -1.
     999900   -1    0    0    0    0 -0.00000000000E+00 -0.00000000000E+00 -0.74505805969E-08  0.93827000000E+00  0.93827000000E+00 0. -1.
     999902    2    1    2    0    0 -0.20100932027E-01  0.75880743923E-02 -0.93593346998E-02  0.10204944824E+01  0.10202253501E+01 0.  0.
     999903    2    3    3    0    0  0.76278549942E-01 -0.69651074488E-01 -0.75421910602E-01  0.12941695789E+00  0.19763477247E-01 0.  0.
         14    1    1    2    0    0  0.20100932027E-01 -0.75880743923E-02  0.93593346998E-02  0.23435517646E-01  0.00000000000E+00 0. -1.
     999901    1    3    3    0    0 -0.96379481968E-01  0.77239148881E-01  0.66062575902E-01  0.89107752446E+00  0.88000000000E+00 0.  1.
        -11    1    4    4    0    0  0.31969420188E-01 -0.21670415023E-01 -0.37799131228E-01  0.54043372925E-01  0.51100000000E-03 0.  1.
         11    1    4    4    0    0  0.44309129753E-01 -0.47980659465E-01 -0.37622779374E-01  0.75373584969E-01  0.51100000000E-03 0. -1.
</event>
<event>
 8    1  0.9956970E+004  0.1043930E+01  0.7957747E-01            NaN
         13   -1    0    0    0    0  0.00000000000E+00  0.00000000000E+00  0.74505805969E-08  0.10566000000E+00  0.10566000000E+00 0. -1.
     999900   -1    0    0    0    0 -0.00000000000E+00 -0.00000000000E+00 -0.74505805969E-08  0.93827000000E+00  0.93827000000E+00 0.  1.
     999902    2    1    2    0    0 -0.34348799937E-02 -0.29517752018E-02  0.22445901050E-01  0.10210317500E+01  0.10207749530E+01 0.  0.
     999903    2    3    3    0    0 -0.18985906056E-01  0.70996971812E-01  0.10942795391E+00  0.13352055061E+00  0.21265599015E-01 0.  0.
         14    1    1    2    0    0  0.34348799937E-02  0.29517752018E-02 -0.22445901050E-01  0.22898249963E-01  0.00000000000E+00 0.  1.
     999901    1    3    3    0    0  0.15551026062E-01 -0.73948747014E-01 -0.86982052862E-01  0.88751119943E+00  0.88000000000E+00 0.  1.
        -11    1    4    4    0    0 -0.75120660757E-02  0.55122154171E-01  0.69335770269E-01  0.88896530736E-01  0.51100000000E-03 0. -1.
         11    1    4    4    0    0 -0.11473839980E-01  0.15874817640E-01  0.40092183643E-01  0.44624019869E-01  0.51100000000E-03 0.  1.
</event>
<event>
 8    1  0.9956970E+004  0.1043930E+01  0.7957747E-01            NaN
         13   -1    0    0    0    0  0.00000000000E+00  0.00000000000E+00  0.74505805969E-08  0.10566000000E+00  0.10566000000E+00 0. -1.
     999900   -1    0    0    0    0 -0.00000000000E+00 -0.00000000000E+00 -0.74505805969E-08  0.93827000000E+00  0.93827000000E+00 0. -1.
     999902    2    1    2    0    0  0.67962463434E-02  0.53134541433E-02  0.26906858037E-01  0.10156740136E+01  0.10152808976E+01 0.  0.
     999903    2    3    3    0    0  0.33854733161E-01 -0.97004619319E-01 -0.67124421696E-01  0.12435867576E+00  0.20083653091E-01 0.  0.
         14    1    1    2    0    0 -0.67962463434E-02 -0.53134541433E-02 -0.26906858037E-01  0.28255986422E-01  0.00000000000E+00 0.  1.
     999901    1    3    3    0    0 -0.27058486818E-01  0.10231807346E+00  0.94031279733E-01  0.89131533782E+00  0.88000000000E+00 0.  1.
        -11    1    4    4    0    0  0.70767267324E-02 -0.44375132207E-01 -0.21975095913E-01  0.50023978061E-01  0.51100000000E-03 0.  1.
         11    1    4    4    0    0  0.26778006429E-01 -0.52629487111E-01 -0.45149325783E-01  0.74334697696E-01  0.51100000000E-03 0. -1.
</event>
<event>
 8    1  0.9956970E+004  0.1043930E+01  0.7957747E-01            NaN
         13   -1    0    0    0    0  0.00000000000E+00  0.00000000000E+00  0.74505805969E-08  0.10566000000E+00  0.10566000000E+00 0. -1.
     999900   -1    0    0    0    0 -0.00000000000E+00 -0.00000000000E+00 -0.74505805969E-08  0.93827000000E+00  0.93827000000E+00 0.  1.
     999902    2    1    2    0    0  0.12150915221E-01 -0.16967799161E-01 -0.10491415723E-01  0.10205714737E+01  0.10203041273E+01 0.  0.
     999903    2    3    3    0    0  0.12867292921E+00 -0.54880865598E-02  0.23170936322E-01  0.13217836388E+00  0.18638288087E-01 0.  0.
         14    1    1    2    0    0 -0.12150915221E-01  0.16967799161E-01  0.10491415723E-01  0.23358526344E-01  0.00000000000E+00 0. -1.
     999901    1    3    3    0    0 -0.11652201399E+00 -0.11479712601E-01 -0.33662352045E-01  0.88839310977E+00  0.88000000000E+00 0. -1.
        -11    1    4    4    0    0  0.48223446228E-01  0.43254091295E-02  0.15152327769E-01  0.50735235173E-01  0.51100000000E-03 0.  1.
         11    1    4    4    0    0  0.80449482984E-01 -0.98134956892E-02  0.80186085529E-02  0.81443128710E-01  0.51100000000E-03 0. -1.
</event>
<event>
 8    1  0.9956970E+004  0.1043930E+01  0.7957747E-01            NaN
         13   -1    0    0    0    0  0.00000000000E+00  0.00000000000E+00  0.74505805969E-08  0.10566000000E+00  0.10566000000E+00 0.  1.
     999900   -1    0    0    0    0 -0.00000000000E+00 -0.00000000000E+00 -0.74505805969E-08  0.93827000000E+00  0.93827000000E+00 0. -1.
     999902    2    1    2    0    0 -0.18772984663E-01 -0.86077174488E-02 -0.12953766070E-01  0.10195513657E+01  0.10192598636E+01 0.  0.
     999903    2    3    3    0    0 -0.72035238221E-01 -0.49961286401E-01 -0.97779550883E-01  0.13290464969E+00  0.20435255170E-01 0.  0.
         14    1    1    2    0    0  0.18772984663E-01  0.86077174488E-02  0.12953766070E-01  0.24378634257E-01  0.00000000000E+00 0.  1.
     999901    1    3    3    0    0  0.53262253558E-01  0.41353568952E-01  0.84825784813E-01  0.88664671605E+00  0.88000000000E+00 0.  1.
        -11    1    4    4    0    0 -0.16887798991E-01 -0.22466223235E-01 -0.35619115538E-01  0.45375229520E-01  0.51100000000E-03 0.  1.
         11    1    4    4    0    0 -0.55147439230E-01 -0.27495063166E-01 -0.62160435345E-01  0.87529420170E-01  0.51100000000E-03 0. -1.
</event>
<event>
 8    1  0.9956970E+004  0.1043930E+01  0.7957747E-01            NaN
         13   -1    0    0    0    0  0.00000000000E+00  0.00000000000E+00  0.74505805969E-08  0.10566000000E+00  0.10566000000E+00 0. -1.
     999900   -1    0    0    0    0 -0.00000000000E+00 -0.00000000000E+00 -0.74505805969E-08  0.93827000000E+00  0.93827000000E+00 0. -1.
     999902    2    1    2    0    0 -0.91739059044E-02  0.21324513587E-01  0.49468750095E-02  0.10201946466E+01  0.10199185016E+01 0.  0.
     999903    2    3    3    0    0  0.28662171600E-01  0.10624127385E+00 -0.70340801414E-01  0.13210081193E+00  0.19851141489E-01 0.  0.
         14    1    1    2    0    0  0.91739059044E-02 -0.21324513587E-01 -0.49468750095E-02  0.23735353413E-01  0.00000000000E+00 0.  1.
     999901    1    3    3    0    0 -0.37836077504E-01 -0.84916760265E-01  0.75287676423E-01  0.88809383466E+00  0.88000000000E+00 0.  1.
        -11    1    4    4    0    0  0.14937692339E-01  0.62296029437E-01 -0.52111142490E-01  0.82581851690E-01  0.51100000000E-03 0. -1.
         11    1    4    4    0    0  0.13724479261E-01  0.43945244416E-01 -0.18229658924E-01  0.49518960240E-01  0.51100000000E-03 0.  1.
</event>
<event>
 8    1  0.9956970E+004  0.1043930E+01  0.7957747E-01            NaN
         13   -1    0    0    0    0  0.00000000000E+00  0.00000000000E+00  0.74505805969E-08  0.10566000000E+00  0.10566000000E+00 0.  1.
     999900   -1    0    0    0    0 -0.00000000000E+00 -0.00000000000E+00 -0.74505805969E-08  0.93827000000E+00  0.93827000000E+00 0.  1.
     999902    2    1    2    0    0 -0.17685465878E-01  0.14901029473E-01 -0.17114061493E-02  0.10207406642E+01  0.10204772209E+01 0.  0.
     999903    2    3    3    0    0  0.52143801994E-01 -0.11225515987E+00  0.27026336550E-01  0.12840066120E+00  0.20883245134E-01 0.  0.
         14    1    1    2    0    0  0.17685465878E-01 -0.14901029473E-01  0.17114061493E-02  0.23189335774E-01  0.00000000000E+00 0.  1.
     999901    1    3    3    0    0 -0.69829267871E-01  0.12715618934E+00 -0.28737742700E-01  0.89234000302E+00  0.88000000000E+00 0.  1.
        -11    1    4    4    0    0  0.22081902264E-01 -0.52169273470E-01  0.19528406169E-02  0.56686137719E-01  0.51100000000E-03 0.  1.
         11    1    4    4    0    0  0.30061899730E-01 -0.60085886395E-01  0.25073495933E-01  0.71714523484E-01  0.51100000000E-03 0. -1.
</event>
<event>
 8    1  0.9956970E+004  0.1043930E+01  0.7957747E-01            NaN
         13   -1    0    0    0    0  0.00000000000E+00  0.00000000000E+00  0.74505805969E-08  0.10566000000E+00  0.10566000000E+00 0. -1.
     999900   -1    0    0    0    0 -0.00000000000E+00 -0.00000000000E+00 -0.74505805969E-08  0.93827000000E+00  0.93827000000E+00 0.  1.
     999902    2    1    2    0    0 -0.58578955752E-02 -0.27746667802E-02  0.22914130581E-01  0.10201167454E+01  0.10198387633E+01 0.  0.
     999903    2    3    3    0    0 -0.72081968235E-01 -0.10764398109E+00 -0.84771339105E-02  0.13086503051E+00  0.16454713627E-01 0.  0.
         14    1    1    2    0    0  0.58578955752E-02  0.27746667802E-02 -0.22914130581E-01  0.23813254641E-01  0.00000000000E+00 0.  1.
     999901    1    3    3    0    0  0.66224072659E-01  0.10486931431E+00  0.31391264492E-01  0.88925171485E+00  0.88000000000E+00 0. -1.
        -11    1    4    4    0    0 -0.31167625145E-01 -0.42257014278E-01  0.42735134637E-02  0.52683964839E-01  0.51100000000E-03 0.  1.
         11    1    4    4    0    0 -0.40914343090E-01 -0.65386966811E-01 -0.12750647374E-01  0.78181065666E-01  0.51100000000E-03 0. -1.
</event>
<event>
 8    1  0.9956970E+004  0.1043930E+01  0.7957747E-01            NaN
         13   -1    0    0    0    0  0.00000000000E+00  0.00000000000E+00  0.74505805969E-08  0.10566000000E+00  0.10566000000E+00 0. -1.
     999900   -1    0    0    0    0 -0.00000000000E+00 -0.00000000000E+00 -0.74505805969E-08  0.93827000000E+00  0.93827000000E+00 0.  1.
     999902    2    1    2    0    0 -0.35108468593E-02  0.23678570071E-01 -0.67332812947E-02  0.10190636009E+01  0.10187601705E+01 0.  0.
     999903    2    3    3    0    0 -0.68896272992E-01  0.95391225852E-01 -0.57072440645E-01  0.13229869977E+00  0.19987498020E-01 0.  0.
         14    1    1    2    0    0  0.35108468593E-02 -0.23678570071E-01  0.67332812947E-02  0.24866399081E-01  0.00000000000E+00 0. -1.
     999901    1    3    3    0    0  0.65385426133E-01 -0.71712655781E-01  0.50339159351E-01  0.88676490115E+00  0.88000000000E+00 0.  1.
        -11    1    4    4    0    0 -0.44770218756E-01  0.51842935804E-01 -0.24252575090E-01  0.72667124614E-01  0.51100000000E-03 0.  1.
         11    1    4    4    0    0 -0.24126054236E-01  0.43548290049E-01 -0.32819865555E-01  0.59631575153E-01  0.51100000000E-03 0. -1.
</event>
<event>
 8    1  0.9956970E+004  0.1043930E+01  0.7957747E-01            NaN
         13   -1    0    0    0    0  0.00000000000E+00  0.00000000000E+00  0.74505805969E-08  0.10566000000E+00  0.10566000000E+00 0. -1.
     999900   -1    0    0    0    0 -0.00000000000E+00 -0.00000000000E+00 -0.74505805969E-08  0.93827000000E+00  0.93827000000E+00 0.  1.
     999902    2    1    2    0    0  0.71451900223E-04 -0.73829317321E-02  0.22679537830E-01  0.10200789157E+01  0.10198000392E+01 0.  0.
     999903    2    3    3    0    0 -0.56750433780E-01  0.96004718673E-01  0.65801917855E-01  0.13115975592E+00  0.20867952443E-01 0.  0.
         14    1    1    2    0    0 -0.71451900223E-04  0.73829317321E-02 -0.22679537830E-01  0.23851084304E-01  0.00000000000E+00 0.  1.
     999901    1    3    3    0    0  0.56821885680E-01 -0.10338765041E+00 -0.43122380025E-01  0.88891915977E+00  0.88000000000E+00 0. -1.
        -11    1    4    4    0    0 -0.38022573669E-01  0.49297478116E-01  0.44420551638E-01  0.76481396338E-01  0.51100000000E-03 0. -1.
         11    1    4    4    0    0 -0.18727860111E-01  0.46707240557E-01  0.21381366217E-01  0.54678359587E-01  0.51100000000E-03 0.  1.
</event>
<event>
 8    1  0.9956970E+004  0.1043930E+01  0.7957747E-01            NaN
         13   -1    0    0    0    0  0.00000000000E+00  0.00000000000E+00  0.74505805969E-08  0.10566000000E+00  0.10566000000E+00 0. -1.
     999900   -1    0    0    0    0 -0.00000000000E+00 -0.00000000000E+00 -0.74505805969E-08  0.93827000000E+00  0.93827000000E+00 0. -1.
     999902    2    1    2    0    0  0.23592315275E-01 -0.12603296881E-01 -0.65258984776E-02  0.10163976956E+01  0.10160247280E+01 0.  0.
     999903    2    3    3    0    0 -0.83209692280E-01  0.86081342525E-01 -0.26681792056E-01  0.12423650678E+00  0.19721591428E-01 0.  0.
         14    1    1    2    0    0 -0.23592315275E-01  0.12603296881E-01  0.65258984776E-02  0.27532304358E-01  0.00000000000E+00 0.  1.
     999901    1    3    3    0    0  0.10680200756E+00 -0.98684639406E-01  0.20155893578E-01  0.89216118887E+00  0.88000000000E+00 0.  1.
        -11    1    4    4    0    0 -0.15326913038E-01  0.19130061173E-01 -0.13485161957E-01  0.27981855152E-01  0.51100000000E-03 0.  1.
         11    1    4    4    0    0 -0.67882779242E-01  0.66951281352E-01 -0.13196630099E-01  0.96254651624E-01  0.51100000000E-03 0. -1.
</event>
<event>
 8    1  0.9956970E+004  0.1043930E+01  0.7957747E-01            NaN
         13   -1    0    0    0    0  0.00000000000E+00  0.00000000000E+00  0.74505805969E-08  0.10566000000E+00  0.10566000000E+00 0. -1.
     999900   -1    0    0    0    0 -0.00000000000E+00 -0.00000000000E+00 -0.74505805969E-08  0.93827000000E+00  0.93827000000E+00 0.  1.
     999902    2    1    2    0    0 -0.90846140298E-02 -0.22092313019E-01  0.73383419455E-03  0.10200314850E+01  0.10197514851E+01 0.  0.
     999903    2    3    3    0    0 -0.63171182388E-01  0.10617511514E+00  0.29731505771E-01  0.12861757723E+00  0.19868703526E-01 0.  0.
         14    1    1    2    0    0  0.90846140298E-02  0.22092313019E-01 -0.73383419455E-03  0.23898515001E-01  0.00000000000E+00 0. -1.
     999901    1    3    3    0    0  0.54086568358E-01 -0.12826742815E+00 -0.28997671576E-01  0.89141390777E+00  0.88000000000E+00 0. -1.
        -11    1    4    4    0    0 -0.55845509158E-01  0.88290378466E-01  0.31724215224E-01  0.10918149466E+00  0.51100000000E-03 0.  1.
         11    1    4    4    0    0 -0.73256732296E-02  0.17884736669E-01 -0.19927094528E-02  0.19436082577E-01  0.51100000000E-03 0. -1.
</event>
<event>
 8    1  0.9956970E+004  0.1043930E+01  0.7957747E-01            NaN
         13   -1    0    0    0    0  0.00000000000E+00  0.00000000000E+00  0.74505805969E-08  0.10566000000E+00  0.10566000000E+00 0. -1.
     999900   -1    0    0    0    0 -0.00000000000E+00 -0.00000000000E+00 -0.74505805969E-08  0.93827000000E+00  0.93827000000E+00 0. -1.
     999902    2    1    2    0    0  0.24112922586E-01 -0.93777446966E-02 -0.35080688474E-02  0.10178209656E+01  0.10174860374E+01 0.  0.
     999903    2    3    3    0    0  0.90995530658E-01 -0.49023930359E-01 -0.78373105011E-01  0.13122642638E+00  0.19862000003E-01 0.  0.
         14    1    1    2    0    0 -0.24112922586E-01  0.93777446966E-02  0.35080688474E-02  0.26109034418E-01  0.00000000000E+00 0.  1.
     999901    1    3    3    0    0 -0.66882608073E-01  0.39646185662E-01  0.74865036164E-01  0.88659453920E+00  0.88000000000E+00 0.  1.
        -11    1    4    4    0    0  0.35138486934E-01 -0.10801765945E-01 -0.35494167573E-01  0.51102724626E-01  0.51100000000E-03 0. -1.
         11    1    4    4    0    0  0.55857043724E-01 -0.38222164414E-01 -0.42878937438E-01  0.80123701755E-01  0.51100000000E-03 0.  1.
</event>
<event>
 8    1  0.9956970E+004  0.1043930E+01  0.7957747E-01            NaN
         13   -1    0    0    0    0  0.00000000000E+00  0.00000000000E+00  0.74505805969E-08  0.10566000000E+00  0.10566000000E+00 0.  1.
     999900   -1    0    0    0    0 -0.00000000000E+00 -0.00000000000E+00 -0.74505805969E-08  0.93827000000E+00  0.93827000000E+00 0.  1.
     999902    2    1    2    0    0 -0.24656332776E-01  0.16329420486E-01  0.10606360326E-01  0.10125121771E+01  0.10120246188E+01 0.  0.
     999903    2    3    3    0    0 -0.21952021702E-01  0.11300892652E+00  0.48196819823E-01  0.12641552159E+00  0.20125653447E-01 0.  0.
         14    1    1    2    0    0  0.24656332776E-01 -0.16329420486E-01 -0.10606360326E-01  0.31417822947E-01  0.00000000000E+00 0. -1.
     999901    1    3    3    0    0 -0.27043110732E-02 -0.96679506034E-01 -0.37590459497E-01  0.88609665547E+00  0.88000000000E+00 0.  1.
        -11    1    4    4    0    0 -0.19097369124E-01  0.89005607030E-01  0.46386844401E-01  0.10216999581E+00  0.51100000000E-03 0.  1.
         11    1    4    4    0    0 -0.28546525781E-02  0.24003319490E-01  0.18099754214E-02  0.24245525771E-01  0.51100000000E-03 0. -1.
</event>
<event>
 8    1  0.9956970E+004  0.1043930E+01  0.7957747E-01            NaN
         13   -1    0    0    0    0  0.00000000000E+00  0.00000000000E+00  0.74505805969E-08  0.10566000000E+00  0.10566000000E+00 0.  1.
     999900   -1    0    0    0    0 -0.00000000000E+00 -0.00000000000E+00 -0.74505805969E-08  0.93827000000E+00  0.93827000000E+00 0. -1.
     999902    2    1    2    0    0  0.57217875150E-02  0.14137397993E-01  0.18009200412E-01  0.10203305048E+01  0.10200575488E+01 0.  0.
     999903    2    3    3    0    0  0.70521190760E-01  0.72701429453E-01  0.84615893288E-01  0.13350179530E+00  0.20103327137E-01 0.  0.
         14    1    1    2    0    0 -0.57217875150E-02 -0.14137397993E-01 -0.18009200412E-01  0.23599495204E-01  0.00000000000E+00 0. -1.
     999901    1    3    3    0    0 -0.64799403245E-01 -0.58564031460E-01 -0.66606692876E-01  0.88682870949E+00  0.88000000000E+00 0. -1.
        -11    1    4    4    0    0  0.33002735319E-01  0.28833376876E-01  0.48688389593E-01  0.65508507560E-01  0.51100000000E-03 0. -1.
         11    1    4    4    0    0  0.37518455441E-01  0.43868052577E-01  0.35927503695E-01  0.67993287745E-01  0.51100000000E-03 0.  1.
</event>
<event>
 8    1  0.9956970E+004  0.1043930E+01  0.7957747E-01            NaN
         13   -1    0    0    0    0  0.00000000000E+00  0.00000000000E+00  0.74505805969E-08  0.10566000000E+00  0.10566000000E+00 0.  1.
     999900   -1    0    0    0    0 -0.00000000000E+00 -0.00000000000E+00 -0.74505805969E-08  0.93827000000E+00  0.93827000000E+00 0.  1.
     999902    2    1    2    0    0 -0.97504408085E-02 -0.17544411132E-01 -0.12222774468E-01  0.10204294963E+01  0.10201588520E+01 0.  0.
     999903    2    3    3    0    0  0.49300417561E-01  0.19848893768E-01 -0.11841419906E+00  0.13129402757E+00  0.19791143984E-01 0.  0.
         14    1    1    2    0    0  0.97504408085E-02  0.17544411132E-01  0.12222774468E-01  0.23500503689E-01  0.00000000000E+00 0.  1.
     999901    1    3    3    0    0 -0.59050858370E-01 -0.37393304900E-01  0.10619142459E+00  0.88913546875E+00  0.88000000000E+00 0. -1.
        -11    1    4    4    0    0  0.20721121923E-01 -0.41308609209E-03 -0.32983856128E-01  0.38958072590E-01  0.51100000000E-03 0. -1.
         11    1    4    4    0    0  0.28579295639E-01  0.20261979860E-01 -0.85430342930E-01  0.92335954976E-01  0.51100000000E-03 0.  1.
</event>
<event>
 8    1  0.9956970E+004  0.1043930E+01  0.7957747E-01            NaN
         13   -1    0    0    0    0  0.00000000000E+00  0.00000000000E+00  0.74505805969E-08  0.10566000000E+00  0.10566000000E+00 0. -1.
     999900   -1    0    0    0    0 -0.00000000000E+00 -0.00000000000E+00 -0.74505805969E-08  0.93827000000E+00  0.93827000000E+00 0.  1.
     999902    2    1    2    0    0  0.56443142347E-02 -0.20082220283E-01 -0.11762526101E-01  0.10199819129E+01  0.10197007364E+01 0.  0.
     999903    2    3    3    0    0 -0.22514303070E-01 -0.58582720062E-01 -0.11542241333E+00  0.13261470120E+00  0.18041522725E-01 0.  0.
         14    1    1    2    0    0 -0.56443142347E-02  0.20082220283E-01  0.11762526101E-01  0.23948087083E-01  0.00000000000E+00 0. -1.
     999901    1    3    3    0    0  0.28158617305E-01  0.38500499779E-01  0.10365988723E+00  0.88736721172E+00  0.88000000000E+00 0. -1.
        -11    1    4    4    0    0 -0.45982839041E-02 -0.30681561046E-01 -0.43683178335E-01  0.53581560200E-01  0.51100000000E-03 0.  1.
         11    1    4    4    0    0 -0.17916019166E-01 -0.27901159016E-01 -0.71739234997E-01  0.79033140999E-01  0.51100000000E-03 0. -1.
</event>
<event>
 8    1  0.9956970E+004  0.1043930E+01  0.7957747E-01            NaN
         13   -1    0    0    0    0  0.00000000000E+00  0.00000000000E+00  0.74505805969E-08  0.10566000000E+00  0.10566000000E+00 0. -1.
     999900   -1    0    0    0    0 -0.00000000000E+00 -0.00000000000E+00 -0.74505805969E-08  0.93827000000E+00  0.93827000000E+00 0.  1.
     999902    2    1    2    0    0  0.22039553560E-01  0.17170281855E-01  0.41103293535E-02  0.10156907488E+01  0.10152981050E+01 0.  0.
     999903    2    3    3    0    0  0.94135558855E-01  0.87219981614E-01  0.11426626573E-02  0.12996302459E+00  0.20500084115E-01 0.  0.
         14    1    1    2    0    0 -0.22039553560E-01 -0.17170281855E-01 -0.41103293535E-02  0.28239251185E-01  0.00000000000E+00 0.  1.
     999901    1    3    3    0    0 -0.72096005295E-01 -0.70049699759E-01  0.29676666962E-02  0.88572772423E+00  0.88000000000E+00 0. -1.
        -11    1    4    4    0    0  0.60955904519E-01  0.49930935795E-01  0.94449607855E-02  0.79361130602E-01  0.51100000000E-03 0. -1.
         11    1    4    4    0    0  0.33179654336E-01  0.37289045819E-01 -0.83022981282E-02  0.50601893988E-01  0.51100000000E-03 0.  1.
</event>
<event>
 8    1  0.9956970E+004  0.1043930E+01  0.7957747E-01            NaN
         13   -1    0    0    0    0  0.00000000000E+00  0.00000000000E+00  0.74505805969E-08  0.10566000000E+00  0.10566000000E+00 0.  1.
     999900   -1    0    0    0    0 -0.00000000000E+00 -0.00000000000E+00 -0.74505805969E-08  0.93827000000E+00  0.93827000000E+00 0. -1.
     999902    2    1    2    0    0  0.18953001703E-01  0.11141274215E-01  0.54585990844E-02  0.10212773938E+01  0.10210261380E+01 0.  0.
     999903    2    3    3    0    0  0.13172893867E+00  0.94901023871E-02 -0.11770502218E-01  0.13391164040E+00  0.18740527900E-01 0.  0.
         14    1    1    2    0    0 -0.18953001703E-01 -0.11141274215E-01 -0.54585990844E-02  0.22652606222E-01  0.00000000000E+00 0. -1.
     999901    1    3    3    0    0 -0.11277593697E+00  0.16511718282E-02  0.17229101303E-01  0.88736575337E+00  0.88000000000E+00 0.  1.
        -11    1    4    4    0    0  0.61575412546E-01  0.60480151649E-02 -0.14753808543E-01  0.63608536418E-01  0.51100000000E-03 0.  1.
         11    1    4    4    0    0  0.70153526128E-01  0.34420872221E-02  0.29833063249E-02  0.70303103987E-01  0.51100000000E-03 0. -1.
</event>
<event>
 8    1  0.9956970E+004  0.1043930E+01  0.7957747E-01            NaN
         13   -1    0    0    0    0  0.00000000000E+00  0.00000000000E+00  0.74505805969E-08  0.10566000000E+00  0.10566000000E+00 0. -1.
     999900   -1    0    0    0    0 -0.00000000000E+00 -0.00000000000E+00 -0.74505805969E-08  0.93827000000E+00  0.93827000000E+00 0.  1.
     999902    2    1    2    0    0 -0.27128390318E-02 -0.21097366171E-02  0.26104831722E-01  0.10175999274E+01  0.10172592293E+01 0.  0.
     999903    2    3    3    0    0 -0.65832226802E-01 -0.55000533804E-01 -0.90428805732E-01  0.12610591048E+00  0.19141341295E-01 0.  0.
         14    1    1    2    0    0  0.27128390318E-02  0.21097366171E-02 -0.26104831722E-01  0.26330072607E-01  0.00000000000E+00 0.  1.
     999901    1    3    3    0    0  0.63119387771E-01  0.52890797186E-01  0.11653363745E+00  0.89149401692E+00  0.88000000000E+00 0. -1.
        -11    1    4    4    0    0 -0.24461118465E-01 -0.12601548001E-01 -0.38513392212E-01  0.47335904230E-01  0.51100000000E-03 0. -1.
         11    1    4    4    0    0 -0.41371108337E-01 -0.42398985803E-01 -0.51915413520E-01  0.78770006247E-01  0.51100000000E-03 0.  1.
</event>
<event>
 8    1  0.9956970E+004  0.1043930E+01  0.7957747E-01            NaN
         13   -1    0    0    0    0  0.00000000000E+00  0.00000000000E+00  0.74505805969E-08  0.10566000000E+00  0.10566000000E+00 0.  1.
     999900   -1    0    0    0    0 -0.00000000000E+00 -0.00000000000E+00 -0.74505805969E-08  0.93827000000E+00  0.93827000000E+00 0.  1.
     999902    2    1    2    0    0 -0.15956942680E-01 -0.84872632165E-02 -0.14650008931E-01  0.10206645660E+01  0.10203993708E+01 0.  0.
     999903    2    3    3    0    0 -0.38736394331E-01  0.18603741023E-01 -0.12443256427E+00  0.13313708172E+00  0.19884970539E-01 0.  0.
         14    1    1    2    0    0  0.15956942680E-01  0.84872632165E-02  0.14650008931E-01  0.23265433980E-01  0.00000000000E+00 0.  1.
     999901    1    3    3    0    0  0.22779451651E-01 -0.27091004239E-01  0.10978255534E+00  0.88752748430E+00  0.88000000000E+00 0. -1.
        -11    1    4    4    0    0 -0.87407832854E-02  0.53350368346E-02 -0.59628698551E-01  0.60503774447E-01  0.51100000000E-03 0.  1.
         11    1    4    4    0    0 -0.29995611045E-01  0.13268704188E-01 -0.64803865717E-01  0.72633307275E-01  0.51100000000E-03 0. -1.
</event>
<event>
 8    1  0.9956970E+004  0.1043930E+01  0.7957747E-01            NaN
         13   -1    0    0    0    0  0.00000000000E+00  0.00000000000E+00  0.74505805969E-08  0.10566000000E+00  0.10566000000E+00 0. -1.
     999900   -1    0    0    0    0 -0.00000000000E+00 -0.00000000000E+00 -0.74505805969E-08  0.93827000000E+00  0.93827000000E+00 0.  1.
     999902    2    1    2    0    0  0.22038798281E-01  0.78165355037E-03  0.12524546265E-01  0.10185689300E+01  0.10182531519E+01 0.  0.
     999903    2    3    3    0    0 -0.40342599580E-01 -0.13217648582E-01  0.12083263730E+00  0.12962682737E+00  0.20008912099E-01 0.  0.
         14    1    1    2    0    0 -0.22038798281E-01 -0.78165355037E-03 -0.12524546265E-01  0.25361069991E-01  0.00000000000E+00 0.  1.
     999901    1    3    3    0    0  0.62381397861E-01  0.13999302132E-01 -0.10830809103E+00  0.88894210264E+00  0.88000000000E+00 0.  1.
        -11    1    4    4    0    0 -0.56213498646E-02 -0.13250549519E-02  0.45066632030E-01  0.45438065413E-01  0.51100000000E-03 0. -1.
         11    1    4    4    0    0 -0.34721249716E-01 -0.11892593630E-01  0.75766005266E-01  0.84188761959E-01  0.51100000000E-03 0.  1.
</event>
<event>
 8    1  0.9956970E+004  0.1043930E+01  0.7957747E-01            NaN
         13   -1    0    0    0    0  0.00000000000E+00  0.00000000000E+00  0.74505805969E-08  0.10566000000E+00  0.10566000000E+00 0.  1.
     999900   -1    0    0    0    0 -0.00000000000E+00 -0.00000000000E+00 -0.74505805969E-08  0.93827000000E+00  0.93827000000E+00 0. -1.
     999902    2    1    2    0    0  0.10135298299E-01 -0.12209881116E-01  0.16397156861E-01  0.10211117568E+01  0.10208567714E+01 0.  0.
     999903    2    3    3    0    0  0.62081647078E-01  0.88590556568E-01 -0.68732415019E-01  0.12976098670E+00  0.20281794270E-01 0.  0.
         14    1    1    2    0    0 -0.10135298299E-01  0.12209881116E-01 -0.16397156861E-01  0.22818243175E-01  0.00000000000E+00 0. -1.
     999901    1    3    3    0    0 -0.51946348779E-01 -0.10080043768E+00  0.85129571880E-01  0.89135077012E+00  0.88000000000E+00 0.  1.
        -11    1    4    4    0    0  0.35857884434E-01  0.37507873328E-01 -0.25116427028E-01  0.57651751625E-01  0.51100000000E-03 0.  1.
         11    1    4    4    0    0  0.26223762644E-01  0.51082683240E-01 -0.43615987991E-01  0.72109235078E-01  0.51100000000E-03 0. -1.
</event>
<event>
 8    1  0.9956970E+004  0.1043930E+01  0.7957747E-01            NaN
         13   -1    0    0    0    0  0.00000000000E+00  0.00000000000E+00  0.74505805969E-08  0.10566000000E+00  0.10566000000E+00 0. -1.
     999900   -1    0    0    0    0 -0.00000000000E+00 -0.00000000000E+00 -0.74505805969E-08  0.93827000000E+00  0.93827000000E+00 0.  1.
     999902    2    1    2    0    0 -0.74705000088E-02 -0.15796248014E-01  0.16965064373E-01  0.10195754680E+01  0.10192845489E+01 0.  0.
     999903    2    3    3    0    0  0.94364944711E-01 -0.29498344355E-01 -0.79388214973E-01  0.12837282003E+00  0.20054853144E-01 0.  0.
         14    1    1    2    0    0  0.74705000088E-02  0.15796248014E-01 -0.16965064373E-01  0.24354532040E-01  0.00000000000E+00 0.  1.
     999901    1    3    3    0    0 -0.10183544472E+00  0.13702096340E-01  0.96353279346E-01  0.89120264793E+00  0.88000000000E+00 0. -1.
        -11    1    4    4    0    0  0.74010220924E-01 -0.20815521512E-01 -0.50525304487E-01  0.91999273103E-01  0.51100000000E-03 0.  1.
         11    1    4    4    0    0  0.20354723787E-01 -0.86828228428E-02 -0.28862910486E-01  0.36373546922E-01  0.51100000000E-03 0. -1.
</event>
<event>
 8    1  0.9956970E+004  0.1043930E+01  0.7957747E-01            NaN
         13   -1    0    0    0    0  0.00000000000E+00  0.00000000000E+00  0.74505805969E-08  0.10566000000E+00  0.10566000000E+00 0. -1.
     999900   -1    0    0    0    0 -0.00000000000E+00 -0.00000000000E+00 -0.74505805969E-08  0.93827000000E+00  0.93827000000E+00 0. -1.
     999902    2    1    2    0    0  0.20184444473E-01 -0.81533949021E-02  0.12487949904E-01  0.10188334158E+01  0.10185242710E+01 0.  0.
     999903    2    3    3    0    0  0.31003622093E-01 -0.11743066939E+00  0.45798443657E-01  0.13138304177E+00  0.20317960685E-01 0.  0.
         14    1    1    2    0    0 -0.20184444473E-01  0.81533949021E-02 -0.12487949904E-01  0.25096584229E-01  0.00000000000E+00 0.  1.
     999901    1    3    3    0    0 -0.10819177619E-01  0.10927727449E+00 -0.33310493752E-01  0.88745037400E+00  0.88000000000E+00 0. -1.
        -11    1    4    4    0    0  0.18406894329E-01 -0.54926740743E-01  0.11793194898E-01  0.59119380701E-01  0.51100000000E-03 0. -1.
         11    1    4    4    0    0  0.12596727763E-01 -0.62503928648E-01  0.34005248758E-01  0.72263661068E-01  0.51100000000E-03 0.  1.
</event>
<event>
 8    1  0.9956970E+004  0.1043930E+01  0.7957747E-01            NaN
         13   -1    0    0    0    0  0.00000000000E+00  0.00000000000E+00  0.74505805969E-08  0.10566000000E+00  0.10566000000E+00 0.  1.
     999900   -1    0    0    0    0 -0.00000000000E+00 -0.00000000000E+00 -0.74505805969E-08  0.93827000000E+00  0.93827000000E+00 0. -1.
     999902    2    1    2    0    0  0.18542220073E-01 -0.13350525555E-01 -0.80501609075E-02  0.10197048984E+01  0.10194171002E+01 0.  0.
     999903    2    3    3    0    0  0.24729196182E-01  0.20048031924E-01 -0.12591795367E+00  0.13119684615E+00  0.18542509385E-01 0.  0.
         14    1    1    2    0    0 -0.18542220073E-01  0.13350525555E-01  0.80501609075E-02  0.24225101620E-01  0.00000000000E+00 0. -1.
     999901    1    3    3    0    0 -0.61869761081E-02 -0.33398557479E-01  0.11786779276E+00  0.88850805223E+00  0.88000000000E+00 0.  1.
        -11    1    4    4    0    0 -0.11940285384E-02  0.79585072326E-02 -0.22797568426E-01  0.24181682916E-01  0.51100000000E-03 0. -1.
         11    1    4    4    0    0  0.25923224720E-01  0.12089524691E-01 -0.10312038524E+00  0.10701516323E+00  0.51100000000E-03 0.  1.
</event>
<event>
 8    1  0.9956970E+004  0.1043930E+01  0.7957747E-01            NaN
         13   -1    0    0    0    0  0.00000000000E+00  0.00000000000E+00  0.74505805969E-08  0.10566000000E+00  0.10566000000E+00 0.  1.
     999900   -1    0    0    0    0 -0.00000000000E+00 -0.00000000000E+00 -0.74505805969E-08  0.93827000000E+00  0.93827000000E+00 0.  1.
     999902    2    1    2    0    0 -0.22324947869E-01 -0.45861436313E-02 -0.55539690486E-02  0.10204718973E+01  0.10202022400E+01 0.  0.
     999903    2    3    3    0    0 -0.11451569571E+00 -0.65760356919E-01 -0.28038755543E-02  0.13353955411E+00  0.19664223571E-01 0.  0.
         14    1    1    2    0    0  0.22324947869E-01  0.45861436313E-02  0.55539690486E-02  0.23458102714E-01  0.00000000000E+00 0.  1.
     999901    1    3    3    0    0  0.92190747836E-01  0.61174213288E-01 -0.27500934943E-02  0.88693234318E+00  0.88000000000E+00 0.  1.
        -11    1    4    4    0    0 -0.52148874361E-01 -0.38109100691E-01 -0.81647556526E-02  0.65105552824E-01  0.51100000000E-03 0. -1.
         11    1    4    4    0    0 -0.62366821344E-01 -0.27651256228E-01  0.53608800983E-02  0.68434001285E-01  0.51100000000E-03 0.  1.
</event>
<event>
 8    1  0.9956970E+004  0.1043930E+01  0.7957747E-01            NaN
         13   -1    0    0    0    0  0.00000000000E+00  0.00000000000E+00  0.74505805969E-08  0.10566000000E+00  0.10566000000E+00 0.  1.
     999900   -1    0    0    0    0 -0.00000000000E+00 -0.00000000000E+00 -0.74505805969E-08  0.93827000000E+00  0.93827000000E+00 0.  1.
     999902    2    1    2    0    0 -0.19857272904E-01 -0.82739397987E-02 -0.76748384173E-02  0.10210898487E+01  0.10208343679E+01 0.  0.
     999903    2    3    3    0    0  0.11845861022E-01 -0.12899187096E+00  0.15100268840E-01  0.13199108415E+00  0.20356841084E-01 0.  0.
         14    1    1    2    0    0  0.19857272904E-01  0.82739397987E-02  0.76748384173E-02  0.22840151307E-01  0.00000000000E+00 0.  1.
     999901    1    3    3    0    0 -0.31703133926E-01  0.12071793116E+00 -0.22775107257E-01  0.88909876454E+00  0.88000000000E+00 0.  1.
        -11    1    4    4    0    0  0.71317383218E-02 -0.93894184804E-01  0.19914650873E-01  0.96248813353E-01  0.51100000000E-03 0.  1.
         11    1    4    4    0    0  0.47141227003E-02 -0.35097686155E-01 -0.48143820334E-02  0.35742270796E-01  0.51100000000E-03 0. -1.
</event>
<event>
 8    1  0.9956970E+004  0.1043930E+01  0.7957747E-01            NaN
         13   -1    0    0    0    0  0.00000000000E+00  0.00000000000E+00  0.74505805969E-08  0.10566000000E+00  0.10566000000E+00 0. -1.
     999900   -1    0    0    0    0 -0.00000000000E+00 -0.00000000000E+00 -0.74505805969E-08  0.93827000000E+00  0.93827000000E+00 0. -1.
     999902    2    1    2    0    0  0.16189443160E-03  0.12066104234E-01 -0.17730478717E-01  0.10224826935E+01  0.10222577324E+01 0.  0.
     999903    2    3    3    0    0 -0.11802374960E+00  0.57781549638E-01  0.66776508047E-02  0.13307080623E+00  0.19872984239E-01 0.  0.
         14    1    1    2    0    0 -0.16189443160E-03 -0.12066104234E-01  0.17730478717E-01  0.21447306515E-01  0.00000000000E+00 0. -1.
     999901    1    3    3    0    0  0.11818564403E+00 -0.45715445403E-01 -0.24408129522E-01  0.88941188725E+00  0.88000000000E+00 0.  1.
        -11    1    4    4    0    0 -0.27593989582E-01  0.17997755546E-01 -0.59172654943E-02  0.33475701899E-01  0.51100000000E-03 0.  1.
         11    1    4    4    0    0 -0.90429760017E-01  0.39783794092E-01  0.12594916299E-01  0.99595104331E-01  0.51100000000E-03 0. -1.
</event>
<event>
 8    1  0.9956970E+004  0.1043930E+01  0.7957747E-01            NaN
         13   -1    0    0    0    0  0.00000000000E+00  0.00000000000E+00  0.74505805969E-08  0.10566000000E+00  0.10566000000E+00 0. -1.
     999900   -1    0    0    0    0 -0.00000000000E+00 -0.00000000000E+00 -0.74505805969E-08  0.93827000000E+00  0.93827000000E+00 0. -1.
     999902    2    1    2    0    0  0.97462415278E-02 -0.20597469463E-01 -0.51035558320E-02  0.10205785278E+01  0.10203113447E+01 0.  0.
     999903    2    3    3    0    0  0.42824319877E-01  0.79868869625E-01 -0.91084488000E-01  0.13008407792E+00  0.20310703222E-01 0.  0.
         14    1    1    2    0    0 -0.97462415278E-02  0.20597469463E-01  0.51035558320E-02  0.23351472209E-01  0.00000000000E+00 0.  1.
     999901    1    3    3    0    0 -0.33078078349E-01 -0.10046633909E+00  0.85980932169E-01  0.89049444987E+00  0.88000000000E+00 0. -1.
        -11    1    4    4    0    0  0.34298916547E-01  0.43008552613E-01 -0.52515653414E-01  0.76054626740E-01  0.51100000000E-03 0.  1.
         11    1    4    4    0    0  0.85254033300E-02  0.36860317012E-01 -0.38568834587E-01  0.54029451178E-01  0.51100000000E-03 0. -1.
</event>
<event>
 8    1  0.9956970E+004  0.1043930E+01  0.7957747E-01            NaN
         13   -1    0    0    0    0  0.00000000000E+00  0.00000000000E+00  0.74505805969E-08  0.10566000000E+00  0.10566000000E+00 0.  1.
     999900   -1    0    0    0    0 -0.00000000000E+00 -0.00000000000E+00 -0.74505805969E-08  0.93827000000E+00  0.93827000000E+00 0. -1.
     999902    2    1    2    0    0  0.17749010896E-01  0.63498055566E-03  0.15426523143E-01  0.10204053703E+01  0.10201341635E+01 0.  0.
     999903    2    3    3    0    0 -0.90022476143E-01 -0.81265896395E-01  0.41271304169E-01  0.12968072158E+00  0.20138939233E-01 0.  0.
         14    1    1    2    0    0 -0.17749010896E-01 -0.63498055566E-03 -0.15426523143E-01  0.23524629739E-01  0.00000000000E+00 0. -1.
     999901    1    3    3    0    0  0.10777148704E+00  0.81900876951E-01 -0.25844781026E-01  0.89072464868E+00  0.88000000000E+00 0. -1.
        -11    1    4    4    0    0 -0.22286212048E-01 -0.23525441861E-01  0.22281241989E-02  0.32486109656E-01  0.51100000000E-03 0.  1.
         11    1    4    4    0    0 -0.67736264095E-01 -0.57740454535E-01  0.39043179970E-01  0.97194611922E-01  0.51100000000E-03 0. -1.
</event>
<event>
 8    1  0.9956970E+004  0.1043930E+01  0.7957747E-01            NaN
         13   -1    0    0    0    0  0.00000000000E+00  0.00000000000E+00  0.74505805969E-08  0.10566000000E+00  0.10566000000E+00 0.  1.
     999900   -1    0    0    0    0 -0.00000000000E+00 -0.00000000000E+00 -0.74505805969E-08  0.93827000000E+00  0.93827000000E+00 0.  1.
     999902    2    1    2    0    0 -0.15754434184E-01 -0.10126283841E-01 -0.14757757442E-01  0.10200860233E+01  0.10198073150E+01 0.  0.
     999903    2    3    3    0    0 -0.92056134901E-01 -0.68278189984E-01 -0.64207045894E-01  0.13349207685E+00  0.23692755007E-01 0.  0.
         14    1    1    2    0    0  0.15754434184E-01  0.10126283841E-01  0.14757757442E-01  0.23843976715E-01  0.00000000000E+00 0. -1.
     999901    1    3    3    0    0  0.76301700718E-01  0.58151906143E-01  0.49449288452E-01  0.88659394643E+00  0.88000000000E+00 0.  1.
        -11    1    4    4    0    0 -0.61619008629E-01 -0.31495463083E-01 -0.40522010222E-01  0.80194518844E-01  0.51100000000E-03 0.  1.
         11    1    4    4    0    0 -0.30437126273E-01 -0.36782726901E-01 -0.23685035671E-01  0.53297558009E-01  0.51100000000E-03 0. -1.
</event>
<event>
 8    1  0.1134128E+005  0.1043930E+01  0.7957747E-01            NaN
         13   -1    0    0    0    0  0.00000000000E+00  0.00000000000E+00  0.74505805969E-08  0.10566000000E+00  0.10566000000E+00 0.  1.
     999900   -1    0    0    0    0 -0.00000000000E+00 -0.00000000000E+00 -0.74505805969E-08  0.93827000000E+00  0.93827000000E+00 0. -1.
     999902    2    1    2    0    0  0.23415948993E-01 -0.33748081745E-02  0.38308119491E-02  0.10199639591E+01  0.10196823558E+01 0.  0.
     999903    2    3    3    0    0 -0.12182222212E+00 -0.30621618420E-01  0.98061650675E-02  0.12762309379E+00  0.20326236210E-01 0.  0.
         14    1    1    2    0    0 -0.23415948993E-01  0.33748081745E-02 -0.38308119491E-02  0.23966040926E-01  0.00000000000E+00 0. -1.
     999901    1    3    3    0    0  0.14523817111E+00  0.27246810245E-01 -0.59753531184E-02  0.89234086529E+00  0.88000000000E+00 0. -1.
        -11    1    4    4    0    0 -0.54428248935E-01 -0.39389817521E-02  0.76389906606E-02  0.55105037507E-01  0.51100000000E-03 0. -1.
         11    1    4    4    0    0 -0.67393973182E-01 -0.26682636667E-01  0.21671744068E-02  0.72518056280E-01  0.51100000000E-03 0.  1.
</event>
<event>
 8    1  0.9956970E+004  0.1043930E+01  0.7957747E-01            NaN
         13   -1    0    0    0    0  0.00000000000E+00  0.00000000000E+00  0.74505805969E-08  0.10566000000E+00  0.10566000000E+00 0.  1.
     999900   -1    0    0    0    0 -0.00000000000E+00 -0.00000000000E+00 -0.74505805969E-08  0.93827000000E+00  0.93827000000E+00 0.  1.
     999902    2    1    2    0    0 -0.45622601839E-03  0.19795350508E-01 -0.13244472338E-01  0.10201081594E+01  0.10198299744E+01 0.  0.
     999903    2    3    3    0    0 -0.59281457014E-01  0.71598772856E-01  0.89722310507E-01  0.13064418553E+00  0.19419958568E-01 0.  0.
         14    1    1    2    0    0  0.45622601839E-03 -0.19795350508E-01  0.13244472338E-01  0.23821840639E-01  0.00000000000E+00 0.  1.
     999901    1    3    3    0    0  0.58825230996E-01 -0.51803422348E-01 -0.10296678284E+00  0.88946397383E+00  0.88000000000E+00 0.  1.
        -11    1    4    4    0    0 -0.29307105748E-01  0.24502779234E-01  0.27655214447E-01  0.47163170426E-01  0.51100000000E-03 0.  1.
         11    1    4    4    0    0 -0.29974351266E-01  0.47095993622E-01  0.62067096060E-01  0.83481015108E-01  0.51100000000E-03 0. -1.
</event>
<event>
 8    1  0.9956970E+004  0.1043930E+01  0.7957747E-01            NaN
         13   -1    0    0    0    0  0.00000000000E+00  0.00000000000E+00  0.74505805969E-08  0.10566000000E+00  0.10566000000E+00 0. -1.
     999900   -1    0    0    0    0 -0.00000000000E+00 -0.00000000000E+00 -0.74505805969E-08  0.93827000000E+00  0.93827000000E+00 0. -1.
     999902    2    1    2    0    0  0.42228355186E-03 -0.23396735380E-01  0.56506685684E-02  0.10198568696E+01  0.10195727139E+01 0.  0.
     999903    2    3    3    0    0  0.12462106333E+00 -0.35102003339E-01  0.12046347891E-02  0.13104748771E+00  0.20234446561E-01 0.  0.
         14    1    1    2    0    0 -0.42228355186E-03  0.23396735380E-01 -0.56506685684E-02  0.24073130356E-01  0.00000000000E+00 0.  1.
     999901    1    3    3    0    0 -0.12419877977E+00  0.11705267959E-01  0.44460337794E-02  0.88880938193E+00  0.88000000000E+00 0. -1.
        -11    1    4    4    0    0  0.54664302460E-01 -0.17425982327E-01  0.10383451453E-01  0.58308901624E-01  0.51100000000E-03 0.  1.
         11    1    4    4    0    0  0.69956760866E-01 -0.17676021012E-01 -0.91788166641E-02  0.72738586088E-01  0.51100000000E-03 0. -1.
</event>
<event>
 8    1  0.9956970E+004  0.1043930E+01  0.7957747E-01            NaN
         13   -1    0    0    0    0  0.00000000000E+00  0.00000000000E+00  0.74505805969E-08  0.10566000000E+00  0.10566000000E+00 0. -1.
     999900   -1    0    0    0    0 -0.00000000000E+00 -0.00000000000E+00 -0.74505805969E-08  0.93827000000E+00  0.93827000000E+00 0. -1.
     999902    2    1    2    0    0  0.14708543436E-01 -0.47731091272E-02  0.19474522022E-01  0.10190627358E+01  0.10187592840E+01 0.  0.
     999903    2    3    3    0    0 -0.84174506788E-01 -0.17933209983E-01  0.95536344362E-01  0.13016654012E+00  0.20228382531E-01 0.  0.
         14    1    1    2    0    0 -0.14708543436E-01  0.47731091272E-02 -0.19474522022E-01  0.24867264199E-01  0.00000000000E+00 0.  1.
     999901    1    3    3    0    0  0.98883050224E-01  0.13160100856E-01 -0.76061822340E-01  0.88889619568E+00  0.88000000000E+00 0. -1.
        -11    1    4    4    0    0 -0.19519498968E-01 -0.66839271885E-02  0.36306990465E-01  0.41762954880E-01  0.51100000000E-03 0. -1.
         11    1    4    4    0    0 -0.64655007820E-01 -0.11249282794E-01  0.59229353897E-01  0.88403585242E-01  0.51100000000E-03 0.  1.
</event>
<event>
 8    1  0.9956970E+004  0.1043930E+01  0.7957747E-01            NaN
         13   -1    0    0    0    0  0.00000000000E+00  0.00000000000E+00  0.74505805969E-08  0.10566000000E+00  0.10566000000E+00 0. -1.
     999900   -1    0    0    0    0 -0.00000000000E+00 -0.00000000000E+00 -0.74505805969E-08  0.93827000000E+00  0.93827000000E+00 0.  1.
     999902    2    1    2    0    0 -0.22085384990E-01 -0.61562951454E-02  0.43511587915E-02  0.10205934025E+01  0.10203265636E+01 0.  0.
     999903    2    3    3    0    0 -0.69480702524E-01 -0.47096175317E-01  0.10126145275E+00  0.13306087071E+00  0.20141890394E-01 0.  0.
         14    1    1    2    0    0  0.22085384990E-01  0.61562951454E-02 -0.43511587915E-02  0.23336597500E-01  0.00000000000E+00 0.  1.
     999901    1    3    3    0    0  0.47395317535E-01  0.40939880172E-01 -0.96910293955E-01  0.88753253179E+00  0.88000000000E+00 0.  1.
        -11    1    4    4    0    0 -0.46620664211E-01 -0.29908132964E-01  0.51342629594E-01  0.75526879212E-01  0.51100000000E-03 0.  1.
         11    1    4    4    0    0 -0.22860038313E-01 -0.17188042353E-01  0.49918823153E-01  0.57533991497E-01  0.51100000000E-03 0. -1.
</event>
<event>
 8    1  0.9956970E+004  0.1043930E+01  0.7957747E-01            NaN
         13   -1    0    0    0    0  0.00000000000E+00  0.00000000000E+00  0.74505805969E-08  0.10566000000E+00  0.10566000000E+00 0.  1.
     999900   -1    0    0    0    0 -0.00000000000E+00 -0.00000000000E+00 -0.74505805969E-08  0.93827000000E+00  0.93827000000E+00 0. -1.
     999902    2    1    2    0    0  0.17798544511E-01 -0.14389759447E-02  0.13694859995E-01  0.10214264885E+01  0.10211785659E+01 0.  0.
     999903    2    3    3    0    0  0.56973221543E-01  0.22711198069E-01  0.11755881369E+00  0.13412405581E+00  0.20185172287E-01 0.  0.
         14    1    1    2    0    0 -0.17798544511E-01  0.14389759447E-02 -0.13694859995E-01  0.22503511476E-01  0.00000000000E+00 0. -1.
     999901    1    3    3    0    0 -0.39174677033E-01 -0.24150174014E-01 -0.10386395369E+00  0.88730243272E+00  0.88000000000E+00 0. -1.
        -11    1    4    4    0    0  0.32211300495E-01  0.22076777746E-01  0.81501682495E-01  0.90375535217E-01  0.51100000000E-03 0. -1.
         11    1    4    4    0    0  0.24761921049E-01  0.63442032305E-03  0.36057131193E-01  0.43748520592E-01  0.51100000000E-03 0.  1.
</event>
<event>
 8    1  0.9956970E+004  0.1043930E+01  0.7957747E-01            NaN
         13   -1    0    0    0    0  0.00000000000E+00  0.00000000000E+00  0.74505805969E-08  0.10566000000E+00  0.10566000000E+00 0.  1.
     999900   -1    0    0    0    0 -0.00000000000E+00 -0.00000000000E+00 -0.74505805969E-08  0.93827000000E+00  0.93827000000E+00 0. -1.
     999902    2    1    2    0    0  0.19671567253E-01  0.58915254830E-02 -0.12249148363E-01  0.10200192855E+01  0.10197389963E+01 0.  0.
     999903    2    3    3    0    0  0.37187138935E-01 -0.30479379653E-01 -0.12177524095E+00  0.13231122375E+00  0.19109545690E-01 0.  0.
         14    1    1    2    0    0 -0.19671567253E-01 -0.58915254830E-02  0.12249148363E-01  0.23910714467E-01  0.00000000000E+00 0. -1.
     999901    1    3    3    0    0 -0.17515571681E-01  0.36370905136E-01  0.10952609259E+00  0.88770806178E+00  0.88000000000E+00 0.  1.
        -11    1    4    4    0    0  0.31751461431E-01 -0.24808294811E-01 -0.77591916251E-01  0.87432107277E-01  0.51100000000E-03 0.  1.
         11    1    4    4    0    0  0.54356775036E-02 -0.56710848421E-02 -0.44183324699E-01  0.44879116476E-01  0.51100000000E-03 0. -1.
</event>
<event>
 8    1  0.9956970E+004  0.1043930E+01  0.7957747E-01            NaN
         13   -1    0    0    0    0  0.00000000000E+00  0.00000000000E+00  0.74505805969E-08  0.10566000000E+00  0.10566000000E+00 0.  1.
     999900   -1    0    0    0    0 -0.00000000000E+00 -0.00000000000E+00 -0.74505805969E-08  0.93827000000E+00  0.93827000000E+00 0. -1.
     999902    2    1    2    0    0 -0.76489948267E-02 -0.21423998683E-01 -0.83495181501E-02  0.10196975982E+01  0.10194096245E+01 0.  0.
     999903    2    3    3    0    0 -0.10453784613E+00 -0.54249582114E-01  0.56181333949E-01  0.13142444245E+00  0.15648110271E-01 0.  0.
         14    1    1    2    0    0  0.76489948267E-02  0.21423998683E-01  0.83495181501E-02  0.24232401754E-01  0.00000000000E+00 0.  1.
     999901    1    3    3    0    0  0.96888851307E-01  0.32825583431E-01 -0.64530852099E-01  0.88827315580E+00  0.88000000000E+00 0. -1.
        -11    1    4    4    0    0 -0.29745672448E-01 -0.80081581621E-02  0.16539170505E-01  0.34967712372E-01  0.51100000000E-03 0. -1.
         11    1    4    4    0    0 -0.74792173686E-01 -0.46241423952E-01  0.39642163444E-01  0.96456730078E-01  0.51100000000E-03 0.  1.
</event>
<event>
 8    1  0.9956970E+004  0.1043930E+01  0.7957747E-01            NaN
         13   -1    0    0    0    0  0.00000000000E+00  0.00000000000E+00  0.74505805969E-08  0.10566000000E+00  0.10566000000E+00 0. -1.
     999900   -1    0    0    0    0 -0.00000000000E+00 -0.00000000000E+00 -0.74505805969E-08  0.93827000000E+00  0.93827000000E+00 0. -1.
     999902    2    1    2    0    0  0.54402650350E-03  0.50058028686E-02  0.23764724184E-01  0.10196376938E+01  0.10193482773E+01 0.  0.
     999903    2    3    3    0    0 -0.10029867498E+00  0.14739230979E-02 -0.75914412457E-01  0.12828049549E+00  0.25117540751E-01 0.  0.
         14    1    1    2    0    0 -0.54402650350E-03 -0.50058028686E-02 -0.23764724184E-01  0.24292306246E-01  0.00000000000E+00 0.  1.
     999901    1    3    3    0    0  0.10084270148E+00  0.35318797708E-02  0.99679136641E-01  0.89135719826E+00  0.88000000000E+00 0.  1.
        -11    1    4    4    0    0 -0.49561553037E-01  0.13003365239E-01 -0.34430240382E-01  0.61734411966E-01  0.51100000000E-03 0. -1.
         11    1    4    4    0    0 -0.50737121938E-01 -0.11529442141E-01 -0.41484172075E-01  0.66546083524E-01  0.51100000000E-03 0.  1.
</event>
<event>
 8    1  0.9956970E+004  0.1043930E+01  0.7957747E-01            NaN
         13   -1    0    0    0    0  0.00000000000E+00  0.00000000000E+00  0.74505805969E-08  0.10566000000E+00  0.10566000000E+00 0.  1.
     999900   -1    0    0    0    0 -0.00000000000E+00 -0.00000000000E+00 -0.74505805969E-08  0.93827000000E+00  0.93827000000E+00 0. -1.
     999902    2    1    2    0    0 -0.81596836530E-02  0.71075738923E-02  0.21634669979E-01  0.10197399816E+01  0.10194530264E+01 0.  0.
     999903    2    3    3    0    0  0.77969577128E-01 -0.35477251338E-01 -0.91981754370E-01  0.12724885630E+00  0.19842831760E-01 0.  0.
         14    1    1    2    0    0  0.81596836530E-02 -0.71075738923E-02 -0.21634669979E-01  0.24190018376E-01  0.00000000000E+00 0. -1.
     999901    1    3    3    0    0 -0.86129260781E-01  0.42584825230E-01  0.11361642435E+00  0.89249112533E+00  0.88000000000E+00 0.  1.
        -11    1    4    4    0    0  0.16005440959E-01 -0.43505969884E-03 -0.11036792954E-01  0.19453414532E-01  0.51100000000E-03 0.  1.
         11    1    4    4    0    0  0.61964136169E-01 -0.35042191639E-01 -0.80944961416E-01  0.10779544177E+00  0.51100000000E-03 0. -1.
</event>
<event>
 8    1  0.9956970E+004  0.1043930E+01  0.7957747E-01            NaN
         13   -1    0    0    0    0  0.00000000000E+00  0.00000000000E+00  0.74505805969E-08  0.10566000000E+00  0.10566000000E+00 0. -1.
     999900   -1    0    0    0    0 -0.00000000000E+00 -0.00000000000E+00 -0.74505805969E-08  0.93827000000E+00  0.93827000000E+00 0. -1.
     999902    2    1    2    0    0 -0.47665207960E-02  0.11165156703E-01 -0.19076032688E-01  0.10213185987E+01  0.10210682664E+01 0.  0.
     999903    2    3    3    0    0  0.89683948598E-01 -0.55777055458E-01  0.71754205231E-01  0.12910097781E+00  0.19081560534E-01 0.  0.
         14    1    1    2    0    0  0.47665207960E-02 -0.11165156703E-01  0.19076032688E-01  0.22611401279E-01  0.00000000000E+00 0. -1.
     999901    1    3    3    0    0 -0.94450469394E-01  0.66942212160E-01 -0.90830237918E-01  0.89221762091E+00  0.88000000000E+00 0.  1.
        -11    1    4    4    0    0  0.20483466042E-01 -0.13710610635E-01  0.27039860289E-01  0.36591917010E-01  0.51100000000E-03 0.  1.
         11    1    4    4    0    0  0.69200482556E-01 -0.42066444823E-01  0.44714344942E-01  0.92509060803E-01  0.51100000000E-03 0. -1.
</event>
<event>
 8    1  0.9956970E+004  0.1043930E+01  0.7957747E-01            NaN
         13   -1    0    0    0    0  0.00000000000E+00  0.00000000000E+00  0.74505805969E-08  0.10566000000E+00  0.10566000000E+00 0. -1.
     999900   -1    0    0    0    0 -0.00000000000E+00 -0.00000000000E+00 -0.74505805969E-08  0.93827000000E+00  0.93827000000E+00 0. -1.
     999902    2    1    2    0    0  0.13220663739E-01 -0.55600873657E-02 -0.18957871945E-01  0.10201581379E+01  0.10198811327E+01 0.  0.
     999903    2    3    3    0    0 -0.58116379312E-01  0.10867087689E+00 -0.35307113364E-01  0.12976216717E+00  0.20118517513E-01 0.  0.
         14    1    1    2    0    0 -0.13220663739E-01  0.55600873657E-02  0.18957871945E-01  0.23771862147E-01  0.00000000000E+00 0. -1.
     999901    1    3    3    0    0  0.71337043051E-01 -0.11423096426E+00  0.16349241419E-01  0.89039597068E+00  0.88000000000E+00 0.  1.
        -11    1    4    4    0    0 -0.33082324272E-01  0.63002090040E-01 -0.30617922104E-01  0.77468844084E-01  0.51100000000E-03 0. -1.
         11    1    4    4    0    0 -0.25034055040E-01  0.45668786851E-01 -0.46891912609E-02  0.52293323091E-01  0.51100000000E-03 0.  1.
</event>
<event>
 8    1  0.9956970E+004  0.1043930E+01  0.7957747E-01            NaN
         13   -1    0    0    0    0  0.00000000000E+00  0.00000000000E+00  0.74505805969E-08  0.10566000000E+00  0.10566000000E+00 0.  1.
     999900   -1    0    0    0    0 -0.00000000000E+00 -0.00000000000E+00 -0.74505805969E-08  0.93827000000E+00  0.93827000000E+00 0.  1.
     999902    2    1    2    0    0  0.83508109403E-02 -0.11766722887E-01 -0.19165366720E-01  0.10199403545E+01  0.10196581896E+01 0.  0.
     999903    2    3    3    0    0 -0.71374855708E-03 -0.98545763391E-01  0.82034339432E-01  0.12985375833E+00  0.20508261444E-01 0.  0.
         14    1    1    2    0    0 -0.83508109403E-02  0.11766722887E-01  0.19165366720E-01  0.23989645524E-01  0.00000000000E+00 0.  1.
     999901    1    3    3    0    0  0.90645594974E-02  0.86779040504E-01 -0.10119970615E+00  0.89008659614E+00  0.88000000000E+00 0.  1.
        -11    1    4    4    0    0 -0.39957137484E-02 -0.79231101292E-01  0.55298884867E-01  0.96704503147E-01  0.51100000000E-03 0. -1.
         11    1    4    4    0    0  0.32819651913E-02 -0.19314662099E-01  0.26735454565E-01  0.33149255185E-01  0.51100000000E-03 0.  1.
</event>
<event>
 8    1  0.9956970E+004  0.1043930E+01  0.7957747E-01            NaN
         13   -1    0    0    0    0  0.00000000000E+00  0.00000000000E+00  0.74505805969E-08  0.10566000000E+00  0.10566000000E+00 0. -1.
     999900   -1    0    0    0    0 -0.00000000000E+00 -0.00000000000E+00 -0.74505805969E-08  0.93827000000E+00  0.93827000000E+00 0. -1.
     999902    2    1    2    0    0  0.13378904020E-01 -0.19416171498E-01 -0.77670127452E-02  0.10191044230E+01  0.10188020002E+01 0.  0.
     999903    2    3    3    0    0 -0.67676010430E-01  0.80953686638E-01 -0.68940895706E-01  0.12759657020E+00  0.19861919784E-01 0.  0.
         14    1    1    2    0    0 -0.13378904020E-01  0.19416171498E-01  0.77670127452E-02  0.24825577041E-01  0.00000000000E+00 0.  1.
     999901    1    3    3    0    0  0.81054914449E-01 -0.10036985814E+00  0.61173882961E-01  0.89150785276E+00  0.88000000000E+00 0.  1.
        -11    1    4    4    0    0 -0.23838995457E-01  0.43262463687E-01 -0.35192166870E-01  0.60652190386E-01  0.51100000000E-03 0.  1.
         11    1    4    4    0    0 -0.43837014973E-01  0.37691222951E-01 -0.33748728837E-01  0.66944379812E-01  0.51100000000E-03 0. -1.
</event>
<event>
 8    1  0.9956970E+004  0.1043930E+01  0.7957747E-01            NaN
         13   -1    0    0    0    0  0.00000000000E+00  0.00000000000E+00  0.74505805969E-08  0.10566000000E+00  0.10566000000E+00 0. -1.
     999900   -1    0    0    0    0 -0.00000000000E+00 -0.00000000000E+00 -0.74505805969E-08  0.93827000000E+00  0.93827000000E+00 0. -1.
     999902    2    1    2    0    0 -0.18240324929E-01  0.60577531568E-02  0.14055420050E-01  0.10201190643E+01  0.10198411370E+01 0.  0.
     999903    2    3    3    0    0 -0.47160497838E-01  0.13991552880E-02 -0.11951447227E+00  0.12955800795E+00  0.16598136874E-01 0.  0.
         14    1    1    2    0    0  0.18240324929E-01 -0.60577531568E-02 -0.14055420050E-01  0.23810935714E-01  0.00000000000E+00 0.  1.
     999901    1    3    3    0    0  0.28920172910E-01  0.46585978688E-02  0.13356989232E+00  0.89056105634E+00  0.88000000000E+00 0.  1.
        -11    1    4    4    0    0 -0.31964378360E-01  0.83881241319E-02 -0.73283214447E-01  0.80391372367E-01  0.51100000000E-03 0. -1.
         11    1    4    4    0    0 -0.15196119478E-01 -0.69889688439E-02 -0.46231257828E-01  0.49166635578E-01  0.51100000000E-03 0.  1.
</event>
<event>
 8    1  0.9956970E+004  0.1043930E+01  0.7957747E-01            NaN
         13   -1    0    0    0    0  0.00000000000E+00  0.00000000000E+00  0.74505805969E-08  0.10566000000E+00  0.10566000000E+00 0. -1.
     999900   -1    0    0    0    0 -0.00000000000E+00 -0.00000000000E+00 -0.74505805969E-08  0.93827000000E+00  0.93827000000E+00 0. -1.
     999902    2    1    2    0    0  0.15430351039E-01 -0.15875018791E-01 -0.93879736081E-02  0.10198832538E+01  0.10195997280E+01 0.  0.
     999903    2    3    3    0    0  0.40136430980E-01 -0.93934979674E-01 -0.83174355515E-01  0.13300773940E+00  0.18394885849E-01 0.  0.
         14    1    1    2    0    0 -0.15430351039E-01  0.15875018791E-01  0.93879736081E-02  0.24046746209E-01  0.00000000000E+00 0. -1.
     999901    1    3    3    0    0 -0.24706079941E-01  0.78059960884E-01  0.73786381907E-01  0.88687551440E+00  0.88000000000E+00 0. -1.
        -11    1    4    4    0    0  0.18695403803E-01 -0.63960636267E-01 -0.48665213487E-01  0.82516939108E-01  0.51100000000E-03 0. -1.
         11    1    4    4    0    0  0.21441027177E-01 -0.29974343408E-01 -0.34509142028E-01  0.50490800287E-01  0.51100000000E-03 0.  1.
</event>
<event>
 8    1  0.9956970E+004  0.1043930E+01  0.7957747E-01            NaN
         13   -1    0    0    0    0  0.00000000000E+00  0.00000000000E+00  0.74505805969E-08  0.10566000000E+00  0.10566000000E+00 0.  1.
     999900   -1    0    0    0    0 -0.00000000000E+00 -0.00000000000E+00 -0.74505805969E-08  0.93827000000E+00  0.93827000000E+00 0.  1.
     999902    2    1    2    0    0  0.10338616771E-01  0.86762027627E-02 -0.18217252976E-01  0.10212577307E+01  0.10210060336E+01 0.  0.
     999903    2    3    3    0    0  0.12090430158E+00  0.14570899401E-02 -0.53149961777E-01  0.13362200560E+00  0.20247189784E-01 0.  0.
         14    1    1    2    0    0 -0.10338616771E-01 -0.86762027627E-02  0.18217252976E-01  0.22672269342E-01  0.00000000000E+00 0.  1.
     999901    1    3    3    0    0 -0.11056568481E+00  0.72191128226E-02  0.34932708801E-01  0.88763572505E+00  0.88000000000E+00 0.  1.
        -11    1    4    4    0    0  0.41506142886E-01 -0.31996003723E-02 -0.28123553598E-01  0.50241344805E-01  0.51100000000E-03 0.  1.
         11    1    4    4    0    0  0.79398158690E-01  0.46566903124E-02 -0.25026408180E-01  0.83380660800E-01  0.51100000000E-03 0. -1.
</event>
<event>
 8    1  0.9956970E+004  0.1043930E+01  0.7957747E-01            NaN
         13   -1    0    0    0    0  0.00000000000E+00  0.00000000000E+00  0.74505805969E-08  0.10566000000E+00  0.10566000000E+00 0.  1.
     999900   -1    0    0    0    0 -0.00000000000E+00 -0.00000000000E+00 -0.74505805969E-08  0.93827000000E+00  0.93827000000E+00 0. -1.
     999902    2    1    2    0    0 -0.19667778018E-01 -0.67269605809E-02 -0.12678559341E-01  0.10195821180E+01  0.10192913597E+01 0.  0.
     999903    2    3    3    0    0  0.83475424974E-01 -0.94245820974E-01 -0.21423081242E-01  0.12920324476E+00  0.19598691322E-01 0.  0.
         14    1    1    2    0    0  0.19667778018E-01  0.67269605809E-02  0.12678559341E-01  0.24347881998E-01  0.00000000000E+00 0.  1.
     999901    1    3    3    0    0 -0.10314320299E+00  0.87518860393E-01  0.87445219004E-02  0.89037887324E+00  0.88000000000E+00 0. -1.
        -11    1    4    4    0    0  0.38609552329E-01 -0.35623819980E-01 -0.75137500870E-03  0.52541219689E-01  0.51100000000E-03 0.  1.
         11    1    4    4    0    0  0.44865872645E-01 -0.58622000994E-01 -0.20671706233E-01  0.76662025073E-01  0.51100000000E-03 0. -1.
</event>
<event>
 8    1  0.9956970E+004  0.1043930E+01  0.7957747E-01            NaN
         13   -1    0    0    0    0  0.00000000000E+00  0.00000000000E+00  0.74505805969E-08  0.10566000000E+00  0.10566000000E+00 0. -1.
     999900   -1    0    0    0    0 -0.00000000000E+00 -0.00000000000E+00 -0.74505805969E-08  0.93827000000E+00  0.93827000000E+00 0.  1.
     999902    2    1    2    0    0  0.15318166918E-01  0.15272834508E-01  0.89299209629E-02  0.10205280941E+01  0.10202597422E+01 0.  0.
     999903    2    3    3    0    0 -0.18596670996E-01 -0.12378097660E+00 -0.20725723664E-01  0.12847112513E+00  0.20191781300E-01 0.  0.
         14    1    1    2    0    0 -0.15318166918E-01 -0.15272834508E-01 -0.89299209629E-02  0.23401905906E-01  0.00000000000E+00 0.  1.
     999901    1    3    3    0    0  0.33914837914E-01  0.13905381111E+00  0.29655644627E-01  0.89205696896E+00  0.88000000000E+00 0. -1.
        -11    1    4    4    0    0 -0.91236338913E-02 -0.30246041908E-01  0.22929658742E-02  0.31679371206E-01  0.51100000000E-03 0. -1.
         11    1    4    4    0    0 -0.94730371049E-02 -0.93534934689E-01 -0.23018689538E-01  0.96791753927E-01  0.51100000000E-03 0.  1.
</event>
<event>
 8    1  0.9956970E+004  0.1043930E+01  0.7957747E-01            NaN
         13   -1    0    0    0    0  0.00000000000E+00  0.00000000000E+00  0.74505805969E-08  0.10566000000E+00  0.10566000000E+00 0. -1.
     999900   -1    0    0    0    0 -0.00000000000E+00 -0.00000000000E+00 -0.74505805969E-08  0.93827000000E+00  0.93827000000E+00 0. -1.
     999902    2    1    2    0    0  0.97173499414E-02 -0.70367685882E-02  0.18861922640E-01  0.10215756911E+01  0.10213310812E+01 0.  0.
     999903    2    3    3    0    0 -0.26355794846E-01 -0.10001083236E+00  0.82236124277E-01  0.13367832215E+00  0.20256336406E-01 0.  0.
         14    1    1    2    0    0 -0.97173499414E-02  0.70367685882E-02 -0.18861922640E-01  0.22354308930E-01  0.00000000000E+00 0.  1.
     999901    1    3    3    0    0  0.36073144788E-01  0.92974063771E-01 -0.63374201637E-01  0.88789736892E+00  0.88000000000E+00 0.  1.
        -11    1    4    4    0    0 -0.10662360016E-01 -0.39222846478E-01  0.45180034695E-01  0.60775112201E-01  0.51100000000E-03 0.  1.
         11    1    4    4    0    0 -0.15693434831E-01 -0.60787985881E-01  0.37056089581E-01  0.72903209945E-01  0.51100000000E-03 0. -1.
</event>
<event>
 8    1  0.9956970E+004  0.1043930E+01  0.7957747E-01            NaN
         13   -1    0    0    0    0  0.00000000000E+00  0.00000000000E+00  0.74505805969E-08  0.10566000000E+00  0.10566000000E+00 0.  1.
     999900   -1    0    0    0    0 -0.00000000000E+00 -0.00000000000E+00 -0.74505805969E-08  0.93827000000E+00  0.93827000000E+00 0. -1.
     999902    2    1    2    0    0 -0.14696773447E-01 -0.19238972302E-01 -0.20801427919E-01  0.10120108426E+01  0.10115073470E+01 0.  0.
     999903    2    3    3    0    0 -0.71687136830E-01  0.16480996899E-01 -0.10008256316E+00  0.12589046923E+00  0.20523692337E-01 0.  0.
         14    1    1    2    0    0  0.14696773447E-01  0.19238972302E-01  0.20801427919E-01  0.31919157389E-01  0.00000000000E+00 0.  1.
     999901    1    3    3    0    0  0.56990363384E-01 -0.35719969201E-01  0.79281135246E-01  0.88612037338E+00  0.88000000000E+00 0.  1.
        -11    1    4    4    0    0 -0.23817858858E-01  0.15202948163E-01 -0.41796483371E-01  0.50454208710E-01  0.51100000000E-03 0. -1.
         11    1    4    4    0    0 -0.47869277972E-01  0.12780487360E-02 -0.58286079794E-01  0.75436260518E-01  0.51100000000E-03 0.  1.
</event>
<event>
 8    1  0.9956970E+004  0.1043930E+01  0.7957747E-01            NaN
         13   -1    0    0    0    0  0.00000000000E+00  0.00000000000E+00  0.74505805969E-08  0.10566000000E+00  0.10566000000E+00 0.  1.
     999900   -1    0    0    0    0 -0.00000000000E+00 -0.00000000000E+00 -0.74505805969E-08  0.93827000000E+00  0.93827000000E+00 0.  1.
     999902    2    1    2    0    0 -0.12938298757E-01  0.11330406516E-01  0.18612644535E-01  0.10185881725E+01  0.10182728794E+01 0.  0.
     999903    2    3    3    0    0  0.22340994987E-01  0.13086910637E-01  0.12695527931E+00  0.13124052898E+00  0.20881719623E-01 0.  0.
         14    1    1    2    0    0  0.12938298757E-01 -0.11330406516E-01 -0.18612644535E-01  0.25341827541E-01  0.00000000000E+00 0.  1.
     999901    1    3    3    0    0 -0.35279293743E-01 -0.17565041209E-02 -0.10834263478E+00  0.88734764348E+00  0.88000000000E+00 0.  1.
        -11    1    4    4    0    0  0.80557909989E-02  0.15857896576E-01  0.84640041726E-01  0.86490267873E-01  0.51100000000E-03 0.  1.
         11    1    4    4    0    0  0.14285203988E-01 -0.27709859384E-02  0.42315237589E-01  0.44750261108E-01  0.51100000000E-03 0. -1.
</event>
<event>
 8    1  0.9956970E+004  0.1043930E+01  0.7957747E-01            NaN
         13   -1    0    0    0    0  0.00000000000E+00  0.00000000000E+00  0.74505805969E-08  0.10566000000E+00  0.10566000000E+00 0. -1.
     999900   -1    0    0    0    0 -0.00000000000E+00 -0.00000000000E+00 -0.74505805969E-08  0.93827000000E+00  0.93827000000E+00 0.  1.
     999902    2    1    2    0    0 -0.34193146834E-02 -0.19499981024E-01  0.14206816953E-01  0.10195625089E+01  0.10192712765E+01 0.  0.
     999903    2    3    3    0    0  0.10360588865E+00 -0.51782002203E-01  0.58978229194E-01  0.13136151682E+00  0.19022635645E-01 0.  0.
         14    1    1    2    0    0  0.34193146834E-02  0.19499981024E-01 -0.14206816953E-01  0.24367491065E-01  0.00000000000E+00 0.  1.
     999901    1    3    3    0    0 -0.10702520334E+00  0.32282021179E-01 -0.44771412241E-01  0.88820099212E+00  0.88000000000E+00 0.  1.
        -11    1    4    4    0    0  0.40779641514E-01 -0.30862130800E-01  0.26692996386E-01  0.57690791784E-01  0.51100000000E-03 0. -1.
         11    1    4    4    0    0  0.62826247138E-01 -0.20919871403E-01  0.32285232808E-01  0.73670725036E-01  0.51100000000E-03 0.  1.
</event>
<event>
 8    1  0.9956970E+004  0.1043930E+01  0.7957747E-01            NaN
         13   -1    0    0    0    0  0.00000000000E+00  0.00000000000E+00  0.74505805969E-08  0.10566000000E+00  0.10566000000E+00 0.  1.
     999900   -1    0    0    0    0 -0.00000000000E+00 -0.00000000000E+00 -0.74505805969E-08  0.93827000000E+00  0.93827000000E+00 0. -1.
     999902    2    1    2    0    0  0.22092994964E-01 -0.20228377436E-02 -0.76054056326E-02  0.10204771858E+01  0.10202076515E+01 0.  0.
     999903    2    3    3    0    0 -0.51860913237E-01  0.11454836944E+00 -0.22841327287E-01  0.12958428528E+00  0.21435426219E-01 0.  0.
         14    1    1    2    0    0 -0.22092994964E-01  0.20228377436E-02  0.76054056326E-02  0.23452814199E-01  0.00000000000E+00 0.  1.
     999901    1    3    3    0    0  0.73953908201E-01 -0.11657120718E+00  0.15235921655E-01  0.89089290052E+00  0.88000000000E+00 0. -1.
        -11    1    4    4    0    0 -0.50687334576E-01  0.10372107081E+00 -0.25788634898E-01  0.11829024147E+00  0.51100000000E-03 0. -1.
         11    1    4    4    0    0 -0.11735786608E-02  0.10827298632E-01  0.29473076103E-02  0.11294043815E-01  0.51100000000E-03 0.  1.
</event>
<event>
 8    1  0.9956970E+004  0.1043930E+01  0.7957747E-01            NaN
         13   -1    0    0    0    0  0.00000000000E+00  0.00000000000E+00  0.74505805969E-08  0.10566000000E+00  0.10566000000E+00 0.  1.
     999900   -1    0    0    0    0 -0.00000000000E+00 -0.00000000000E+00 -0.74505805969E-08  0.93827000000E+00  0.93827000000E+00 0. -1.
     999902    2    1    2    0    0 -0.81389854886E-02  0.23189302514E-01  0.89145137068E-03  0.10193376939E+01  0.10190409965E+01 0.  0.
     999903    2    3    3    0    0  0.12710548462E+00  0.81589496357E-02 -0.14659479430E-02  0.12887571514E+00  0.19606842452E-01 0.  0.
         14    1    1    2    0    0  0.81389854886E-02 -0.23189302514E-01 -0.89145137068E-03  0.24592306143E-01  0.00000000000E+00 0. -1.
     999901    1    3    3    0    0 -0.13524447011E+00  0.15030352879E-01  0.23573993136E-02  0.89046197871E+00  0.88000000000E+00 0. -1.
        -11    1    4    4    0    0  0.56044009226E-01  0.67206548488E-02 -0.98648018070E-02  0.57303347262E-01  0.51100000000E-03 0. -1.
         11    1    4    4    0    0  0.71061475393E-01  0.14382947869E-02  0.83988538640E-02  0.71572367882E-01  0.51100000000E-03 0.  1.
</event>
<event>
 8    1  0.9956970E+004  0.1043930E+01  0.7957747E-01            NaN
         13   -1    0    0    0    0  0.00000000000E+00  0.00000000000E+00  0.74505805969E-08  0.10566000000E+00  0.10566000000E+00 0.  1.
     999900   -1    0    0    0    0 -0.00000000000E+00 -0.00000000000E+00 -0.74505805969E-08  0.93827000000E+00  0.93827000000E+00 0. -1.
     999902    2    1    2    0    0  0.77742998252E-02  0.90668668378E-02 -0.20267439628E-01  0.10204051850E+01  0.10201339739E+01 0.  0.
     999903    2    3    3    0    0  0.54633646375E-01 -0.67489531747E-01  0.92822980680E-01  0.12863945136E+00  0.19807334281E-01 0.  0.
         14    1    1    2    0    0 -0.77742998252E-02 -0.90668668378E-02  0.20267439628E-01  0.23524815007E-01  0.00000000000E+00 0.  1.
     999901    1    3    3    0    0 -0.46859346550E-01  0.76556398585E-01 -0.11309042031E+00  0.89176573364E+00  0.88000000000E+00 0. -1.
        -11    1    4    4    0    0  0.43747752707E-02 -0.46452236150E-02  0.16631244000E-01  0.17820666628E-01  0.51100000000E-03 0.  1.
         11    1    4    4    0    0  0.50258871104E-01 -0.62844308132E-01  0.76191736680E-01  0.11081878473E+00  0.51100000000E-03 0. -1.
</event>
<event>
 8    1  0.9956970E+004  0.1043930E+01  0.7957747E-01            NaN
         13   -1    0    0    0    0  0.00000000000E+00  0.00000000000E+00  0.74505805969E-08  0.10566000000E+00  0.10566000000E+00 0.  1.
     999900   -1    0    0    0    0 -0.00000000000E+00 -0.00000000000E+00 -0.74505805969E-08  0.93827000000E+00  0.93827000000E+00 0. -1.
     999902    2    1    2    0    0 -0.16183902368E-01 -0.77914132155E-02  0.20006695930E-01  0.10170433361E+01  0.10166878846E+01 0.  0.
     999903    2    3    3    0    0  0.34133174665E-01  0.42281074026E-01  0.11520330735E+00  0.12906729075E+00  0.20827882357E-01 0.  0.
         14    1    1    2    0    0  0.16183902368E-01  0.77914132155E-02 -0.20006695930E-01  0.26886663940E-01  0.00000000000E+00 0. -1.
     999901    1    3    3    0    0 -0.50317077033E-01 -0.50072487241E-01 -0.95196611420E-01  0.88797604531E+00  0.88000000000E+00 0. -1.
        -11    1    4    4    0    0  0.13139243201E-01  0.15987570380E-01  0.68115203192E-01  0.71191180250E-01  0.51100000000E-03 0.  1.
         11    1    4    4    0    0  0.20993931464E-01  0.26293503646E-01  0.47088104159E-01  0.57876110500E-01  0.51100000000E-03 0. -1.
</event>
<event>
 8    1  0.9956970E+004  0.1043930E+01  0.7957747E-01            NaN
         13   -1    0    0    0    0  0.00000000000E+00  0.00000000000E+00  0.74505805969E-08  0.10566000000E+00  0.10566000000E+00 0.  1.
     999900   -1    0    0    0    0 -0.00000000000E+00 -0.00000000000E+00 -0.74505805969E-08  0.93827000000E+00  0.93827000000E+00 0. -1.
     999902    2    1    2    0    0 -0.19958871684E-01 -0.42348435823E-02 -0.13719157006E-01  0.10193433018E+01  0.10190467414E+01 0.  0.
     999903    2    3    3    0    0  0.76057479662E-01  0.11485450778E-01 -0.10291967056E+00  0.12949893395E+00  0.16151145939E-01 0.  0.
         14    1    1    2    0    0  0.19958871684E-01  0.42348435823E-02  0.13719157006E-01  0.24586698193E-01  0.00000000000E+00 0. -1.
     999901    1    3    3    0    0 -0.96016351345E-01 -0.15720294360E-01  0.89200513554E-01  0.88984436785E+00  0.88000000000E+00 0. -1.
        -11    1    4    4    0    0  0.13954908844E-01  0.80651132227E-02 -0.25763037279E-01  0.30393761580E-01  0.51100000000E-03 0.  1.
         11    1    4    4    0    0  0.62102570818E-01  0.34203375553E-02 -0.77156633282E-01  0.99105172375E-01  0.51100000000E-03 0. -1.
</event>
<event>
 8    1  0.1068199E+005  0.1043930E+01  0.7957747E-01            NaN
         13   -1    0    0    0    0  0.00000000000E+00  0.00000000000E+00  0.74505805969E-08  0.10566000000E+00  0.10566000000E+00 0.  1.
     999900   -1    0    0    0    0 -0.00000000000E+00 -0.00000000000E+00 -0.74505805969E-08  0.93827000000E+00  0.93827000000E+00 0. -1.
     999902    2    1    2    0    0 -0.19181998655E-02  0.22382864682E-01  0.73930202752E-02  0.10202798653E+01  0.10200057229E+01 0.  0.
     999903    2    3    3    0    0 -0.10212679145E+00  0.69301081326E-01 -0.41964180900E-01  0.13197855709E+00  0.20611299038E-01 0.  0.
         14    1    1    2    0    0  0.19181998655E-02 -0.22382864682E-01 -0.73930202752E-02  0.23650134691E-01  0.00000000000E+00 0.  1.
     999901    1    3    3    0    0  0.10020859158E+00 -0.46918216643E-01  0.49357201175E-01  0.88830130822E+00  0.88000000000E+00 0. -1.
        -11    1    4    4    0    0 -0.69781917068E-01  0.35840802507E-01 -0.29333017014E-01  0.83754200385E-01  0.51100000000E-03 0.  1.
         11    1    4    4    0    0 -0.32344874380E-01  0.33460278819E-01 -0.12631163886E-01  0.48224356703E-01  0.51100000000E-03 0. -1.
</event>
<event>
 8    1  0.9956970E+004  0.1043930E+01  0.7957747E-01            NaN
         13   -1    0    0    0    0  0.00000000000E+00  0.00000000000E+00  0.74505805969E-08  0.10566000000E+00  0.10566000000E+00 0. -1.
     999900   -1    0    0    0    0 -0.00000000000E+00 -0.00000000000E+00 -0.74505805969E-08  0.93827000000E+00  0.93827000000E+00 0.  1.
     999902    2    1    2    0    0  0.12123924641E-02 -0.67659813699E-03  0.23709104378E-01  0.10201802777E+01  0.10199037943E+01 0.  0.
     999903    2    3    3    0    0  0.82749355683E-01 -0.38493919243E-01 -0.88297622603E-01  0.12853913178E+00  0.19914832587E-01 0.  0.
         14    1    1    2    0    0 -0.12123924641E-02  0.67659813699E-03 -0.23709104378E-01  0.23749722334E-01  0.00000000000E+00 0.  1.
     999901    1    3    3    0    0 -0.81536963218E-01  0.37817321106E-01  0.11200672698E+00  0.89164114589E+00  0.88000000000E+00 0. -1.
        -11    1    4    4    0    0  0.65113822683E-01 -0.23399308808E-01 -0.57476726406E-01  0.89950946390E-01  0.51100000000E-03 0. -1.
         11    1    4    4    0    0  0.17635533000E-01 -0.15094610434E-01 -0.30820896197E-01  0.38588185391E-01  0.51100000000E-03 0.  1.
</event>
<event>
 8    1  0.9956970E+004  0.1043930E+01  0.7957747E-01            NaN
         13   -1    0    0    0    0  0.00000000000E+00  0.00000000000E+00  0.74505805969E-08  0.10566000000E+00  0.10566000000E+00 0.  1.
     999900   -1    0    0    0    0 -0.00000000000E+00 -0.00000000000E+00 -0.74505805969E-08  0.93827000000E+00  0.93827000000E+00 0.  1.
     999902    2    1    2    0    0  0.90174299469E-02  0.22057356393E-01 -0.13481730557E-02  0.10200624785E+01  0.10197832129E+01 0.  0.
     999903    2    3    3    0    0  0.15241326507E-01  0.34492634643E-01  0.12397347310E+00  0.13107491498E+00  0.19727428236E-01 0.  0.
         14    1    1    2    0    0 -0.90174299469E-02 -0.22057356393E-01  0.13481730557E-02  0.23867521541E-01  0.00000000000E+00 0.  1.
     999901    1    3    3    0    0 -0.62238965602E-02 -0.12435278249E-01 -0.12532164616E+00  0.88898756348E+00  0.88000000000E+00 0.  1.
        -11    1    4    4    0    0 -0.12707075356E-02  0.39466252936E-02  0.39808165710E-01  0.40026762635E-01  0.51100000000E-03 0.  1.
         11    1    4    4    0    0  0.16512034043E-01  0.30546009349E-01  0.84165307391E-01  0.91048152340E-01  0.51100000000E-03 0. -1.
</event>
<event>
 8    1  0.9956970E+004  0.1043930E+01  0.7957747E-01            NaN
         13   -1    0    0    0    0  0.00000000000E+00  0.00000000000E+00  0.74505805969E-08  0.10566000000E+00  0.10566000000E+00 0.  1.
     999900   -1    0    0    0    0 -0.00000000000E+00 -0.00000000000E+00 -0.74505805969E-08  0.93827000000E+00  0.93827000000E+00 0.  1.
     999902    2    1    2    0    0  0.12999264825E-01  0.51548534613E-02  0.20026052485E-01  0.10195046816E+01  0.10192120484E+01 0.  0.
     999903    2    3    3    0    0  0.26341379215E-01 -0.12527329521E+00 -0.22059842049E-02  0.12951379546E+00  0.19536890657E-01 0.  0.
         14    1    1    2    0    0 -0.12999264825E-01 -0.51548534613E-02 -0.20026052485E-01  0.24425318387E-01  0.00000000000E+00 0. -1.
     999901    1    3    3    0    0 -0.13342114391E-01  0.13042814867E+00  0.22232036690E-01  0.88999088615E+00  0.88000000000E+00 0. -1.
        -11    1    4    4    0    0  0.94596428104E-02 -0.69789954085E-01 -0.94693366369E-02  0.71063717822E-01  0.51100000000E-03 0.  1.
         11    1    4    4    0    0  0.16881736405E-01 -0.55483341123E-01  0.72633524319E-02  0.58450077637E-01  0.51100000000E-03 0. -1.
</event>
<event>
 8    1  0.9956970E+004  0.1043930E+01  0.7957747E-01            NaN
         13   -1    0    0    0    0  0.00000000000E+00  0.00000000000E+00  0.74505805969E-08  0.10566000000E+00  0.10566000000E+00 0. -1.
     999900   -1    0    0    0    0 -0.00000000000E+00 -0.00000000000E+00 -0.74505805969E-08  0.93827000000E+00  0.93827000000E+00 0. -1.
     999902    2    1    2    0    0 -0.16806508550E-01  0.17459001279E-01 -0.50870357284E-03  0.10196908945E+01  0.10194027595E+01 0.  0.
     999903    2    3    3    0    0 -0.84059823930E-01 -0.95178983191E-01 -0.18436330798E-01  0.12978543673E+00  0.19474815899E-01 0.  0.
         14    1    1    2    0    0  0.16806508550E-01 -0.17459001279E-01  0.50870357284E-03  0.24239105483E-01  0.00000000000E+00 0.  1.
     999901    1    3    3    0    0  0.67253315380E-01  0.11263798447E+00  0.17927627225E-01  0.88990545778E+00  0.88000000000E+00 0. -1.
        -11    1    4    4    0    0 -0.59203041960E-01 -0.54296415282E-01 -0.73443103471E-02  0.80667843068E-01  0.51100000000E-03 0. -1.
         11    1    4    4    0    0 -0.24856781970E-01 -0.40882567909E-01 -0.11092020451E-01  0.49117593665E-01  0.51100000000E-03 0.  1.
</event>
<event>
 8    1  0.9956970E+004  0.1043930E+01  0.7957747E-01            NaN
         13   -1    0    0    0    0  0.00000000000E+00  0.00000000000E+00  0.74505805969E-08  0.10566000000E+00  0.10566000000E+00 0. -1.
     999900   -1    0    0    0    0 -0.00000000000E+00 -0.00000000000E+00 -0.74505805969E-08  0.93827000000E+00  0.93827000000E+00 0.  1.
     999902    2    1    2    0    0  0.20573469348E-01  0.24720385364E-02 -0.11229826930E-01  0.10203612150E+01  0.10200889772E+01 0.  0.
     999903    2    3    3    0    0 -0.74759895796E-01 -0.13091292558E-01  0.10105977120E+00  0.12798258364E+00  0.20150444175E-01 0.  0.
         14    1    1    2    0    0 -0.20573469348E-01 -0.24720385364E-02  0.11229826930E-01  0.23568785044E-01  0.00000000000E+00 0. -1.
     999901    1    3    3    0    0  0.95333365145E-01  0.15563331095E-01 -0.11228959813E+00  0.89237863132E+00  0.88000000000E+00 0.  1.
        -11    1    4    4    0    0 -0.26166159779E-01 -0.81392808459E-02  0.51830740344E-01  0.58631071762E-01  0.51100000000E-03 0. -1.
         11    1    4    4    0    0 -0.48593736017E-01 -0.49520117126E-02  0.49229030852E-01  0.69351511877E-01  0.51100000000E-03 0.  1.
</event>
<event>
 8    1  0.9956970E+004  0.1043930E+01  0.7957747E-01            NaN
         13   -1    0    0    0    0  0.00000000000E+00  0.00000000000E+00  0.74505805969E-08  0.10566000000E+00  0.10566000000E+00 0. -1.
     999900   -1    0    0    0    0 -0.00000000000E+00 -0.00000000000E+00 -0.74505805969E-08  0.93827000000E+00  0.93827000000E+00 0.  1.
     999902    2    1    2    0    0 -0.19009821488E-01 -0.13604136946E-01  0.10059512548E-01  0.10184812348E+01  0.10181632414E+01 0.  0.
     999903    2    3    3    0    0  0.40699423818E-01 -0.31595537871E-01 -0.11488923824E+00  0.12746996960E+00  0.19857869286E-01 0.  0.
         14    1    1    2    0    0  0.19009821488E-01  0.13604136946E-01 -0.10059512548E-01  0.25448765152E-01  0.00000000000E+00 0.  1.
     999901    1    3    3    0    0 -0.59709245306E-01  0.17991400925E-01  0.12494875079E+00  0.89101126525E+00  0.88000000000E+00 0. -1.
        -11    1    4    4    0    0  0.10441301953E-01 -0.20452320935E-01 -0.48012595599E-01  0.53223948324E-01  0.51100000000E-03 0.  1.
         11    1    4    4    0    0  0.30258121865E-01 -0.11143216936E-01 -0.66876642643E-01  0.74246021272E-01  0.51100000000E-03 0. -1.
</event>
<event>
 8    1  0.9956970E+004  0.1043930E+01  0.7957747E-01            NaN
         13   -1    0    0    0    0  0.00000000000E+00  0.00000000000E+00  0.74505805969E-08  0.10566000000E+00  0.10566000000E+00 0.  1.
     999900   -1    0    0    0    0 -0.00000000000E+00 -0.00000000000E+00 -0.74505805969E-08  0.93827000000E+00  0.93827000000E+00 0. -1.
     999902    2    1    2    0    0  0.11511664427E-01  0.14417324632E-01  0.15057359690E-01  0.10201161018E+01  0.10198381045E+01 0.  0.
     999903    2    3    3    0    0  0.29722973171E-01 -0.40147272409E-01 -0.11673662444E+00  0.12844430046E+00  0.19371118213E-01 0.  0.
         14    1    1    2    0    0 -0.11511664427E-01 -0.14417324632E-01 -0.15057359690E-01  0.23813898217E-01  0.00000000000E+00 0.  1.
     999901    1    3    3    0    0 -0.18211308744E-01  0.54564597041E-01  0.13179398413E+00  0.89167180132E+00  0.88000000000E+00 0.  1.
        -11    1    4    4    0    0  0.15374882258E-01 -0.34453320875E-01 -0.89592364281E-01  0.97213533946E-01  0.51100000000E-03 0.  1.
         11    1    4    4    0    0  0.14348090913E-01 -0.56939515336E-02 -0.27144260155E-01  0.31230766518E-01  0.51100000000E-03 0. -1.
</event>
<event>
 8    1  0.9956970E+004  0.1043930E+01  0.7957747E-01            NaN
         13   -1    0    0    0    0  0.00000000000E+00  0.00000000000E+00  0.74505805969E-08  0.10566000000E+00  0.10566000000E+00 0. -1.
     999900   -1    0    0    0    0 -0.00000000000E+00 -0.00000000000E+00 -0.74505805969E-08  0.93827000000E+00  0.93827000000E+00 0.  1.
     999902    2    1    2    0    0 -0.70450150369E-02  0.20290831635E-01  0.13552587491E-01  0.10185327026E+01  0.10182160103E+01 0.  0.
     999903    2    3    3    0    0 -0.72423777801E-01  0.36155328225E-01  0.10189657286E+00  0.13155427865E+00  0.19266689423E-01 0.  0.
         14    1    1    2    0    0  0.70450150369E-02 -0.20290831635E-01 -0.13552587491E-01  0.25397297356E-01  0.00000000000E+00 0.  1.
     999901    1    3    3    0    0  0.65378762764E-01 -0.15864496591E-01 -0.88343985370E-01  0.88697842399E+00  0.88000000000E+00 0.  1.
        -11    1    4    4    0    0 -0.56986090826E-01  0.36179630181E-01  0.86770520063E-01  0.10993527396E+00  0.51100000000E-03 0. -1.
         11    1    4    4    0    0 -0.15437686974E-01 -0.24301955436E-04  0.15126052798E-01  0.21619004694E-01  0.51100000000E-03 0.  1.
</event>
<event>
 8    1  0.9956970E+004  0.1043930E+01  0.7957747E-01            NaN
         13   -1    0    0    0    0  0.00000000000E+00  0.00000000000E+00  0.74505805969E-08  0.10566000000E+00  0.10566000000E+00 0. -1.
     999900   -1    0    0    0    0 -0.00000000000E+00 -0.00000000000E+00 -0.74505805969E-08  0.93827000000E+00  0.93827000000E+00 0.  1.
     999902    2    1    2    0    0 -0.24475657338E-01  0.55949701204E-02 -0.42580668642E-03  0.10188193886E+01  0.10185098938E+01 0.  0.
     999903    2    3    3    0    0 -0.12280583201E+00 -0.40322501657E-01 -0.16149787460E-01  0.13201361448E+00  0.21438336175E-01 0.  0.
         14    1    1    2    0    0  0.24475657338E-01 -0.55949701204E-02  0.42580668642E-03  0.25110611384E-01  0.00000000000E+00 0.  1.
     999901    1    3    3    0    0  0.98330174673E-01  0.45917471777E-01  0.15723980774E-01  0.88680577413E+00  0.88000000000E+00 0.  1.
        -11    1    4    4    0    0 -0.74442063188E-01 -0.31644916691E-01 -0.17885321736E-01  0.82844235640E-01  0.51100000000E-03 0. -1.
         11    1    4    4    0    0 -0.48363768822E-01 -0.86775849660E-02  0.17355342760E-02  0.49169378842E-01  0.51100000000E-03 0.  1.
</event>
<event>
 8    1  0.9956970E+004  0.1043930E+01  0.7957747E-01            NaN
         13   -1    0    0    0    0  0.00000000000E+00  0.00000000000E+00  0.74505805969E-08  0.10566000000E+00  0.10566000000E+00 0. -1.
     999900   -1    0    0    0    0 -0.00000000000E+00 -0.00000000000E+00 -0.74505805969E-08  0.93827000000E+00  0.93827000000E+00 0.  1.
     999902    2    1    2    0    0  0.14311525630E-01  0.48523491620E-02  0.15328390247E-01  0.10224050237E+01  0.10221784129E+01 0.  0.
     999903    2    3    3    0    0 -0.70406014597E-02 -0.11088689120E+00 -0.66118849671E-01  0.13084171242E+00  0.20059379811E-01 0.  0.
         14    1    1    2    0    0 -0.14311525630E-01 -0.48523491620E-02 -0.15328390247E-01  0.21524976326E-01  0.00000000000E+00 0.  1.
     999901    1    3    3    0    0  0.21352127090E-01  0.11573924036E+00  0.81447239918E-01  0.89156331126E+00  0.88000000000E+00 0. -1.
        -11    1    4    4    0    0 -0.88294826359E-02 -0.43018641363E-01 -0.17228518010E-01  0.47176755105E-01  0.51100000000E-03 0. -1.
         11    1    4    4    0    0  0.17888811762E-02 -0.67868249832E-01 -0.48890331661E-01  0.83664957312E-01  0.51100000000E-03 0.  1.
</event>
<event>
 8    1  0.9956970E+004  0.1043930E+01  0.7957747E-01            NaN
         13   -1    0    0    0    0  0.00000000000E+00  0.00000000000E+00  0.74505805969E-08  0.10566000000E+00  0.10566000000E+00 0. -1.
     999900   -1    0    0    0    0 -0.00000000000E+00 -0.00000000000E+00 -0.74505805969E-08  0.93827000000E+00  0.93827000000E+00 0. -1.
     999902    2    1    2    0    0 -0.71280682249E-03  0.52288248228E-02  0.22862351009E-01  0.10204665008E+01  0.10201967180E+01 0.  0.
     999903    2    3    3    0    0  0.64068255644E-01  0.99304540889E-01  0.56092637029E-01  0.13246251524E+00  0.20827884950E-01 0.  0.
         14    1    1    2    0    0  0.71280682249E-03 -0.52288248228E-02 -0.22862351009E-01  0.23463499233E-01  0.00000000000E+00 0.  1.
     999901    1    3    3    0    0 -0.64781062467E-01 -0.94075716067E-01 -0.33230286019E-01  0.88800398553E+00  0.88000000000E+00 0. -1.
        -11    1    4    4    0    0  0.42745788590E-01  0.47895683644E-01  0.26811073529E-01  0.69572219590E-01  0.51100000000E-03 0. -1.
         11    1    4    4    0    0  0.21322467054E-01  0.51408857246E-01  0.29281563499E-01  0.62890295647E-01  0.51100000000E-03 0.  1.
</event>
<event>
 8    1  0.9956970E+004  0.1043930E+01  0.7957747E-01            NaN
         13   -1    0    0    0    0  0.00000000000E+00  0.00000000000E+00  0.74505805969E-08  0.10566000000E+00  0.10566000000E+00 0. -1.
     999900   -1    0    0    0    0 -0.00000000000E+00 -0.00000000000E+00 -0.74505805969E-08  0.93827000000E+00  0.93827000000E+00 0. -1.
     999902    2    1    2    0    0  0.42146859343E-02  0.22444294255E-01  0.73332569162E-02  0.10199448675E+01  0.10196628101E+01 0.  0.
     999903    2    3    3    0    0  0.43050123436E-01  0.59153789898E-01  0.10858734615E+00  0.13252829745E+00  0.20495216411E-01 0.  0.
         14    1    1    2    0    0 -0.42146859343E-02 -0.22444294255E-01 -0.73332569162E-02  0.23985132460E-01  0.00000000000E+00 0. -1.
     999901    1    3    3    0    0 -0.38835437502E-01 -0.36709495643E-01 -0.10125408923E+00  0.88741657009E+00  0.88000000000E+00 0. -1.
        -11    1    4    4    0    0  0.35768172941E-01  0.35644856584E-01  0.81936496256E-01  0.96248472903E-01  0.51100000000E-03 0.  1.
         11    1    4    4    0    0  0.72819504946E-02  0.23508933314E-01  0.26650849891E-01  0.36279824551E-01  0.51100000000E-03 0. -1.
</event>
<event>
 8    1  0.9956970E+004  0.1043930E+01  0.7957747E-01            NaN
         13   -1    0    0    0    0  0.00000000000E+00  0.00000000000E+00  0.74505805969E-08  0.10566000000E+00  0.10566000000E+00 0. -1.
     999900   -1    0    0    0    0 -0.00000000000E+00 -0.00000000000E+00 -0.74505805969E-08  0.93827000000E+00  0.93827000000E+00 0.  1.
     999902    2    1    2    0    0  0.47692893820E-02  0.24080295300E-01 -0.18804267794E-01  0.10130073994E+01  0.10125353248E+01 0.  0.
     999903    2    3    3    0    0  0.27676551882E-01  0.81478663184E-01  0.87352376822E-01  0.12447571816E+00  0.21424345858E-01 0.  0.
         14    1    1    2    0    0 -0.47692893820E-02 -0.24080295300E-01  0.18804267794E-01  0.30922600638E-01  0.00000000000E+00 0. -1.
     999901    1    3    3    0    0 -0.22907262500E-01 -0.57398367884E-01 -0.10615664462E+00  0.88853168121E+00  0.88000000000E+00 0.  1.
        -11    1    4    4    0    0  0.93920648700E-02  0.36628960812E-01  0.24240112917E-01  0.44919214685E-01  0.51100000000E-03 0. -1.
         11    1    4    4    0    0  0.18284487012E-01  0.44849702372E-01  0.63112263906E-01  0.79556503470E-01  0.51100000000E-03 0.  1.
</event>
<event>
 8    1  0.9956970E+004  0.1043930E+01  0.7957747E-01            NaN
         13   -1    0    0    0    0  0.00000000000E+00  0.00000000000E+00  0.74505805969E-08  0.10566000000E+00  0.10566000000E+00 0.  1.
     999900   -1    0    0    0    0 -0.00000000000E+00 -0.00000000000E+00 -0.74505805969E-08  0.93827000000E+00  0.93827000000E+00 0. -1.
     999902    2    1    2    0    0 -0.15324227655E-01  0.10983091471E-01  0.13076829416E-01  0.10209852028E+01  0.10207273488E+01 0.  0.
     999903    2    3    3    0    0 -0.11198956350E+00 -0.55009105699E-01 -0.39800627574E-01  0.13166232402E+00  0.13535640703E-01 0.  0.
         14    1    1    2    0    0  0.15324227655E-01 -0.10983091471E-01 -0.13076829416E-01  0.22944797211E-01  0.00000000000E+00 0. -1.
     999901    1    3    3    0    0  0.96665335843E-01  0.65992197170E-01  0.52877456990E-01  0.88932287877E+00  0.88000000000E+00 0. -1.
        -11    1    4    4    0    0 -0.77096870851E-01 -0.31521768685E-01 -0.23446894862E-01  0.86530730933E-01  0.51100000000E-03 0.  1.
         11    1    4    4    0    0 -0.34892692647E-01 -0.23487337013E-01 -0.16353732712E-01  0.45131593089E-01  0.51100000000E-03 0. -1.
</event>
<event>
 8    1  0.9956970E+004  0.1043930E+01  0.7957747E-01            NaN
         13   -1    0    0    0    0  0.00000000000E+00  0.00000000000E+00  0.74505805969E-08  0.10566000000E+00  0.10566000000E+00 0.  1.
     999900   -1    0    0    0    0 -0.00000000000E+00 -0.00000000000E+00 -0.74505805969E-08  0.93827000000E+00  0.93827000000E+00 0.  1.
     999902    2    1    2    0    0 -0.58602567751E-03  0.23146622355E-01  0.54123670926E-02  0.10201517900E+01  0.10198746351E+01 0.  0.
     999903    2    3    3    0    0 -0.99723276812E-01 -0.34226795162E-01  0.73814146954E-01  0.13009633832E+00  0.18982189264E-01 0.  0.
         14    1    1    2    0    0  0.58602567751E-03 -0.23146622355E-01 -0.54123670926E-02  0.23778209985E-01  0.00000000000E+00 0. -1.
     999901    1    3    3    0    0  0.99137251135E-01  0.57373417517E-01 -0.68401779861E-01  0.89005545169E+00  0.88000000000E+00 0.  1.
        -11    1    4    4    0    0 -0.66422102405E-01 -0.24220619926E-01  0.38377296295E-01  0.80446330615E-01  0.51100000000E-03 0. -1.
         11    1    4    4    0    0 -0.33301174407E-01 -0.10006175236E-01  0.35436850659E-01  0.49650007707E-01  0.51100000000E-03 0.  1.
</event>
<event>
 8    1  0.9956970E+004  0.1043930E+01  0.7957747E-01            NaN
         13   -1    0    0    0    0  0.00000000000E+00  0.00000000000E+00  0.74505805969E-08  0.10566000000E+00  0.10566000000E+00 0. -1.
     999900   -1    0    0    0    0 -0.00000000000E+00 -0.00000000000E+00 -0.74505805969E-08  0.93827000000E+00  0.93827000000E+00 0. -1.
     999902    2    1    2    0    0 -0.18025607050E-01 -0.10403040057E-01  0.17187095107E-01  0.10169384830E+01  0.10165802163E+01 0.  0.
     999903    2    3    3    0    0  0.11398486832E+00 -0.49890093192E-01  0.15084330744E-02  0.12607832932E+00  0.20295274053E-01 0.  0.
         14    1    1    2    0    0  0.18025607050E-01  0.10403040057E-01 -0.17187095107E-01  0.26991517004E-01  0.00000000000E+00 0. -1.
     999901    1    3    3    0    0 -0.13201047537E+00  0.39487053134E-01  0.15678662033E-01  0.89086015368E+00  0.88000000000E+00 0. -1.
        -11    1    4    4    0    0  0.10330628129E+00 -0.45484183982E-01  0.73639456531E-02  0.11311714089E+00  0.51100000000E-03 0. -1.
         11    1    4    4    0    0  0.10678587024E-01 -0.44059092095E-02 -0.58555125788E-02  0.12961188424E-01  0.51100000000E-03 0.  1.
</event>
<event>
 8    1  0.9956970E+004  0.1043930E+01  0.7957747E-01            NaN
         13   -1    0    0    0    0  0.00000000000E+00  0.00000000000E+00  0.74505805969E-08  0.10566000000E+00  0.10566000000E+00 0.  1.
     999900   -1    0    0    0    0 -0.00000000000E+00 -0.00000000000E+00 -0.74505805969E-08  0.93827000000E+00  0.93827000000E+00 0.  1.
     999902    2    1    2    0    0  0.53433472983E-02  0.59565977224E-02  0.22508878154E-01  0.10200410483E+01  0.10197612751E+01 0.  0.
     999903    2    3    3    0    0  0.45443254243E-01 -0.10452786842E+00 -0.56330373974E-01  0.12873276973E+00  0.20195304847E-01 0.  0.
         14    1    1    2    0    0 -0.53433472983E-02 -0.59565977224E-02 -0.22508878154E-01  0.23888951684E-01  0.00000000000E+00 0. -1.
     999901    1    3    3    0    0 -0.40099906944E-01  0.11048446614E+00  0.78839252129E-01  0.89130827858E+00  0.88000000000E+00 0. -1.
        -11    1    4    4    0    0  0.14181852236E-01 -0.16577479106E-01 -0.15953689108E-01  0.27031815764E-01  0.51100000000E-03 0. -1.
         11    1    4    4    0    0  0.31261402006E-01 -0.87950389316E-01 -0.40376684867E-01  0.10170095397E+00  0.51100000000E-03 0.  1.
</event>
<event>
 8    1  0.9956970E+004  0.1043930E+01  0.7957747E-01            NaN
         13   -1    0    0    0    0  0.00000000000E+00  0.00000000000E+00  0.74505805969E-08  0.10566000000E+00  0.10566000000E+00 0. -1.
     999900   -1    0    0    0    0 -0.00000000000E+00 -0.00000000000E+00 -0.74505805969E-08  0.93827000000E+00  0.93827000000E+00 0. -1.
     999902    2    1    2    0    0 -0.55041128902E-03 -0.23631765776E-01 -0.60043130736E-02  0.10195411689E+01  0.10192494199E+01 0.  0.
     999903    2    3    3    0    0  0.48431787896E-01  0.16676191353E-01 -0.11834098649E+00  0.13013489761E+00  0.17514823903E-01 0.  0.
         14    1    1    2    0    0  0.55041128902E-03  0.23631765776E-01  0.60043130736E-02  0.24388831086E-01  0.00000000000E+00 0. -1.
     999901    1    3    3    0    0 -0.48982199185E-01 -0.40307957129E-01  0.11233667341E+00  0.88940627131E+00  0.88000000000E+00 0.  1.
        -11    1    4    4    0    0  0.17819943870E-01  0.45551309128E-02 -0.24195777192E-01  0.30397308632E-01  0.51100000000E-03 0. -1.
         11    1    4    4    0    0  0.30611844026E-01  0.12121060440E-01 -0.94145209293E-01  0.99737588976E-01  0.51100000000E-03 0.  1.
</event>
<event>
 8    1  0.9956970E+004  0.1043930E+01  0.7957747E-01            NaN
         13   -1    0    0    0    0  0.00000000000E+00  0.00000000000E+00  0.74505805969E-08  0.10566000000E+00  0.10566000000E+00 0. -1.
     999900   -1    0    0    0    0 -0.00000000000E+00 -0.00000000000E+00 -0.74505805969E-08  0.93827000000E+00  0.93827000000E+00 0. -1.
     999902    2    1    2    0    0  0.11714090808E-01  0.10282427641E-01 -0.18232592434E-01  0.10199430104E+01  0.10196609088E+01 0.  0.
     999903    2    3    3    0    0 -0.16597862681E-01 -0.87182309203E-01 -0.94118319060E-01  0.13086506945E+00  0.19777874902E-01 0.  0.
         14    1    1    2    0    0 -0.11714090808E-01 -0.10282427641E-01  0.18232592434E-01  0.23986989567E-01  0.00000000000E+00 0. -1.
     999901    1    3    3    0    0  0.28311953489E-01  0.97464736844E-01  0.75885726627E-01  0.88907794098E+00  0.88000000000E+00 0.  1.
        -11    1    4    4    0    0 -0.10296695720E-01 -0.66504001224E-01 -0.81990385415E-01  0.10607303400E+00  0.51100000000E-03 0. -1.
         11    1    4    4    0    0 -0.63011669612E-02 -0.20678307980E-01 -0.12127933646E-01  0.24792035444E-01  0.51100000000E-03 0.  1.
</event>
<event>
 8    1  0.9956970E+004  0.1043930E+01  0.7957747E-01            NaN
         13   -1    0    0    0    0  0.00000000000E+00  0.00000000000E+00  0.74505805969E-08  0.10566000000E+00  0.10566000000E+00 0. -1.
     999900   -1    0    0    0    0 -0.00000000000E+00 -0.00000000000E+00 -0.74505805969E-08  0.93827000000E+00  0.93827000000E+00 0. -1.
     999902    2    1    2    0    0 -0.67402598064E-02 -0.17337326712E-01 -0.14391981479E-01  0.10204110049E+01  0.10201399295E+01 0.  0.
     999903    2    3    3    0    0  0.10139940799E+00  0.75963922133E-01  0.92589574944E-02  0.12858216610E+00  0.19881844496E-01 0.  0.
         14    1    1    2    0    0  0.67402598064E-02  0.17337326712E-01  0.14391981479E-01  0.23518995104E-01  0.00000000000E+00 0. -1.
     999901    1    3    3    0    0 -0.10813966779E+00 -0.93301248845E-01 -0.23650938974E-01  0.89182883879E+00  0.88000000000E+00 0. -1.
        -11    1    4    4    0    0  0.65434303459E-01  0.45118831853E-01 -0.33365207699E-02  0.79553444606E-01  0.51100000000E-03 0. -1.
         11    1    4    4    0    0  0.35965104527E-01  0.30845090280E-01  0.12595478264E-01  0.49028721498E-01  0.51100000000E-03 0.  1.
</event>
<event>
 8    1  0.9956970E+004  0.1043930E+01  0.7957747E-01            NaN
         13   -1    0    0    0    0  0.00000000000E+00  0.00000000000E+00  0.74505805969E-08  0.10566000000E+00  0.10566000000E+00 0.  1.
     999900   -1    0    0    0    0 -0.00000000000E+00 -0.00000000000E+00 -0.74505805969E-08  0.93827000000E+00  0.93827000000E+00 0.  1.
     999902    2    1    2    0    0 -0.10576856479E-02  0.23410899757E-01  0.45770324881E-02  0.10200524341E+01  0.10197729307E+01 0.  0.
     999903    2    3    3    0    0 -0.57049010585E-01  0.83582323141E-01 -0.81966152376E-01  0.13199536866E+00  0.21534457524E-01 0.  0.
         14    1    1    2    0    0  0.10576856479E-02 -0.23410899757E-01 -0.45770324881E-02  0.23877565888E-01  0.00000000000E+00 0. -1.
     999901    1    3    3    0    0  0.55991324937E-01 -0.60171423384E-01  0.86543184864E-01  0.88805706546E+00  0.88000000000E+00 0. -1.
        -11    1    4    4    0    0 -0.30576656878E-01  0.33537107400E-01 -0.25623212922E-01  0.52119858788E-01  0.51100000000E-03 0. -1.
         11    1    4    4    0    0 -0.26472353707E-01  0.50045215740E-01 -0.56342939454E-01  0.79875509868E-01  0.51100000000E-03 0.  1.
</event>
<event>
 8    1  0.9956970E+004  0.1043930E+01  0.7957747E-01            NaN
         13   -1    0    0    0    0  0.00000000000E+00  0.00000000000E+00  0.74505805969E-08  0.10566000000E+00  0.10566000000E+00 0.  1.
     999900   -1    0    0    0    0 -0.00000000000E+00 -0.00000000000E+00 -0.74505805969E-08  0.93827000000E+00  0.93827000000E+00 0.  1.
     999902    2    1    2    0    0  0.23637517790E-01 -0.17246278165E-02  0.44015929518E-03  0.10202255631E+01  0.10199501455E+01 0.  0.
     999903    2    3    3    0    0 -0.21766080060E-02 -0.12975999133E+00 -0.26676181303E-02  0.13058008221E+00  0.14200306740E-01 0.  0.
         14    1    1    2    0    0 -0.23637517790E-01  0.17246278165E-02 -0.44015929518E-03  0.23704436896E-01  0.00000000000E+00 0. -1.
     999901    1    3    3    0    0  0.25814125796E-01  0.12803536351E+00  0.31077774255E-02  0.88964548090E+00  0.88000000000E+00 0. -1.
        -11    1    4    4    0    0  0.48769521899E-03 -0.11770073199E+00 -0.57420651510E-02  0.11784283004E+00  0.51100000000E-03 0.  1.
         11    1    4    4    0    0 -0.26643032250E-02 -0.12059259335E-01  0.30744470207E-02  0.12737252171E-01  0.51100000000E-03 0. -1.
</event>
<event>
 8    1  0.9956970E+004  0.1043930E+01  0.7957747E-01            NaN
         13   -1    0    0    0    0  0.00000000000E+00  0.00000000000E+00  0.74505805969E-08  0.10566000000E+00  0.10566000000E+00 0. -1.
     999900   -1    0    0    0    0 -0.00000000000E+00 -0.00000000000E+00 -0.74505805969E-08  0.93827000000E+00  0.93827000000E+00 0.  1.
     999902    2    1    2    0    0 -0.16413729532E-01  0.13719911863E-01 -0.10916164981E-01  0.10199131485E+01  0.10196303356E+01 0.  0.
     999903    2    3    3    0    0  0.54370460250E-01  0.74618860109E-01 -0.91392581537E-01  0.13132126408E+00  0.19197635444E-01 0.  0.
         14    1    1    2    0    0  0.16413729532E-01 -0.13719911863E-01  0.10916164981E-01  0.24016851512E-01  0.00000000000E+00 0. -1.
     999901    1    3    3    0    0 -0.70784189782E-01 -0.60898948247E-01  0.80476416556E-01  0.88859188441E+00  0.88000000000E+00 0. -1.
        -11    1    4    4    0    0  0.38307650225E-01  0.65097432415E-01 -0.75471508470E-01  0.10677715807E+00  0.51100000000E-03 0.  1.
         11    1    4    4    0    0  0.16062810025E-01  0.95214276941E-02 -0.15921073068E-01  0.24544106011E-01  0.51100000000E-03 0. -1.
</event>
<event>
 8    1  0.9956970E+004  0.1043930E+01  0.7957747E-01            NaN
         13   -1    0    0    0    0  0.00000000000E+00  0.00000000000E+00  0.74505805969E-08  0.10566000000E+00  0.10566000000E+00 0.  1.
     999900   -1    0    0    0    0 -0.00000000000E+00 -0.00000000000E+00 -0.74505805969E-08  0.93827000000E+00  0.93827000000E+00 0.  1.
     999902    2    1    2    0    0 -0.59729367246E-02 -0.20367932364E-01 -0.11009094873E-01  0.10200191487E+01  0.10197388562E+01 0.  0.
     999903    2    3    3    0    0  0.59596733328E-01 -0.43337078888E-01  0.10430117767E+00  0.12978130276E+00  0.23120939681E-01 0.  0.
         14    1    1    2    0    0  0.59729367246E-02  0.20367932364E-01  0.11009094873E-01  0.23910851341E-01  0.00000000000E+00 0.  1.
     999901    1    3    3    0    0 -0.65569670053E-01  0.22969146524E-01 -0.11531027254E+00  0.89023784590E+00  0.88000000000E+00 0.  1.
        -11    1    4    4    0    0  0.47313094738E-01 -0.24545747594E-01  0.61031429255E-01  0.81031593447E-01  0.51100000000E-03 0. -1.
         11    1    4    4    0    0  0.12283638590E-01 -0.18791331294E-01  0.43269748416E-01  0.48749709310E-01  0.51100000000E-03 0.  1.
</event>
<event>
 8    1  0.9956970E+004  0.1043930E+01  0.7957747E-01            NaN
         13   -1    0    0    0    0  0.00000000000E+00  0.00000000000E+00  0.74505805969E-08  0.10566000000E+00  0.10566000000E+00 0. -1.
     999900   -1    0    0    0    0 -0.00000000000E+00 -0.00000000000E+00 -0.74505805969E-08  0.93827000000E+00  0.93827000000E+00 0. -1.
     999902    2    1    2    0    0  0.19694775899E-01 -0.84338578474E-02  0.11371612578E-01  0.10196745320E+01  0.10193860032E+01 0.  0.
     999903    2    3    3    0    0  0.50339218301E-01  0.47668628884E-01  0.11023503561E+00  0.13183414809E+00  0.20546154087E-01 0.  0.
         14    1    1    2    0    0 -0.19694775899E-01  0.84338578474E-02 -0.11371612578E-01  0.24255468013E-01  0.00000000000E+00 0. -1.
     999901    1    3    3    0    0 -0.30644442402E-01 -0.56102486731E-01 -0.98863423031E-01  0.88784038390E+00  0.88000000000E+00 0. -1.
        -11    1    4    4    0    0  0.38102149935E-01  0.24311130176E-01  0.78368223280E-01  0.90469024650E-01  0.51100000000E-03 0. -1.
         11    1    4    4    0    0  0.12237068367E-01  0.23357498708E-01  0.31866812329E-01  0.41365123439E-01  0.51100000000E-03 0.  1.
</event>
<event>
 8    1  0.9956970E+004  0.1043930E+01  0.7957747E-01            NaN
         13   -1    0    0    0    0  0.00000000000E+00  0.00000000000E+00  0.74505805969E-08  0.10566000000E+00  0.10566000000E+00 0. -1.
     999900   -1    0    0    0    0 -0.00000000000E+00 -0.00000000000E+00 -0.74505805969E-08  0.93827000000E+00  0.93827000000E+00 0. -1.
     999902    2    1    2    0    0 -0.12326526887E-01 -0.23786998100E-02  0.13368410507E-01  0.10255910830E+01  0.10254271079E+01 0.  0.
     999903    2    3    3    0    0 -0.10634650814E+00 -0.34239630547E-01 -0.74317724784E-01  0.13567887714E+00  0.20092321730E-01 0.  0.
         14    1    1    2    0    0  0.12326526887E-01  0.23786998100E-02 -0.13368410507E-01  0.18338917017E-01  0.00000000000E+00 0.  1.
     999901    1    3    3    0    0  0.94019981250E-01  0.31860930737E-01  0.87686135292E-01  0.88991220584E+00  0.88000000000E+00 0.  1.
        -11    1    4    4    0    0 -0.92719686070E-01 -0.35262538186E-01 -0.60266925600E-01  0.11607217680E+00  0.51100000000E-03 0.  1.
         11    1    4    4    0    0 -0.13626822067E-01  0.10229076393E-02 -0.14050799184E-01  0.19606700344E-01  0.51100000000E-03 0. -1.
</event>
<event>
 8    1  0.9956970E+004  0.1043930E+01  0.7957747E-01            NaN
         13   -1    0    0    0    0  0.00000000000E+00  0.00000000000E+00  0.74505805969E-08  0.10566000000E+00  0.10566000000E+00 0. -1.
     999900   -1    0    0    0    0 -0.00000000000E+00 -0.00000000000E+00 -0.74505805969E-08  0.93827000000E+00  0.93827000000E+00 0. -1.
     999902    2    1    2    0    0  0.30330957070E-02  0.10658540192E-01 -0.20606261088E-01  0.10205329458E+01  0.10202647065E+01 0.  0.
     999903    2    3    3    0    0  0.99974100727E-01 -0.19967418779E-01 -0.82250180215E-01  0.13253774280E+00  0.20190158275E-01 0.  0.
         14    1    1    2    0    0 -0.30330957070E-02 -0.10658540192E-01  0.20606261088E-01  0.23397054186E-01  0.00000000000E+00 0. -1.
     999901    1    3    3    0    0 -0.96941005020E-01  0.30625958971E-01  0.61643919127E-01  0.88799520302E+00  0.88000000000E+00 0.  1.
        -11    1    4    4    0    0  0.21476931168E-01 -0.68466472583E-02 -0.86974317998E-02  0.24166952476E-01  0.51100000000E-03 0. -1.
         11    1    4    4    0    0  0.78497169559E-01 -0.13120771521E-01 -0.73552748415E-01  0.10837079032E+00  0.51100000000E-03 0.  1.
</event>
<event>
 8    1  0.9956970E+004  0.1043930E+01  0.7957747E-01            NaN
         13   -1    0    0    0    0  0.00000000000E+00  0.00000000000E+00  0.74505805969E-08  0.10566000000E+00  0.10566000000E+00 0.  1.
     999900   -1    0    0    0    0 -0.00000000000E+00 -0.00000000000E+00 -0.74505805969E-08  0.93827000000E+00  0.93827000000E+00 0.  1.
     999902    2    1    2    0    0 -0.11204471673E-02 -0.18336784440E-01 -0.17792839119E-01  0.10183550476E+01  0.10180338525E+01 0.  0.
     999903    2    3    3    0    0 -0.75268002266E-01 -0.10503923030E+00  0.53806496820E-04  0.13081142795E+00  0.20325223767E-01 0.  0.
         14    1    1    2    0    0  0.11204471673E-02  0.18336784440E-01  0.17792839119E-01  0.25574952383E-01  0.00000000000E+00 0. -1.
     999901    1    3    3    0    0  0.74147555099E-01  0.86702445859E-01 -0.17846645616E-01  0.88754361966E+00  0.88000000000E+00 0. -1.
        -11    1    4    4    0    0 -0.41240965312E-01 -0.59318797341E-01  0.10057734347E-01  0.72944883844E-01  0.51100000000E-03 0.  1.
         11    1    4    4    0    0 -0.34027036954E-01 -0.45720432958E-01 -0.10003927850E-01  0.57866544110E-01  0.51100000000E-03 0. -1.
</event>
<event>
 8    1  0.9956970E+004  0.1043930E+01  0.7957747E-01            NaN
         13   -1    0    0    0    0  0.00000000000E+00  0.00000000000E+00  0.74505805969E-08  0.10566000000E+00  0.10566000000E+00 0. -1.
     999900   -1    0    0    0    0 -0.00000000000E+00 -0.00000000000E+00 -0.74505805969E-08  0.93827000000E+00  0.93827000000E+00 0.  1.
     999902    2    1    2    0    0  0.19547981283E-02 -0.23420382409E-01 -0.49188407287E-02  0.10199189496E+01  0.10196362749E+01 0.  0.
     999903    2    3    3    0    0  0.10618648515E+00  0.64967321277E-01  0.26437638934E-01  0.12881858511E+00  0.19973899354E-01 0.  0.
         14    1    1    2    0    0 -0.19547981283E-02  0.23420382409E-01  0.49188407287E-02  0.24011050415E-01  0.00000000000E+00 0. -1.
     999901    1    3    3    0    0 -0.10423168702E+00 -0.88387703686E-01 -0.31356479663E-01  0.89110036447E+00  0.88000000000E+00 0. -1.
        -11    1    4    4    0    0  0.61170699403E-01  0.44591001679E-01  0.23717672472E-01  0.79328437554E-01  0.51100000000E-03 0. -1.
         11    1    4    4    0    0  0.45015785750E-01  0.20376319598E-01  0.27199664622E-02  0.49490147561E-01  0.51100000000E-03 0.  1.
</event>
<event>
 8    1  0.1172799E+005  0.1043930E+01  0.7957747E-01            NaN
         13   -1    0    0    0    0  0.00000000000E+00  0.00000000000E+00  0.74505805969E-08  0.10566000000E+00  0.10566000000E+00 0. -1.
     999900   -1    0    0    0    0 -0.00000000000E+00 -0.00000000000E+00 -0.74505805969E-08  0.93827000000E+00  0.93827000000E+00 0.  1.
     999902    2    1    2    0    0  0.18776095341E-01 -0.99856328194E-02 -0.10291806543E-01  0.10203042534E+01  0.10200306827E+01 0.  0.
     999903    2    3    3    0    0  0.50475076602E-01 -0.43387967012E-01 -0.11416076883E+00  0.13299973824E+00  0.15033302839E-01 0.  0.
         14    1    1    2    0    0 -0.18776095341E-01  0.99856328194E-02  0.10291806543E-01  0.23625746570E-01  0.00000000000E+00 0. -1.
     999901    1    3    3    0    0 -0.31698981261E-01  0.33402334193E-01  0.10386896229E+00  0.88730451519E+00  0.88000000000E+00 0. -1.
        -11    1    4    4    0    0  0.33098120206E-01 -0.36781599547E-01 -0.78855251558E-01  0.93095560827E-01  0.51100000000E-03 0.  1.
         11    1    4    4    0    0  0.17376956396E-01 -0.66063674657E-02 -0.35305517271E-01  0.39904177418E-01  0.51100000000E-03 0. -1.
</event>
<event>
 7    1  0.1165715E+005  0.1043930E+01  0.7957747E-01            NaN
         13   -1    0    0    0    0  0.00000000000E+00  0.00000000000E+00  0.74505805969E-08  0.10566000000E+00  0.10566000000E+00 0. -1.
     999900   -1    0    0    0    0 -0.00000000000E+00 -0.00000000000E+00 -0.74505805969E-08  0.93827000000E+00  0.93827000000E+00 0.  1.
     999903    2    1    2    0    0 -0.79502172012E-01  0.49877438919E-02  0.53894207829E-01  0.98159797137E-01  0.19628733853E-01 0.  0.
         14    1    1    2    0    0 -0.51477408214E-01 -0.17090368049E-01 -0.78264687658E-02  0.54801987645E-01  0.00000000000E+00 0.  1.
     999901    1    1    2    0    0  0.13097958023E+00  0.12102624157E-01 -0.46067739063E-01  0.89096821522E+00  0.88000000000E+00 0. -1.
        -11    1    3    3    0    0 -0.25196146418E-01  0.10147869203E-01  0.22072416148E-01  0.35003967194E-01  0.51100000000E-03 0.  1.
         11    1    3    3    0    0 -0.54306025594E-01 -0.51601253112E-02  0.31821791681E-01  0.63155829943E-01  0.51100000000E-03 0. -1.
</event>
<event>
 8    1  0.9956970E+004  0.1043930E+01  0.7957747E-01            NaN
         13   -1    0    0    0    0  0.00000000000E+00  0.00000000000E+00  0.74505805969E-08  0.10566000000E+00  0.10566000000E+00 0. -1.
     999900   -1    0    0    0    0 -0.00000000000E+00 -0.00000000000E+00 -0.74505805969E-08  0.93827000000E+00  0.93827000000E+00 0.  1.
     999902    2    1    2    0    0  0.32129802591E-04  0.22933075879E-01 -0.11402950984E-01  0.10183183954E+01  0.10179962672E+01 0.  0.
     999903    2    3    3    0    0  0.10666529988E+00  0.17231476143E-01  0.66275155356E-01  0.12846614390E+00  0.20898419654E-01 0.  0.
         14    1    1    2    0    0 -0.32129802591E-04 -0.22933075879E-01  0.11402950984E-01  0.25611604650E-01  0.00000000000E+00 0. -1.
     999901    1    3    3    0    0 -0.10663317007E+00  0.57015997362E-02 -0.77678106340E-01  0.88985225145E+00  0.88000000000E+00 0.  1.
        -11    1    4    4    0    0  0.25938632269E-01  0.56731842326E-02  0.64629358972E-02  0.27331818907E-01  0.51100000000E-03 0.  1.
         11    1    4    4    0    0  0.80726667608E-01  0.11558291910E-01  0.59812219459E-01  0.10113432500E+00  0.51100000000E-03 0. -1.
</event>
<event>
 8    1  0.9956970E+004  0.1043930E+01  0.7957747E-01            NaN
         13   -1    0    0    0    0  0.00000000000E+00  0.00000000000E+00  0.74505805969E-08  0.10566000000E+00  0.10566000000E+00 0.  1.
     999900   -1    0    0    0    0 -0.00000000000E+00 -0.00000000000E+00 -0.74505805969E-08  0.93827000000E+00  0.93827000000E+00 0. -1.
     999902    2    1    2    0    0  0.14772138822E-02 -0.93349022026E-02  0.21815984515E-01  0.10201548083E+01  0.10198777246E+01 0.  0.
     999903    2    3    3    0    0 -0.38348166688E-01 -0.82239736279E-01  0.95348231690E-01  0.13318910031E+00  0.20349325404E-01 0.  0.
         14    1    1    2    0    0 -0.14772138822E-02  0.93349022026E-02 -0.21815984515E-01  0.23775191700E-01  0.00000000000E+00 0. -1.
     999901    1    3    3    0    0  0.39825380570E-01  0.72904834077E-01 -0.73532247175E-01  0.88696570799E+00  0.88000000000E+00 0. -1.
        -11    1    4    4    0    0 -0.23911037616E-01 -0.60832350338E-01  0.55735102804E-01  0.85900962585E-01  0.51100000000E-03 0.  1.
         11    1    4    4    0    0 -0.14437129071E-01 -0.21407385941E-01  0.39613128887E-01  0.47288137729E-01  0.51100000000E-03 0. -1.
</event>
<event>
 8    1  0.9956970E+004  0.1043930E+01  0.7957747E-01            NaN
         13   -1    0    0    0    0  0.00000000000E+00  0.00000000000E+00  0.74505805969E-08  0.10566000000E+00  0.10566000000E+00 0. -1.
     999900   -1    0    0    0    0 -0.00000000000E+00 -0.00000000000E+00 -0.74505805969E-08  0.93827000000E+00  0.93827000000E+00 0.  1.
     999902    2    1    2    0    0 -0.19965192998E-01 -0.98875780081E-02  0.64544803040E-02  0.10207344520E+01  0.10204708659E+01 0.  0.
     999903    2    3    3    0    0 -0.12483738662E+00  0.16895825485E-01 -0.37767589656E-01  0.13300075368E+00  0.19823411252E-01 0.  0.
         14    1    1    2    0    0  0.19965192998E-01  0.98875780081E-02 -0.64544803040E-02  0.23195547984E-01  0.00000000000E+00 0.  1.
     999901    1    3    3    0    0  0.10487219362E+00 -0.26783403493E-01  0.44222069960E-01  0.88773369834E+00  0.88000000000E+00 0. -1.
        -11    1    4    4    0    0 -0.90357880771E-01  0.19403618547E-01 -0.22004977520E-01  0.95002774627E-01  0.51100000000E-03 0. -1.
         11    1    4    4    0    0 -0.34479505846E-01 -0.25077930623E-02 -0.15762612137E-01  0.37997979049E-01  0.51100000000E-03 0.  1.
</event>
<event>
 7    1  0.9956970E+004  0.1043930E+01  0.7957747E-01            NaN
         13   -1    0    0    0    0  0.00000000000E+00  0.00000000000E+00  0.74505805969E-08  0.10566000000E+00  0.10566000000E+00 0.  1.
     999900   -1    0    0    0    0 -0.00000000000E+00 -0.00000000000E+00 -0.74505805969E-08  0.93827000000E+00  0.93827000000E+00 0. -1.
     999903    2    1    2    0    0  0.87761725551E-02 -0.44773111760E-01 -0.45850057443E-01  0.67500870206E-01  0.19299921495E-01 0.  0.
         14    1    1    2    0    0  0.54097304207E-01  0.30665843717E-01  0.70143054926E-01  0.93738788384E-01  0.00000000000E+00 0.  1.
     999901    1    1    2    0    0 -0.62873476762E-01  0.14107268043E-01 -0.24292997483E-01  0.88269034141E+00  0.88000000000E+00 0. -1.
        -11    1    3    3    0    0  0.85197161387E-03 -0.35971957096E-03 -0.95089298597E-02  0.95674511693E-02  0.51100000000E-03 0. -1.
         11    1    3    3    0    0  0.79242009412E-02 -0.44413392189E-01 -0.36341127583E-01  0.57933419037E-01  0.51100000000E-03 0.  1.
</event>
<event>
 8    1  0.1027260E+005  0.1043930E+01  0.7957747E-01            NaN
         13   -1    0    0    0    0  0.00000000000E+00  0.00000000000E+00  0.74505805969E-08  0.10566000000E+00  0.10566000000E+00 0.  1.
     999900   -1    0    0    0    0 -0.00000000000E+00 -0.00000000000E+00 -0.74505805969E-08  0.93827000000E+00  0.93827000000E+00 0. -1.
     999902    2    1    2    0    0 -0.17397399352E-01 -0.17130017863E-01  0.12954126578E-02  0.10194803556E+01  0.10191871322E+01 0.  0.
     999903    2    3    3    0    0 -0.70735422634E-01  0.10342883049E+00 -0.24925269950E-01  0.12927425317E+00  0.19736779374E-01 0.  0.
         14    1    1    2    0    0  0.17397399352E-01  0.17130017863E-01 -0.12954126578E-02  0.24449644377E-01  0.00000000000E+00 0.  1.
     999901    1    3    3    0    0  0.53338023282E-01 -0.12055884835E+00  0.26220682607E-01  0.89020610245E+00  0.88000000000E+00 0.  1.
        -11    1    4    4    0    0 -0.41199836224E-01  0.42849897204E-01 -0.11090131899E-01  0.60471417561E-01  0.51100000000E-03 0. -1.
         11    1    4    4    0    0 -0.29535586410E-01  0.60578933284E-01 -0.13835138051E-01  0.68802835613E-01  0.51100000000E-03 0.  1.
</event>
<event>
 8    1  0.9956970E+004  0.1043930E+01  0.7957747E-01            NaN
         13   -1    0    0    0    0  0.00000000000E+00  0.00000000000E+00  0.74505805969E-08  0.10566000000E+00  0.10566000000E+00 0.  1.
     999900   -1    0    0    0    0 -0.00000000000E+00 -0.00000000000E+00 -0.74505805969E-08  0.93827000000E+00  0.93827000000E+00 0. -1.
     999902    2    1    2    0    0 -0.99213568204E-02 -0.16831052611E-01 -0.16535441726E-01  0.10183343268E+01  0.10180126044E+01 0.  0.
     999903    2    3    3    0    0  0.99393172095E-01  0.43680816640E-01  0.61412552633E-01  0.12609711486E+00  0.18492278233E-01 0.  0.
         14    1    1    2    0    0  0.99213568204E-02  0.16831052611E-01  0.16535441726E-01  0.25595673194E-01  0.00000000000E+00 0.  1.
     999901    1    3    3    0    0 -0.10931452892E+00 -0.60511869251E-01 -0.77947994360E-01  0.89223721194E+00  0.88000000000E+00 0. -1.
        -11    1    4    4    0    0  0.22761718296E-01  0.15206442949E-01  0.23058363081E-01  0.35794985067E-01  0.51100000000E-03 0. -1.
         11    1    4    4    0    0  0.76631453799E-01  0.28474373691E-01  0.38354189552E-01  0.90302129796E-01  0.51100000000E-03 0.  1.
</event>
<event>
 8    1  0.9956970E+004  0.1043930E+01  0.7957747E-01            NaN
         13   -1    0    0    0    0  0.00000000000E+00  0.00000000000E+00  0.74505805969E-08  0.10566000000E+00  0.10566000000E+00 0.  1.
     999900   -1    0    0    0    0 -0.00000000000E+00 -0.00000000000E+00 -0.74505805969E-08  0.93827000000E+00  0.93827000000E+00 0. -1.
     999902    2    1    2    0    0 -0.91821153990E-02 -0.21602849037E-01  0.67845804931E-02  0.10194959078E+01  0.10192030618E+01 0.  0.
     999903    2    3    3    0    0 -0.29130095576E-01  0.55627564864E-01 -0.11013332796E+00  0.12818661464E+00  0.18959688936E-01 0.  0.
         14    1    1    2    0    0  0.91821153990E-02  0.21602849037E-01 -0.67845804931E-02  0.24434092211E-01  0.00000000000E+00 0. -1.
     999901    1    3    3    0    0  0.19947980177E-01 -0.77230413901E-01  0.11691790845E+00  0.89130929315E+00  0.88000000000E+00 0.  1.
        -11    1    4    4    0    0 -0.12264307282E-01  0.12517908850E-01 -0.44850174320E-01  0.48155067569E-01  0.51100000000E-03 0. -1.
         11    1    4    4    0    0 -0.16865788294E-01  0.43109656013E-01 -0.65283153635E-01  0.80031547067E-01  0.51100000000E-03 0.  1.
</event>
<event>
 8    1  0.9956970E+004  0.1043930E+01  0.7957747E-01            NaN
         13   -1    0    0    0    0  0.00000000000E+00  0.00000000000E+00  0.74505805969E-08  0.10566000000E+00  0.10566000000E+00 0. -1.
     999900   -1    0    0    0    0 -0.00000000000E+00 -0.00000000000E+00 -0.74505805969E-08  0.93827000000E+00  0.93827000000E+00 0. -1.
     999902    2    1    2    0    0 -0.77617739832E-02 -0.21067426982E-01 -0.58218115886E-02  0.10207357096E+01  0.10204721524E+01 0.  0.
     999903    2    3    3    0    0  0.34424231807E-02  0.31815365030E-01  0.12386238223E+00  0.12959031530E+00  0.20680724369E-01 0.  0.
         14    1    1    2    0    0  0.77617739832E-02  0.21067426982E-01  0.58218115886E-02  0.23194290357E-01  0.00000000000E+00 0. -1.
     999901    1    3    3    0    0 -0.11204197164E-01 -0.52882792012E-01 -0.12968419382E+00  0.89114539434E+00  0.88000000000E+00 0.  1.
        -11    1    4    4    0    0  0.13877183720E-02  0.33561023469E-01  0.98314424736E-01  0.10389540553E+00  0.51100000000E-03 0.  1.
         11    1    4    4    0    0  0.20547048087E-02 -0.17456584389E-02  0.25547957491E-01  0.25694909772E-01  0.51100000000E-03 0. -1.
</event>
<event>
 8    1  0.9956970E+004  0.1043930E+01  0.7957747E-01            NaN
         13   -1    0    0    0    0  0.00000000000E+00  0.00000000000E+00  0.74505805969E-08  0.10566000000E+00  0.10566000000E+00 0. -1.
     999900   -1    0    0    0    0 -0.00000000000E+00 -0.00000000000E+00 -0.74505805969E-08  0.93827000000E+00  0.93827000000E+00 0.  1.
     999902    2    1    2    0    0  0.73921523799E-02  0.20102647617E-01 -0.97410495726E-02  0.10204002655E+01  0.10201289396E+01 0.  0.
     999903    2    3    3    0    0  0.63125208060E-01  0.10513798215E+00 -0.49342425041E-01  0.13366160585E+00  0.19798050076E-01 0.  0.
         14    1    1    2    0    0 -0.73921523799E-02 -0.20102647617E-01  0.97410495726E-02  0.23529734482E-01  0.00000000000E+00 0. -1.
     999901    1    3    3    0    0 -0.55733055680E-01 -0.85035334528E-01  0.39601375469E-01  0.88673865967E+00  0.88000000000E+00 0. -1.
        -11    1    4    4    0    0  0.52680545328E-01  0.70591466162E-01 -0.36586643206E-01  0.95379445024E-01  0.51100000000E-03 0. -1.
         11    1    4    4    0    0  0.10444662731E-01  0.34546515983E-01 -0.12755781835E-01  0.38282160824E-01  0.51100000000E-03 0.  1.
</event>
<event>
 8    1  0.9956970E+004  0.1043930E+01  0.7957747E-01            NaN
         13   -1    0    0    0    0  0.00000000000E+00  0.00000000000E+00  0.74505805969E-08  0.10566000000E+00  0.10566000000E+00 0.  1.
     999900   -1    0    0    0    0 -0.00000000000E+00 -0.00000000000E+00 -0.74505805969E-08  0.93827000000E+00  0.93827000000E+00 0.  1.
     999902    2    1    2    0    0 -0.62959534371E-02  0.85674291548E-02 -0.21543401185E-01  0.10199058870E+01  0.10196229010E+01 0.  0.
     999903    2    3    3    0    0  0.87152285741E-01 -0.28651137278E-01  0.86596348082E-01  0.12759876470E+00  0.19133966510E-01 0.  0.
         14    1    1    2    0    0  0.62959534371E-02 -0.85674291548E-02  0.21543401185E-01  0.24024113025E-01  0.00000000000E+00 0.  1.
     999901    1    3    3    0    0 -0.93448239179E-01  0.37218566432E-01 -0.10813974927E+00  0.89230712228E+00  0.88000000000E+00 0.  1.
        -11    1    4    4    0    0  0.45252592988E-01 -0.15258209085E-01  0.57989783639E-01  0.75124471673E-01  0.51100000000E-03 0.  1.
         11    1    4    4    0    0  0.41899692753E-01 -0.13392928193E-01  0.28606564443E-01  0.52474293027E-01  0.51100000000E-03 0. -1.
</event>
<event>
 8    1  0.9956970E+004  0.1043930E+01  0.7957747E-01            NaN
         13   -1    0    0    0    0  0.00000000000E+00  0.00000000000E+00  0.74505805969E-08  0.10566000000E+00  0.10566000000E+00 0. -1.
     999900   -1    0    0    0    0 -0.00000000000E+00 -0.00000000000E+00 -0.74505805969E-08  0.93827000000E+00  0.93827000000E+00 0.  1.
     999902    2    1    2    0    0 -0.11100198237E-01  0.43429825146E-02  0.20500944195E-01  0.10202157720E+01  0.10199401241E+01 0.  0.
     999903    2    3    3    0    0 -0.42676247302E-01  0.27026652025E-01  0.12180507874E+00  0.13355116604E+00  0.21159743413E-01 0.  0.
         14    1    1    2    0    0  0.11100198237E-01 -0.43429825146E-02 -0.20500944195E-01  0.23714228027E-01  0.00000000000E+00 0.  1.
     999901    1    3    3    0    0  0.31576049064E-01 -0.22683669510E-01 -0.10130413454E+00  0.88666460593E+00  0.88000000000E+00 0.  1.
        -11    1    4    4    0    0 -0.16759702358E-01  0.17934929076E-02  0.55681218150E-01  0.58178719611E-01  0.51100000000E-03 0.  1.
         11    1    4    4    0    0 -0.25916544943E-01  0.25233159117E-01  0.66123860588E-01  0.75372446430E-01  0.51100000000E-03 0. -1.
</event>
<event>
 8    1  0.9956970E+004  0.1043930E+01  0.7957747E-01            NaN
         13   -1    0    0    0    0  0.00000000000E+00  0.00000000000E+00  0.74505805969E-08  0.10566000000E+00  0.10566000000E+00 0. -1.
     999900   -1    0    0    0    0 -0.00000000000E+00 -0.00000000000E+00 -0.74505805969E-08  0.93827000000E+00  0.93827000000E+00 0. -1.
     999902    2    1    2    0    0  0.15478577183E-01 -0.18075321652E-01 -0.31433612345E-02  0.10199261602E+01  0.10196436573E+01 0.  0.
     999903    2    3    3    0    0 -0.87436828870E-01  0.75775087877E-01  0.48557903419E-01  0.12747307969E+00  0.22460032867E-01 0.  0.
         14    1    1    2    0    0 -0.15478577183E-01  0.18075321652E-01  0.31433612345E-02  0.24003839782E-01  0.00000000000E+00 0. -1.
     999901    1    3    3    0    0  0.10291540605E+00 -0.93850409529E-01 -0.51701264653E-01  0.89245308052E+00  0.88000000000E+00 0. -1.
        -11    1    4    4    0    0 -0.42505471265E-01  0.43487693856E-01  0.36223861862E-01  0.70783641426E-01  0.51100000000E-03 0.  1.
         11    1    4    4    0    0 -0.44931357604E-01  0.32287394022E-01  0.12334041557E-01  0.56689438267E-01  0.51100000000E-03 0. -1.
</event>
<event>
 8    1  0.9956970E+004  0.1043930E+01  0.7957747E-01            NaN
         13   -1    0    0    0    0  0.00000000000E+00  0.00000000000E+00  0.74505805969E-08  0.10566000000E+00  0.10566000000E+00 0. -1.
     999900   -1    0    0    0    0 -0.00000000000E+00 -0.00000000000E+00 -0.74505805969E-08  0.93827000000E+00  0.93827000000E+00 0. -1.
     999902    2    1    2    0    0  0.85992579113E-02 -0.14988538971E-01  0.82625290140E-02  0.10247760729E+01  0.10245970558E+01 0.  0.
     999903    2    3    3    0    0 -0.10489664379E+00  0.18650077874E-01  0.78588288439E-01  0.13406928127E+00  0.21149983868E-01 0.  0.
         14    1    1    2    0    0 -0.85992579113E-02  0.14988538971E-01 -0.82625290140E-02  0.19153927086E-01  0.00000000000E+00 0. -1.
     999901    1    3    3    0    0  0.11349590170E+00 -0.33638616845E-01 -0.70325759425E-01  0.89070679165E+00  0.88000000000E+00 0.  1.
        -11    1    4    4    0    0 -0.30526846459E-01 -0.23571092673E-02  0.29471195720E-01  0.42500080200E-01  0.51100000000E-03 0. -1.
         11    1    4    4    0    0 -0.74369797327E-01  0.21007187142E-01  0.49117092719E-01  0.91569201068E-01  0.51100000000E-03 0.  1.
</event>
<event>
 8    1  0.9956970E+004  0.1043930E+01  0.7957747E-01            NaN
         13   -1    0    0    0    0  0.00000000000E+00  0.00000000000E+00  0.74505805969E-08  0.10566000000E+00  0.10566000000E+00 0.  1.
     999900   -1    0    0    0    0 -0.00000000000E+00 -0.00000000000E+00 -0.74505805969E-08  0.93827000000E+00  0.93827000000E+00 0. -1.
     999902    2    1    2    0    0  0.20573697232E-01 -0.69351669139E-02  0.10894381903E-01  0.10196388264E+01  0.10193494372E+01 0.  0.
     999903    2    3    3    0    0 -0.40750873064E-01  0.11781782010E+00 -0.24025681426E-01  0.12804282960E+00  0.16615067069E-01 0.  0.
         14    1    1    2    0    0 -0.20573697232E-01  0.69351669139E-02 -0.10894381903E-01  0.24291173602E-01  0.00000000000E+00 0. -1.
     999901    1    3    3    0    0  0.61324570297E-01 -0.12475298702E+00  0.34920063328E-01  0.89159599680E+00  0.88000000000E+00 0.  1.
        -11    1    4    4    0    0 -0.17473715304E-01  0.58541418005E-01 -0.19774080747E-01  0.64216070722E-01  0.51100000000E-03 0. -1.
         11    1    4    4    0    0 -0.23277157761E-01  0.59276402097E-01 -0.42516006792E-02  0.63826758873E-01  0.51100000000E-03 0.  1.
</event>
<event>
 8    1  0.9956970E+004  0.1043930E+01  0.7957747E-01            NaN
         13   -1    0    0    0    0  0.00000000000E+00  0.00000000000E+00  0.74505805969E-08  0.10566000000E+00  0.10566000000E+00 0.  1.
     999900   -1    0    0    0    0 -0.00000000000E+00 -0.00000000000E+00 -0.74505805969E-08  0.93827000000E+00  0.93827000000E+00 0.  1.
     999902    2    1    2    0    0  0.83733309810E-02 -0.22152483652E-01  0.48073925589E-02  0.10197648137E+01  0.10194784545E+01 0.  0.
     999903    2    3    3    0    0 -0.11414770855E+00 -0.75398714404E-02  0.57577224119E-01  0.12959090450E+00  0.19801938376E-01 0.  0.
         14    1    1    2    0    0 -0.83733309810E-02  0.22152483652E-01 -0.48073925589E-02  0.24165186258E-01  0.00000000000E+00 0. -1.
     999901    1    3    3    0    0  0.12252103954E+00 -0.14612612211E-01 -0.52769831560E-01  0.89017390924E+00  0.88000000000E+00 0. -1.
        -11    1    4    4    0    0 -0.75182404450E-01  0.44308313006E-02  0.38419959646E-01  0.84548096520E-01  0.51100000000E-03 0. -1.
         11    1    4    4    0    0 -0.38965304104E-01 -0.11970702741E-01  0.19157264473E-01  0.45042807984E-01  0.51100000000E-03 0.  1.
</event>
<event>
 8    1  0.9956970E+004  0.1043930E+01  0.7957747E-01            NaN
         13   -1    0    0    0    0  0.00000000000E+00  0.00000000000E+00  0.74505805969E-08  0.10566000000E+00  0.10566000000E+00 0.  1.
     999900   -1    0    0    0    0 -0.00000000000E+00 -0.00000000000E+00 -0.74505805969E-08  0.93827000000E+00  0.93827000000E+00 0.  1.
     999902    2    1    2    0    0  0.90930575592E-02  0.12586080830E-02  0.21945773926E-01  0.10201416671E+01  0.10198642734E+01 0.  0.
     999903    2    3    3    0    0 -0.85470074164E-01 -0.46830217438E-01 -0.80515566278E-01  0.12786757956E+00  0.19213501652E-01 0.  0.
         14    1    1    2    0    0 -0.90930575592E-02 -0.12586080830E-02 -0.21945773926E-01  0.23788332924E-01  0.00000000000E+00 0. -1.
     999901    1    3    3    0    0  0.94563131723E-01  0.48088825522E-01  0.10246134020E+00  0.89227408752E+00  0.88000000000E+00 0. -1.
        -11    1    4    4    0    0 -0.74942537071E-01 -0.36866731226E-01 -0.75301628558E-01  0.11245504043E+00  0.51100000000E-03 0. -1.
         11    1    4    4    0    0 -0.10527537093E-01 -0.99634862123E-02 -0.52139377200E-02  0.15412539126E-01  0.51100000000E-03 0.  1.
</event>
<event>
 8    1  0.9956970E+004  0.1043930E+01  0.7957747E-01            NaN
         13   -1    0    0    0    0  0.00000000000E+00  0.00000000000E+00  0.74505805969E-08  0.10566000000E+00  0.10566000000E+00 0.  1.
     999900   -1    0    0    0    0 -0.00000000000E+00 -0.00000000000E+00 -0.74505805969E-08  0.93827000000E+00  0.93827000000E+00 0.  1.
     999902    2    1    2    0    0 -0.22451380856E-02  0.22592132440E-02  0.26374472656E-01  0.10173639032E+01  0.10170169881E+01 0.  0.
     999903    2    3    3    0    0  0.72664654602E-01 -0.21866262616E-01 -0.97654221938E-01  0.12518867789E+00  0.19431225939E-01 0.  0.
         14    1    1    2    0    0  0.22451380856E-02 -0.22592132440E-02 -0.26374472656E-01  0.26566096766E-01  0.00000000000E+00 0. -1.
     999901    1    3    3    0    0 -0.74909792687E-01  0.24125475860E-01  0.12402869459E+00  0.89217522534E+00  0.88000000000E+00 0. -1.
        -11    1    4    4    0    0  0.66045454159E-01 -0.23758000816E-01 -0.81121073163E-01  0.10727224361E+00  0.51100000000E-03 0. -1.
         11    1    4    4    0    0  0.66192004428E-02  0.18917381998E-02 -0.16533148775E-01  0.17916434281E-01  0.51100000000E-03 0.  1.
</event>
<event>
 8    1  0.9956970E+004  0.1043930E+01  0.7957747E-01            NaN
         13   -1    0    0    0    0  0.00000000000E+00  0.00000000000E+00  0.74505805969E-08  0.10566000000E+00  0.10566000000E+00 0.  1.
     999900   -1    0    0    0    0 -0.00000000000E+00 -0.00000000000E+00 -0.74505805969E-08  0.93827000000E+00  0.93827000000E+00 0. -1.
     999902    2    1    2    0    0 -0.20229299659E-01 -0.13312061366E-01 -0.37874782004E-02  0.10194191752E+01  0.10191244645E+01 0.  0.
     999903    2    3    3    0    0 -0.72817049239E-01  0.79552018095E-01  0.69682139042E-01  0.12993224817E+00  0.19898300665E-01 0.  0.
         14    1    1    2    0    0  0.20229299659E-01  0.13312061366E-01  0.37874782004E-02  0.24510824825E-01  0.00000000000E+00 0.  1.
     999901    1    3    3    0    0  0.52587749580E-01 -0.92864079461E-01 -0.73469617242E-01  0.88948692701E+00  0.88000000000E+00 0. -1.
        -11    1    4    4    0    0 -0.45984109344E-01  0.61247697399E-01  0.54943167108E-01  0.94259384052E-01  0.51100000000E-03 0. -1.
         11    1    4    4    0    0 -0.26832939895E-01  0.18304320696E-01  0.14738971934E-01  0.35672864115E-01  0.51100000000E-03 0.  1.
</event>
<event>
 8    1  0.9956970E+004  0.1043930E+01  0.7957747E-01            NaN
         13   -1    0    0    0    0  0.00000000000E+00  0.00000000000E+00  0.74505805969E-08  0.10566000000E+00  0.10566000000E+00 0. -1.
     999900   -1    0    0    0    0 -0.00000000000E+00 -0.00000000000E+00 -0.74505805969E-08  0.93827000000E+00  0.93827000000E+00 0. -1.
     999902    2    1    2    0    0 -0.20623591576E-01  0.11585127570E-01 -0.18021192646E-02  0.10202066920E+01  0.10199308305E+01 0.  0.
     999903    2    3    3    0    0  0.10205348351E+00  0.58688098149E-01  0.48791992299E-01  0.12901192161E+00  0.20105000441E-01 0.  0.
         14    1    1    2    0    0  0.20623591576E-01 -0.11585127570E-01  0.18021192646E-02  0.23723308036E-01  0.00000000000E+00 0.  1.
     999901    1    3    3    0    0 -0.12267707509E+00 -0.47102970579E-01 -0.50594111564E-01  0.89119477036E+00  0.88000000000E+00 0.  1.
        -11    1    4    4    0    0  0.47565506999E-01  0.37939774045E-01  0.20521610035E-01  0.64212938806E-01  0.51100000000E-03 0. -1.
         11    1    4    4    0    0  0.54487976512E-01  0.20748324104E-01  0.28270382265E-01  0.64798982800E-01  0.51100000000E-03 0.  1.
</event>
<event>
 8    1  0.9956970E+004  0.1043930E+01  0.7957747E-01            NaN
         13   -1    0    0    0    0  0.00000000000E+00  0.00000000000E+00  0.74505805969E-08  0.10566000000E+00  0.10566000000E+00 0.  1.
     999900   -1    0    0    0    0 -0.00000000000E+00 -0.00000000000E+00 -0.74505805969E-08  0.93827000000E+00  0.93827000000E+00 0. -1.
     999902    2    1    2    0    0 -0.71277014544E-02 -0.57779597984E-02  0.22231359320E-01  0.10198795887E+01  0.10195959754E+01 0.  0.
     999903    2    3    3    0    0  0.65207769763E-01  0.91383236380E-01  0.63495439487E-01  0.13062403331E+00  0.20688598661E-01 0.  0.
         14    1    1    2    0    0  0.71277014544E-02  0.57779597984E-02 -0.22231359320E-01  0.24050411320E-01  0.00000000000E+00 0. -1.
     999901    1    3    3    0    0 -0.72335471218E-01 -0.97161196179E-01 -0.41264080167E-01  0.88925555537E+00  0.88000000000E+00 0. -1.
        -11    1    4    4    0    0  0.41956084304E-01  0.43580281590E-01  0.39851336985E-01  0.72442695519E-01  0.51100000000E-03 0.  1.
         11    1    4    4    0    0  0.23251685459E-01  0.47802954791E-01  0.23644102501E-01  0.58181337794E-01  0.51100000000E-03 0. -1.
</event>
<event>
 8    1  0.9956970E+004  0.1043930E+01  0.7957747E-01            NaN
         13   -1    0    0    0    0  0.00000000000E+00  0.00000000000E+00  0.74505805969E-08  0.10566000000E+00  0.10566000000E+00 0. -1.
     999900   -1    0    0    0    0 -0.00000000000E+00 -0.00000000000E+00 -0.74505805969E-08  0.93827000000E+00  0.93827000000E+00 0.  1.
     999902    2    1    2    0    0  0.44350062716E-02  0.12425021981E-01  0.17973726351E-01  0.10216341418E+01  0.10213908236E+01 0.  0.
     999903    2    3    3    0    0  0.11200577579E+00 -0.24521440632E-01  0.63813986295E-01  0.13313099555E+00  0.22473145460E-01 0.  0.
         14    1    1    2    0    0 -0.44350062716E-02 -0.12425021981E-01 -0.17973726351E-01  0.22295858154E-01  0.00000000000E+00 0.  1.
     999901    1    3    3    0    0 -0.10757076952E+00  0.36946462614E-01 -0.45840259944E-01  0.88850314630E+00  0.88000000000E+00 0. -1.
        -11    1    4    4    0    0  0.51089573732E-01 -0.20943005247E-01  0.23606506511E-01  0.60052329543E-01  0.51100000000E-03 0. -1.
         11    1    4    4    0    0  0.60916202059E-01 -0.35784353851E-02  0.40207479784E-01  0.73078666003E-01  0.51100000000E-03 0.  1.
</event>
<event>
 8    1  0.9956970E+004  0.1043930E+01  0.7957747E-01            NaN
         13   -1    0    0    0    0  0.00000000000E+00  0.00000000000E+00  0.74505805969E-08  0.10566000000E+00  0.10566000000E+00 0. -1.
     999900   -1    0    0    0    0 -0.00000000000E+00 -0.00000000000E+00 -0.74505805969E-08  0.93827000000E+00  0.93827000000E+00 0. -1.
     999902    2    1    2    0    0 -0.13718457416E-01  0.15285824340E-01 -0.97851981559E-02  0.10211791186E+01  0.10209256534E+01 0.  0.
     999903    2    3    3    0    0 -0.67475058073E-01 -0.64829637597E-01 -0.91345606538E-01  0.13215698193E+00  0.19122830987E-01 0.  0.
         14    1    1    2    0    0  0.13718457416E-01 -0.15285824340E-01  0.97851981559E-02  0.22750881358E-01  0.00000000000E+00 0. -1.
     999901    1    3    3    0    0  0.53756600658E-01  0.80115461937E-01  0.81560408382E-01  0.88902213672E+00  0.88000000000E+00 0.  1.
        -11    1    4    4    0    0 -0.16796803815E-01 -0.20615378367E-01 -0.15489234109E-01  0.30778303038E-01  0.51100000000E-03 0. -1.
         11    1    4    4    0    0 -0.50678254259E-01 -0.44214259230E-01 -0.75856372429E-01  0.10137867889E+00  0.51100000000E-03 0.  1.
</event>
<event>
 8    1  0.9956970E+004  0.1043930E+01  0.7957747E-01            NaN
         13   -1    0    0    0    0  0.00000000000E+00  0.00000000000E+00  0.74505805969E-08  0.10566000000E+00  0.10566000000E+00 0.  1.
     999900   -1    0    0    0    0 -0.00000000000E+00 -0.00000000000E+00 -0.74505805969E-08  0.93827000000E+00  0.93827000000E+00 0. -1.
     999902    2    1    2    0    0 -0.23587196926E-01 -0.44107196212E-02  0.14634747151E-01  0.10158233081E+01  0.10154343933E+01 0.  0.
     999903    2    3    3    0    0  0.66302384395E-01  0.10286969373E+00 -0.91915705128E-02  0.12444408613E+00  0.20583137222E-01 0.  0.
         14    1    1    2    0    0  0.23587196926E-01  0.44107196212E-02 -0.14634747151E-01  0.28106691918E-01  0.00000000000E+00 0.  1.
     999901    1    3    3    0    0 -0.89889581321E-01 -0.10728041336E+00  0.23826317664E-01  0.89137922196E+00  0.88000000000E+00 0. -1.
        -11    1    4    4    0    0  0.12805713464E-01  0.36063363710E-01 -0.64499356785E-02  0.38812566144E-01  0.51100000000E-03 0. -1.
         11    1    4    4    0    0  0.53496670931E-01  0.66806330025E-01 -0.27416348343E-02  0.85631519983E-01  0.51100000000E-03 0.  1.
</event>
<event>
 8    1  0.9956970E+004  0.1043930E+01  0.7957747E-01            NaN
         13   -1    0    0    0    0  0.00000000000E+00  0.00000000000E+00  0.74505805969E-08  0.10566000000E+00  0.10566000000E+00 0. -1.
     999900   -1    0    0    0    0 -0.00000000000E+00 -0.00000000000E+00 -0.74505805969E-08  0.93827000000E+00  0.93827000000E+00 0.  1.
     999902    2    1    2    0    0 -0.18516850386E-01 -0.14245289254E-01 -0.10880721017E-01  0.10181580753E+01  0.10178318496E+01 0.  0.
     999903    2    3    3    0    0 -0.28862239962E-02  0.12516650910E+00  0.55592966711E-02  0.12689479196E+00  0.19909725200E-01 0.  0.
         14    1    1    2    0    0  0.18516850386E-01  0.14245289254E-01  0.10880721017E-01  0.25771924724E-01  0.00000000000E+00 0. -1.
     999901    1    3    3    0    0 -0.15630626390E-01 -0.13941179836E+00 -0.16440017688E-01  0.89126328331E+00  0.88000000000E+00 0. -1.
        -11    1    4    4    0    0  0.64931027358E-03  0.10881557759E+00 -0.12503189680E-02  0.10882589742E+00  0.51100000000E-03 0.  1.
         11    1    4    4    0    0 -0.35355342698E-02  0.16350931512E-01  0.68096156391E-02  0.18068894544E-01  0.51100000000E-03 0. -1.
</event>
<event>
 8    1  0.9956970E+004  0.1043930E+01  0.7957747E-01            NaN
         13   -1    0    0    0    0  0.00000000000E+00  0.00000000000E+00  0.74505805969E-08  0.10566000000E+00  0.10566000000E+00 0. -1.
     999900   -1    0    0    0    0 -0.00000000000E+00 -0.00000000000E+00 -0.74505805969E-08  0.93827000000E+00  0.93827000000E+00 0. -1.
     999902    2    1    2    0    0 -0.17406391571E-01 -0.15593993464E-01  0.56318286845E-02  0.10198910193E+01  0.10196076788E+01 0.  0.
     999903    2    3    3    0    0 -0.32404667424E-01 -0.12615014215E+00 -0.14094696876E-01  0.13262739098E+00  0.20674707344E-01 0.  0.
         14    1    1    2    0    0  0.17406391571E-01  0.15593993464E-01 -0.56318286845E-02  0.24038980718E-01  0.00000000000E+00 0. -1.
     999901    1    3    3    0    0  0.14998275853E-01  0.11055614869E+00  0.19726525560E-01  0.88726362830E+00  0.88000000000E+00 0.  1.
        -11    1    4    4    0    0 -0.28389710423E-01 -0.93167601117E-01 -0.24925183204E-02  0.97430238244E-01  0.51100000000E-03 0.  1.
         11    1    4    4    0    0 -0.40149570011E-02 -0.32982541033E-01 -0.11602178555E-01  0.35197152739E-01  0.51100000000E-03 0. -1.
</event>
<event>
 8    1  0.9956970E+004  0.1043930E+01  0.7957747E-01            NaN
         13   -1    0    0    0    0  0.00000000000E+00  0.00000000000E+00  0.74505805969E-08  0.10566000000E+00  0.10566000000E+00 0.  1.
     999900   -1    0    0    0    0 -0.00000000000E+00 -0.00000000000E+00 -0.74505805969E-08  0.93827000000E+00  0.93827000000E+00 0.  1.
     999902    2    1    2    0    0 -0.20324950317E-01  0.79926895318E-02 -0.10643553805E-01  0.10196344875E+01  0.10193449937E+01 0.  0.
     999903    2    3    3    0    0 -0.43143348050E-01 -0.11520251733E+00 -0.37236186785E-01  0.13036236579E+00  0.21790923098E-01 0.  0.
         14    1    1    2    0    0  0.20324950317E-01 -0.79926895318E-02  0.10643553805E-01  0.24295512527E-01  0.00000000000E+00 0.  1.
     999901    1    3    3    0    0  0.22818397733E-01  0.12319520686E+00  0.26592632979E-01  0.88927212168E+00  0.88000000000E+00 0. -1.
        -11    1    4    4    0    0 -0.41182212938E-01 -0.83497769701E-01 -0.26007963799E-01  0.96667096312E-01  0.51100000000E-03 0.  1.
         11    1    4    4    0    0 -0.19611351121E-02 -0.31704747626E-01 -0.11228222986E-01  0.33695269481E-01  0.51100000000E-03 0. -1.
</event>
<event>
 8    1  0.9956970E+004  0.1043930E+01  0.7957747E-01            NaN
         13   -1    0    0    0    0  0.00000000000E+00  0.00000000000E+00  0.74505805969E-08  0.10566000000E+00  0.10566000000E+00 0. -1.
     999900   -1    0    0    0    0 -0.00000000000E+00 -0.00000000000E+00 -0.74505805969E-08  0.93827000000E+00  0.93827000000E+00 0.  1.
     999902    2    1    2    0    0 -0.14860881461E-01  0.18371043285E-01  0.12598425219E-01  0.10171519988E+01  0.10167994529E+01 0.  0.
     999903    2    3    3    0    0  0.88791841618E-03 -0.91458468490E-01 -0.82842826170E-01  0.12506479522E+00  0.20318201173E-01 0.  0.
         14    1    1    2    0    0  0.14860881461E-01 -0.18371043285E-01 -0.12598425219E-01  0.26778001179E-01  0.00000000000E+00 0. -1.
     999901    1    3    3    0    0 -0.15748799877E-01  0.10982951177E+00  0.95441251389E-01  0.89208720360E+00  0.88000000000E+00 0. -1.
        -11    1    4    4    0    0 -0.12806644934E-02 -0.20208639945E-01 -0.30555633465E-01  0.36659747509E-01  0.51100000000E-03 0.  1.
         11    1    4    4    0    0  0.21685829096E-02 -0.71249828545E-01 -0.52287192705E-01  0.88405047715E-01  0.51100000000E-03 0. -1.
</event>
<event>
 8    1  0.9956970E+004  0.1043930E+01  0.7957747E-01            NaN
         13   -1    0    0    0    0  0.00000000000E+00  0.00000000000E+00  0.74505805969E-08  0.10566000000E+00  0.10566000000E+00 0. -1.
     999900   -1    0    0    0    0 -0.00000000000E+00 -0.00000000000E+00 -0.74505805969E-08  0.93827000000E+00  0.93827000000E+00 0. -1.
     999902    2    1    2    0    0 -0.45652490067E-02 -0.18812988131E-01 -0.13321044764E-01  0.10204306329E+01  0.10201600150E+01 0.  0.
     999903    2    3    3    0    0  0.85509816520E-01  0.93587090022E-01  0.53769851537E-02  0.12852429738E+00  0.20472198419E-01 0.  0.
         14    1    1    2    0    0  0.45652490067E-02  0.18812988131E-01  0.13321044764E-01  0.23499367109E-01  0.00000000000E+00 0. -1.
     999901    1    3    3    0    0 -0.90075065527E-01 -0.11240007815E+00 -0.18698029918E-01  0.89190633551E+00  0.88000000000E+00 0. -1.
        -11    1    4    4    0    0  0.30830273606E-01  0.47974706329E-01  0.57188601195E-02  0.57315309473E-01  0.51100000000E-03 0.  1.
         11    1    4    4    0    0  0.54679542915E-01  0.45612383693E-01 -0.34187496580E-03  0.71208987909E-01  0.51100000000E-03 0. -1.
</event>
<event>
 8    1  0.9956970E+004  0.1043930E+01  0.7957747E-01            NaN
         13   -1    0    0    0    0  0.00000000000E+00  0.00000000000E+00  0.74505805969E-08  0.10566000000E+00  0.10566000000E+00 0. -1.
     999900   -1    0    0    0    0 -0.00000000000E+00 -0.00000000000E+00 -0.74505805969E-08  0.93827000000E+00  0.93827000000E+00 0.  1.
     999902    2    1    2    0    0  0.86681275391E-02  0.23596066848E-01  0.15516371836E-03  0.10187916850E+01  0.10184814984E+01 0.  0.
     999903    2    3    3    0    0  0.10517788256E+00  0.29729635682E-01  0.69087219410E-01  0.13081455590E+00  0.19828412256E-01 0.  0.
         14    1    1    2    0    0 -0.86681275391E-02 -0.23596066848E-01 -0.15516371836E-03  0.25138315009E-01  0.00000000000E+00 0.  1.
     999901    1    3    3    0    0 -0.96509755022E-01 -0.61335688348E-02 -0.68932055691E-01  0.88797712909E+00  0.88000000000E+00 0.  1.
        -11    1    4    4    0    0  0.56676984525E-01  0.25214490242E-01  0.33635869303E-01  0.70566875499E-01  0.51100000000E-03 0.  1.
         11    1    4    4    0    0  0.48500898036E-01  0.45151454408E-02  0.35451350107E-01  0.60247680404E-01  0.51100000000E-03 0. -1.
</event>
<event>
 8    1  0.9956970E+004  0.1043930E+01  0.7957747E-01            NaN
         13   -1    0    0    0    0  0.00000000000E+00  0.00000000000E+00  0.74505805969E-08  0.10566000000E+00  0.10566000000E+00 0. -1.
     999900   -1    0    0    0    0 -0.00000000000E+00 -0.00000000000E+00 -0.74505805969E-08  0.93827000000E+00  0.93827000000E+00 0. -1.
     999902    2    1    2    0    0  0.91298409398E-02  0.22182688096E-01 -0.24539731215E-02  0.10198167748E+01  0.10195316604E+01 0.  0.
     999903    2    3    3    0    0  0.71324549246E-01 -0.10099118236E+00  0.29260085719E-01  0.12849990315E+00  0.19226602771E-01 0.  0.
         14    1    1    2    0    0 -0.91298409398E-02 -0.22182688096E-01  0.24539731215E-02  0.24113225226E-01  0.00000000000E+00 0.  1.
     999901    1    3    3    0    0 -0.62194708306E-01  0.12317387046E+00 -0.31714058840E-01  0.89131687162E+00  0.88000000000E+00 0. -1.
        -11    1    4    4    0    0  0.49906962404E-01 -0.63255849674E-01  0.10614308379E-01  0.81270733217E-01  0.51100000000E-03 0. -1.
         11    1    4    4    0    0  0.21417586842E-01 -0.37735332690E-01  0.18645777339E-01  0.47229169937E-01  0.51100000000E-03 0.  1.
</event>
<event>
 8    1  0.9956970E+004  0.1043930E+01  0.7957747E-01            NaN
         13   -1    0    0    0    0  0.00000000000E+00  0.00000000000E+00  0.74505805969E-08  0.10566000000E+00  0.10566000000E+00 0. -1.
     999900   -1    0    0    0    0 -0.00000000000E+00 -0.00000000000E+00 -0.74505805969E-08  0.93827000000E+00  0.93827000000E+00 0.  1.
     999902    2    1    2    0    0  0.54109149567E-02  0.67676110019E-02  0.17425384495E-01  0.10244692039E+01  0.10242843488E+01 0.  0.
     999903    2    3    3    0    0 -0.10010605653E+00 -0.60737966895E-01  0.62887753239E-01  0.13443681052E+00  0.20200577717E-01 0.  0.
         14    1    1    2    0    0 -0.54109149567E-02 -0.67676110019E-02 -0.17425384495E-01  0.19460796082E-01  0.00000000000E+00 0.  1.
     999901    1    3    3    0    0  0.10551697149E+00  0.67505577896E-01 -0.45462368744E-01  0.89003239339E+00  0.88000000000E+00 0.  1.
        -11    1    4    4    0    0 -0.48396249953E-01 -0.36198481965E-01  0.22984181647E-01  0.64661123042E-01  0.51100000000E-03 0. -1.
         11    1    4    4    0    0 -0.51709806577E-01 -0.24539484929E-01  0.39903571592E-01  0.69775687482E-01  0.51100000000E-03 0.  1.
</event>
<event>
 8    1  0.9956970E+004  0.1043930E+01  0.7957747E-01            NaN
         13   -1    0    0    0    0  0.00000000000E+00  0.00000000000E+00  0.74505805969E-08  0.10566000000E+00  0.10566000000E+00 0.  1.
     999900   -1    0    0    0    0 -0.00000000000E+00 -0.00000000000E+00 -0.74505805969E-08  0.93827000000E+00  0.93827000000E+00 0. -1.
     999902    2    1    2    0    0 -0.10702385769E-01  0.93835388447E-02  0.17692232376E-01  0.10212230198E+01  0.10209705428E+01 0.  0.
     999903    2    3    3    0    0 -0.10565415491E+00 -0.76792068379E-01 -0.63272869226E-02  0.13160568015E+00  0.14839079181E-01 0.  0.
         14    1    1    2    0    0  0.10702385769E-01 -0.93835388447E-02 -0.17692232376E-01  0.22706980179E-01  0.00000000000E+00 0. -1.
     999901    1    3    3    0    0  0.94951769142E-01  0.86175607224E-01  0.24019519298E-01  0.88961733968E+00  0.88000000000E+00 0. -1.
        -11    1    4    4    0    0 -0.40253427339E-01 -0.25379138976E-01 -0.87138642382E-02  0.48380075017E-01  0.51100000000E-03 0.  1.
         11    1    4    4    0    0 -0.65400727573E-01 -0.51412929403E-01  0.23865773156E-02  0.83225605129E-01  0.51100000000E-03 0. -1.
</event>
<event>
 8    1  0.9956970E+004  0.1043930E+01  0.7957747E-01            NaN
         13   -1    0    0    0    0  0.00000000000E+00  0.00000000000E+00  0.74505805969E-08  0.10566000000E+00  0.10566000000E+00 0. -1.
     999900   -1    0    0    0    0 -0.00000000000E+00 -0.00000000000E+00 -0.74505805969E-08  0.93827000000E+00  0.93827000000E+00 0.  1.
     999902    2    1    2    0    0 -0.12968244181E-02  0.24793270588E-01 -0.12298223973E-02  0.10190723959E+01  0.10187691827E+01 0.  0.
     999903    2    3    3    0    0 -0.26081947992E-01 -0.49362938511E-01 -0.11405426744E+00  0.12843060418E+00  0.19211362784E-01 0.  0.
         14    1    1    2    0    0  0.12968244181E-02 -0.24793270588E-01  0.12298223973E-02  0.24857604131E-01  0.00000000000E+00 0. -1.
     999901    1    3    3    0    0  0.24785123574E-01  0.74156209099E-01  0.11282444504E+00  0.89064179169E+00  0.88000000000E+00 0. -1.
        -11    1    4    4    0    0  0.27454857239E-03 -0.17113328489E-01 -0.38987215427E-01  0.42581750512E-01  0.51100000000E-03 0.  1.
         11    1    4    4    0    0 -0.26356496565E-01 -0.32249610022E-01 -0.75067052012E-01  0.85848853670E-01  0.51100000000E-03 0. -1.
</event>
<event>
 8    1  0.9956970E+004  0.1043930E+01  0.7957747E-01            NaN
         13   -1    0    0    0    0  0.00000000000E+00  0.00000000000E+00  0.74505805969E-08  0.10566000000E+00  0.10566000000E+00 0.  1.
     999900   -1    0    0    0    0 -0.00000000000E+00 -0.00000000000E+00 -0.74505805969E-08  0.93827000000E+00  0.93827000000E+00 0. -1.
     999902    2    1    2    0    0 -0.84354236241E-02 -0.42631253767E-02  0.21143634852E-01  0.10207700366E+01  0.10205072678E+01 0.  0.
     999903    2    3    3    0    0 -0.12362005962E+00  0.13740086479E-01 -0.34577708868E-01  0.13133398823E+00  0.24130673378E-01 0.  0.
         14    1    1    2    0    0  0.84354236241E-02  0.42631253767E-02 -0.21143634852E-01  0.23159963395E-01  0.00000000000E+00 0. -1.
     999901    1    3    3    0    0  0.11518463599E+00 -0.18003211856E-01  0.55721343720E-01  0.88943604838E+00  0.88000000000E+00 0.  1.
        -11    1    4    4    0    0 -0.11375352221E-01 -0.48569202304E-02 -0.71605557147E-02  0.14301153499E-01  0.51100000000E-03 0.  1.
         11    1    4    4    0    0 -0.11224470740E+00  0.18597006710E-01 -0.27417153153E-01  0.11703283473E+00  0.51100000000E-03 0. -1.
</event>
<event>
 8    1  0.9956970E+004  0.1043930E+01  0.7957747E-01            NaN
         13   -1    0    0    0    0  0.00000000000E+00  0.00000000000E+00  0.74505805969E-08  0.10566000000E+00  0.10566000000E+00 0. -1.
     999900   -1    0    0    0    0 -0.00000000000E+00 -0.00000000000E+00 -0.74505805969E-08  0.93827000000E+00  0.93827000000E+00 0. -1.
     999902    2    1    2    0    0 -0.10521831799E-01  0.82302894201E-02 -0.18773917040E-01  0.10208885901E+01  0.10206285352E+01 0.  0.
     999903    2    3    3    0    0 -0.11167909448E+00 -0.13371232843E-01  0.64160614498E-01  0.13095738262E+00  0.19550999927E-01 0.  0.
         14    1    1    2    0    0  0.10521831799E-01 -0.82302894201E-02  0.18773917040E-01  0.23041409883E-01  0.00000000000E+00 0. -1.
     999901    1    3    3    0    0  0.10115726268E+00  0.21601522263E-01 -0.82934531538E-01  0.88993120750E+00  0.88000000000E+00 0.  1.
        -11    1    4    4    0    0 -0.66807399188E-01 -0.57954087126E-02  0.27345824281E-01  0.72421478685E-01  0.51100000000E-03 0.  1.
         11    1    4    4    0    0 -0.44871695293E-01 -0.75758241299E-02  0.36814790217E-01  0.58535903934E-01  0.51100000000E-03 0. -1.
</event>
<event>
 8    1  0.9956970E+004  0.1043930E+01  0.7957747E-01            NaN
         13   -1    0    0    0    0  0.00000000000E+00  0.00000000000E+00  0.74505805969E-08  0.10566000000E+00  0.10566000000E+00 0.  1.
     999900   -1    0    0    0    0 -0.00000000000E+00 -0.00000000000E+00 -0.74505805969E-08  0.93827000000E+00  0.93827000000E+00 0. -1.
     999902    2    1    2    0    0  0.17286222914E-01  0.13322469089E-01  0.10083823655E-01  0.10198886776E+01  0.10196052812E+01 0.  0.
     999903    2    3    3    0    0 -0.10681316820E+00 -0.16749713980E-01 -0.64742524739E-01  0.12753001789E+00  0.19562850892E-01 0.  0.
         14    1    1    2    0    0 -0.17286222914E-01 -0.13322469089E-01 -0.10083823655E-01  0.24041322442E-01  0.00000000000E+00 0.  1.
     999901    1    3    3    0    0  0.12409939111E+00  0.30072183069E-01  0.74826348394E-01  0.89235865967E+00  0.88000000000E+00 0. -1.
        -11    1    4    4    0    0 -0.56733268829E-01  0.59070748085E-03 -0.36640376901E-01  0.67541032475E-01  0.51100000000E-03 0.  1.
         11    1    4    4    0    0 -0.50079899368E-01 -0.17340421461E-01 -0.28102147839E-01  0.59988985416E-01  0.51100000000E-03 0. -1.
</event>
<event>
 8    1  0.9956970E+004  0.1043930E+01  0.7957747E-01            NaN
         13   -1    0    0    0    0  0.00000000000E+00  0.00000000000E+00  0.74505805969E-08  0.10566000000E+00  0.10566000000E+00 0. -1.
     999900   -1    0    0    0    0 -0.00000000000E+00 -0.00000000000E+00 -0.74505805969E-08  0.93827000000E+00  0.93827000000E+00 0. -1.
     999902    2    1    2    0    0  0.42387601682E-02  0.20826944528E-01 -0.50686191991E-02  0.10220800662E+01  0.10218464866E+01 0.  0.
     999903    2    3    3    0    0  0.10678164212E+00 -0.58830839871E-01 -0.45427621970E-01  0.13163677528E+00  0.20029601935E-01 0.  0.
         14    1    1    2    0    0 -0.42387601682E-02 -0.20826944528E-01  0.50686191991E-02  0.21849933792E-01  0.00000000000E+00 0.  1.
     999901    1    3    3    0    0 -0.10254288195E+00  0.79657784399E-01  0.40359002771E-01  0.89044329093E+00  0.88000000000E+00 0. -1.
        -11    1    4    4    0    0  0.42750928106E-01 -0.34111446854E-01 -0.24027705275E-01  0.59739638450E-01  0.51100000000E-03 0.  1.
         11    1    4    4    0    0  0.64030714017E-01 -0.24719393017E-01 -0.21399916695E-01  0.71897136829E-01  0.51100000000E-03 0. -1.
</event>
<event>
 8    1  0.9956970E+004  0.1043930E+01  0.7957747E-01            NaN
         13   -1    0    0    0    0  0.00000000000E+00  0.00000000000E+00  0.74505805969E-08  0.10566000000E+00  0.10566000000E+00 0.  1.
     999900   -1    0    0    0    0 -0.00000000000E+00 -0.00000000000E+00 -0.74505805969E-08  0.93827000000E+00  0.93827000000E+00 0.  1.
     999902    2    1    2    0    0 -0.90619789163E-02 -0.18094396453E-01  0.14650605983E-01  0.10189466675E+01  0.10186403410E+01 0.  0.
     999903    2    3    3    0    0  0.55114344943E-01  0.63837164793E-02  0.11635031680E+00  0.13043070835E+00  0.19910565233E-01 0.  0.
         14    1    1    2    0    0  0.90619789163E-02  0.18094396453E-01 -0.14650605983E-01  0.24983332455E-01  0.00000000000E+00 0.  1.
     999901    1    3    3    0    0 -0.64176323859E-01 -0.24478112932E-01 -0.10169971082E+00  0.88851595919E+00  0.88000000000E+00 0.  1.
        -11    1    4    4    0    0  0.88836322458E-02  0.71196125232E-02  0.35589040189E-01  0.37369087585E-01  0.51100000000E-03 0.  1.
         11    1    4    4    0    0  0.46230712697E-01 -0.73589604389E-03  0.80761276611E-01  0.93061620770E-01  0.51100000000E-03 0. -1.
</event>
<event>
 8    1  0.9956970E+004  0.1043930E+01  0.7957747E-01            NaN
         13   -1    0    0    0    0  0.00000000000E+00  0.00000000000E+00  0.74505805969E-08  0.10566000000E+00  0.10566000000E+00 0. -1.
     999900   -1    0    0    0    0 -0.00000000000E+00 -0.00000000000E+00 -0.74505805969E-08  0.93827000000E+00  0.93827000000E+00 0.  1.
     999902    2    1    2    0    0  0.14804095789E-01 -0.18410176389E-01  0.30307852437E-02  0.10201123279E+01  0.10198342414E+01 0.  0.
     999903    2    3    3    0    0  0.85036728769E-02 -0.11641192706E+00  0.60136686881E-01  0.13281016824E+00  0.19951703300E-01 0.  0.
         14    1    1    2    0    0 -0.14804095789E-01  0.18410176389E-01 -0.30307852437E-02  0.23817672136E-01  0.00000000000E+00 0. -1.
     999901    1    3    3    0    0  0.63004229122E-02  0.98001750676E-01 -0.57105901637E-01  0.88730215962E+00  0.88000000000E+00 0. -1.
        -11    1    4    4    0    0  0.95315781144E-02 -0.51787732516E-01  0.36123772877E-01  0.63859285217E-01  0.51100000000E-03 0.  1.
         11    1    4    4    0    0 -0.10279052375E-02 -0.64624194549E-01  0.24012914004E-01  0.68950883027E-01  0.51100000000E-03 0. -1.
</event>
<event>
 8    1  0.9956970E+004  0.1043930E+01  0.7957747E-01            NaN
         13   -1    0    0    0    0  0.00000000000E+00  0.00000000000E+00  0.74505805969E-08  0.10566000000E+00  0.10566000000E+00 0. -1.
     999900   -1    0    0    0    0 -0.00000000000E+00 -0.00000000000E+00 -0.74505805969E-08  0.93827000000E+00  0.93827000000E+00 0.  1.
     999902    2    1    2    0    0 -0.95613800837E-02  0.18588815956E-02  0.23251972691E-01  0.10187202863E+01  0.10184083131E+01 0.  0.
     999903    2    3    3    0    0 -0.11460001313E+00 -0.48402881541E-01  0.35613307634E-01  0.13096347172E+00  0.20177246944E-01 0.  0.
         14    1    1    2    0    0  0.95613800837E-02 -0.18588815956E-02 -0.23251972691E-01  0.25209713681E-01  0.00000000000E+00 0. -1.
     999901    1    3    3    0    0  0.10503863304E+00  0.50261763137E-01 -0.12361334943E-01  0.88775681460E+00  0.88000000000E+00 0.  1.
        -11    1    4    4    0    0 -0.44690357223E-01 -0.17145212292E-01  0.23859185292E-01  0.53485588498E-01  0.51100000000E-03 0. -1.
         11    1    4    4    0    0 -0.69909655903E-01 -0.31257669249E-01  0.11754122342E-01  0.77477883221E-01  0.51100000000E-03 0.  1.
</event>
<event>
 8    1  0.9956970E+004  0.1043930E+01  0.7957747E-01            NaN
         13   -1    0    0    0    0  0.00000000000E+00  0.00000000000E+00  0.74505805969E-08  0.10566000000E+00  0.10566000000E+00 0.  1.
     999900   -1    0    0    0    0 -0.00000000000E+00 -0.00000000000E+00 -0.74505805969E-08  0.93827000000E+00  0.93827000000E+00 0. -1.
     999902    2    1    2    0    0  0.20787942419E-01 -0.24778861025E-03 -0.12451067634E-01  0.10196971910E+01  0.10194092074E+01 0.  0.
     999903    2    3    3    0    0  0.11886471626E+00 -0.53289724690E-01  0.12061258505E-01  0.13232277466E+00  0.19880322136E-01 0.  0.
         14    1    1    2    0    0 -0.20787942419E-01  0.24778861025E-03  0.12451067634E-01  0.24232809050E-01  0.00000000000E+00 0.  1.
     999901    1    3    3    0    0 -0.98076773842E-01  0.53041936079E-01 -0.24512326139E-01  0.88737441629E+00  0.88000000000E+00 0.  1.
        -11    1    4    4    0    0  0.84766685431E-01 -0.46002383878E-01  0.39878903861E-02  0.96528621000E-01  0.51100000000E-03 0. -1.
         11    1    4    4    0    0  0.34098030830E-01 -0.72873408112E-02  0.80733681192E-02  0.35794153662E-01  0.51100000000E-03 0.  1.
</event>
<event>
 8    1  0.9956970E+004  0.1043930E+01  0.7957747E-01            NaN
         13   -1    0    0    0    0  0.00000000000E+00  0.00000000000E+00  0.74505805969E-08  0.10566000000E+00  0.10566000000E+00 0. -1.
     999900   -1    0    0    0    0 -0.00000000000E+00 -0.00000000000E+00 -0.74505805969E-08  0.93827000000E+00  0.93827000000E+00 0. -1.
     999902    2    1    2    0    0  0.18342346791E-02  0.59946588009E-02  0.24612809186E-01  0.10185313637E+01  0.10182146375E+01 0.  0.
     999903    2    3    3    0    0 -0.53754491091E-01 -0.56017571930E-01 -0.97437113257E-01  0.12621314311E+00  0.20205266047E-01 0.  0.
         14    1    1    2    0    0 -0.18342346791E-02 -0.59946588009E-02 -0.24612809186E-01  0.25398636322E-01  0.00000000000E+00 0. -1.
     999901    1    3    3    0    0  0.55588725770E-01  0.62012230731E-01  0.12204992244E+00  0.89231822057E+00  0.88000000000E+00 0.  1.
        -11    1    4    4    0    0 -0.44115673752E-01 -0.33937126079E-01 -0.61545480260E-01  0.82982097217E-01  0.51100000000E-03 0.  1.
         11    1    4    4    0    0 -0.96388173397E-02 -0.22080445851E-01 -0.35891632997E-01  0.43231045892E-01  0.51100000000E-03 0. -1.
</event>
<event>
 7    1  0.9956970E+004  0.1043930E+01  0.7957747E-01            NaN
         13   -1    0    0    0    0  0.00000000000E+00  0.00000000000E+00  0.74505805969E-08  0.10566000000E+00  0.10566000000E+00 0.  1.
     999900   -1    0    0    0    0 -0.00000000000E+00 -0.00000000000E+00 -0.74505805969E-08  0.93827000000E+00  0.93827000000E+00 0. -1.
     999903    2    1    2    0    0  0.70248069494E-01  0.85653096116E-01  0.19110707736E-01  0.11443590908E+00  0.21426945537E-01 0.  0.
         14    1    1    2    0    0 -0.17747236879E-01  0.22851207683E-01 -0.29356054633E-01  0.41217957895E-01  0.00000000000E+00 0. -1.
     999901    1    1    2    0    0 -0.52500832615E-01 -0.10850430380E+00  0.10245346897E-01  0.88827613302E+00  0.88000000000E+00 0.  1.
        -11    1    3    3    0    0  0.27692287992E-01  0.18973399905E-01  0.84247086544E-02  0.34613430270E-01  0.51100000000E-03 0.  1.
         11    1    3    3    0    0  0.42555781502E-01  0.66679696211E-01  0.10685999081E-01  0.79822478810E-01  0.51100000000E-03 0. -1.
</event>
<event>
 8    1  0.9956970E+004  0.1043930E+01  0.7957747E-01            NaN
         13   -1    0    0    0    0  0.00000000000E+00  0.00000000000E+00  0.74505805969E-08  0.10566000000E+00  0.10566000000E+00 0.  1.
     999900   -1    0    0    0    0 -0.00000000000E+00 -0.00000000000E+00 -0.74505805969E-08  0.93827000000E+00  0.93827000000E+00 0. -1.
     999902    2    1    2    0    0  0.17799188543E-01  0.14003631790E-01  0.29149877291E-02  0.10210955968E+01  0.10208402460E+01 0.  0.
     999903    2    3    3    0    0 -0.47172760648E-01  0.11440658006E+00 -0.41614833494E-01  0.13189088967E+00  0.18688967401E-01 0.  0.
         14    1    1    2    0    0 -0.17799188543E-01 -0.14003631790E-01 -0.29149877291E-02  0.22834403201E-01  0.00000000000E+00 0.  1.
     999901    1    3    3    0    0  0.64971949192E-01 -0.10040294827E+00  0.44529821223E-01  0.88920470713E+00  0.88000000000E+00 0. -1.
        -11    1    4    4    0    0 -0.20611516648E-01  0.42580904509E-01 -0.25073614931E-01  0.53543583501E-01  0.51100000000E-03 0. -1.
         11    1    4    4    0    0 -0.26561244000E-01  0.71825675552E-01 -0.16541218563E-01  0.78347306168E-01  0.51100000000E-03 0.  1.
</event>
<event>
 8    1  0.9956970E+004  0.1043930E+01  0.7957747E-01            NaN
         13   -1    0    0    0    0  0.00000000000E+00  0.00000000000E+00  0.74505805969E-08  0.10566000000E+00  0.10566000000E+00 0.  1.
     999900   -1    0    0    0    0 -0.00000000000E+00 -0.00000000000E+00 -0.74505805969E-08  0.93827000000E+00  0.93827000000E+00 0. -1.
     999902    2    1    2    0    0 -0.21877198425E-01  0.13327312792E-02  0.83715660476E-02  0.10204678794E+01  0.10201981287E+01 0.  0.
     999903    2    3    3    0    0 -0.11239076988E+00 -0.68292386334E-01 -0.48967405474E-02  0.13299032389E+00  0.19154973160E-01 0.  0.
         14    1    1    2    0    0  0.21877198425E-01 -0.13327312792E-02 -0.83715660476E-02  0.23462120571E-01  0.00000000000E+00 0. -1.
     999901    1    3    3    0    0  0.90513571451E-01  0.69625117613E-01  0.13268306595E-01  0.88747755554E+00  0.88000000000E+00 0. -1.
        -11    1    4    4    0    0 -0.74638981730E-01 -0.46749868788E-01 -0.12195540899E-01  0.88912992100E-01  0.51100000000E-03 0.  1.
         11    1    4    4    0    0 -0.37751788146E-01 -0.21542517546E-01  0.72988003515E-02  0.44077331793E-01  0.51100000000E-03 0. -1.
</event>
<event>
 8    1  0.9956970E+004  0.1043930E+01  0.7957747E-01            NaN
         13   -1    0    0    0    0  0.00000000000E+00  0.00000000000E+00  0.74505805969E-08  0.10566000000E+00  0.10566000000E+00 0. -1.
     999900   -1    0    0    0    0 -0.00000000000E+00 -0.00000000000E+00 -0.74505805969E-08  0.93827000000E+00  0.93827000000E+00 0. -1.
     999902    2    1    2    0    0  0.48989349864E-02  0.18541063465E-01 -0.39431069387E-02  0.10243514737E+01  0.10241643535E+01 0.  0.
     999903    2    3    3    0    0 -0.48531207859E-01  0.11579538871E+00 -0.48851656897E-01  0.13624677168E+00  0.20318667046E-01 0.  0.
         14    1    1    2    0    0 -0.48989349864E-02 -0.18541063465E-01  0.39431069387E-02  0.19578526266E-01  0.00000000000E+00 0. -1.
     999901    1    3    3    0    0  0.53430142846E-01 -0.97254325242E-01  0.44908549958E-01  0.88810470205E+00  0.88000000000E+00 0.  1.
        -11    1    4    4    0    0 -0.18137346851E-01  0.35125346747E-01 -0.60380157077E-02  0.39993400575E-01  0.51100000000E-03 0.  1.
         11    1    4    4    0    0 -0.30393861009E-01  0.80670041961E-01 -0.42813641189E-01  0.96253371109E-01  0.51100000000E-03 0. -1.
</event>
<event>
 8    1  0.9956970E+004  0.1043930E+01  0.7957747E-01            NaN
         13   -1    0    0    0    0  0.00000000000E+00  0.00000000000E+00  0.74505805969E-08  0.10566000000E+00  0.10566000000E+00 0. -1.
     999900   -1    0    0    0    0 -0.00000000000E+00 -0.00000000000E+00 -0.74505805969E-08  0.93827000000E+00  0.93827000000E+00 0.  1.
     999902    2    1    2    0    0  0.27544600545E-01 -0.87786297178E-02 -0.21545306317E-02  0.10149401507E+01  0.10145260461E+01 0.  0.
     999903    2    3    3    0    0  0.55701840454E-01 -0.49881324486E-02 -0.11237897883E+00  0.12760896846E+00  0.22966006514E-01 0.  0.
         14    1    1    2    0    0 -0.27544600545E-01  0.87786297178E-02  0.21545306317E-02  0.28989849278E-01  0.00000000000E+00 0.  1.
     999901    1    3    3    0    0 -0.28157239909E-01 -0.37904972692E-02  0.11022444819E+00  0.88733118226E+00  0.88000000000E+00 0. -1.
        -11    1    4    4    0    0  0.51363961425E-01 -0.24297292656E-02 -0.81852769180E-01  0.96665904336E-01  0.51100000000E-03 0.  1.
         11    1    4    4    0    0  0.43378790291E-02 -0.25584031831E-02 -0.30526209646E-01  0.30943064128E-01  0.51100000000E-03 0. -1.
</event>
<event>
 8    1  0.9956970E+004  0.1043930E+01  0.7957747E-01            NaN
         13   -1    0    0    0    0  0.00000000000E+00  0.00000000000E+00  0.74505805969E-08  0.10566000000E+00  0.10566000000E+00 0.  1.
     999900   -1    0    0    0    0 -0.00000000000E+00 -0.00000000000E+00 -0.74505805969E-08  0.93827000000E+00  0.93827000000E+00 0.  1.
     999902    2    1    2    0    0 -0.19886741624E-01  0.84496784227E-02 -0.15885751583E-01  0.10171114120E+01  0.10167577823E+01 0.  0.
     999903    2    3    3    0    0  0.17735866103E-01  0.10956915881E+00  0.58855223230E-01  0.12737728137E+00  0.21001738011E-01 0.  0.
         14    1    1    2    0    0  0.19886741624E-01 -0.84496784227E-02  0.15885751583E-01  0.26818587979E-01  0.00000000000E+00 0.  1.
     999901    1    3    3    0    0 -0.37622607727E-01 -0.10111948039E+00 -0.74740974813E-01  0.88973413065E+00  0.88000000000E+00 0.  1.
        -11    1    4    4    0    0  0.20424364893E-01  0.88561461784E-01  0.53727822902E-01  0.10558043033E+00  0.51100000000E-03 0. -1.
         11    1    4    4    0    0 -0.26884987900E-02  0.21007697025E-01  0.51274003284E-02  0.21796851038E-01  0.51100000000E-03 0.  1.
</event>
<event>
 8    1  0.9956970E+004  0.1043930E+01  0.7957747E-01            NaN
         13   -1    0    0    0    0  0.00000000000E+00  0.00000000000E+00  0.74505805969E-08  0.10566000000E+00  0.10566000000E+00 0. -1.
     999900   -1    0    0    0    0 -0.00000000000E+00 -0.00000000000E+00 -0.74505805969E-08  0.93827000000E+00  0.93827000000E+00 0.  1.
     999902    2    1    2    0    0 -0.35342881572E-02  0.19311385490E-01 -0.12661158511E-01  0.10205692265E+01  0.10203018281E+01 0.  0.
     999903    2    3    3    0    0  0.78980189846E-01 -0.92968341293E-01  0.34776851482E-01  0.12834406385E+00  0.19539356578E-01 0.  0.
         14    1    1    2    0    0  0.35342881572E-02 -0.19311385490E-01  0.12661158511E-01  0.23360773472E-01  0.00000000000E+00 0. -1.
     999901    1    3    3    0    0 -0.82514478003E-01  0.11227972678E+00 -0.47438009993E-01  0.89222516268E+00  0.88000000000E+00 0. -1.
        -11    1    4    4    0    0  0.34844630937E-01 -0.56026875561E-01  0.18027471219E-01  0.68398902987E-01  0.51100000000E-03 0. -1.
         11    1    4    4    0    0  0.44135558908E-01 -0.36941465732E-01  0.16749380263E-01  0.59945160862E-01  0.51100000000E-03 0.  1.
</event>
<event>
 8    1  0.9956970E+004  0.1043930E+01  0.7957747E-01            NaN
         13   -1    0    0    0    0  0.00000000000E+00  0.00000000000E+00  0.74505805969E-08  0.10566000000E+00  0.10566000000E+00 0.  1.
     999900   -1    0    0    0    0 -0.00000000000E+00 -0.00000000000E+00 -0.74505805969E-08  0.93827000000E+00  0.93827000000E+00 0.  1.
     999902    2    1    2    0    0  0.17887210096E-01  0.74165839477E-02 -0.13877081704E-01  0.10201070825E+01  0.10198288721E+01 0.  0.
     999903    2    3    3    0    0 -0.57089088582E-02  0.11112515290E+00 -0.67963103900E-01  0.13205441406E+00  0.20928295041E-01 0.  0.
         14    1    1    2    0    0 -0.17887210096E-01 -0.74165839477E-02  0.13877081704E-01  0.23822917518E-01  0.00000000000E+00 0.  1.
     999901    1    3    3    0    0  0.23596118954E-01 -0.10370856895E+00  0.54086022197E-01  0.88805266843E+00  0.88000000000E+00 0.  1.
        -11    1    4    4    0    0 -0.58159446680E-02  0.19207718349E-01 -0.51562695441E-02  0.20727032908E-01  0.51100000000E-03 0. -1.
         11    1    4    4    0    0  0.10703580976E-03  0.91917434546E-01 -0.62806834356E-01  0.11132738115E+00  0.51100000000E-03 0.  1.
</event>
<event>
 8    1  0.9956970E+004  0.1043930E+01  0.7957747E-01            NaN
         13   -1    0    0    0    0  0.00000000000E+00  0.00000000000E+00  0.74505805969E-08  0.10566000000E+00  0.10566000000E+00 0. -1.
     999900   -1    0    0    0    0 -0.00000000000E+00 -0.00000000000E+00 -0.74505805969E-08  0.93827000000E+00  0.93827000000E+00 0. -1.
     999902    2    1    2    0    0  0.15176795738E-01 -0.15925383355E-01 -0.82320536370E-02  0.10204412863E+01  0.10201709166E+01 0.  0.
     999903    2    3    3    0    0 -0.73375427019E-01 -0.89371023461E-01 -0.59258535130E-01  0.13148714800E+00  0.20153485501E-01 0.  0.
         14    1    1    2    0    0 -0.15176795738E-01  0.15925383355E-01  0.82320536370E-02  0.23488713693E-01  0.00000000000E+00 0.  1.
     999901    1    3    3    0    0  0.88552222757E-01  0.73445640106E-01  0.51026481493E-01  0.88895413831E+00  0.88000000000E+00 0.  1.
        -11    1    4    4    0    0 -0.27203756423E-01 -0.31272552014E-01 -0.10737210247E-01  0.42820155043E-01  0.51100000000E-03 0. -1.
         11    1    4    4    0    0 -0.46171670596E-01 -0.58098471447E-01 -0.48521324883E-01  0.88666992954E-01  0.51100000000E-03 0.  1.
</event>
<event>
 8    1  0.9956970E+004  0.1043930E+01  0.7957747E-01            NaN
         13   -1    0    0    0    0  0.00000000000E+00  0.00000000000E+00  0.74505805969E-08  0.10566000000E+00  0.10566000000E+00 0. -1.
     999900   -1    0    0    0    0 -0.00000000000E+00 -0.00000000000E+00 -0.74505805969E-08  0.93827000000E+00  0.93827000000E+00 0. -1.
     999902    2    1    2    0    0  0.12815108038E-01 -0.14529989717E-01  0.13769550363E-01  0.10201613628E+01  0.10198844337E+01 0.  0.
     999903    2    3    3    0    0  0.31833081078E-01  0.17056070236E-01 -0.12230205149E+00  0.12894037828E+00  0.19067636733E-01 0.  0.
         14    1    1    2    0    0 -0.12815108038E-01  0.14529989717E-01 -0.13769550363E-01  0.23768637159E-01  0.00000000000E+00 0.  1.
     999901    1    3    3    0    0 -0.19017973040E-01 -0.31586059953E-01  0.13607160185E+00  0.89122098456E+00  0.88000000000E+00 0.  1.
        -11    1    4    4    0    0  0.28885463044E-02  0.10289079602E-01 -0.24873902162E-01  0.27077315018E-01  0.51100000000E-03 0.  1.
         11    1    4    4    0    0  0.28944534774E-01  0.67669906338E-02 -0.97428149328E-01  0.10186306327E+00  0.51100000000E-03 0. -1.
</event>
<event>
 8    1  0.9956970E+004  0.1043930E+01  0.7957747E-01            NaN
         13   -1    0    0    0    0  0.00000000000E+00  0.00000000000E+00  0.74505805969E-08  0.10566000000E+00  0.10566000000E+00 0. -1.
     999900   -1    0    0    0    0 -0.00000000000E+00 -0.00000000000E+00 -0.74505805969E-08  0.93827000000E+00  0.93827000000E+00 0.  1.
     999902    2    1    2    0    0 -0.15496542353E-01 -0.18280810571E-01 -0.97043012209E-03  0.10199451591E+01  0.10196631085E+01 0.  0.
     999903    2    3    3    0    0  0.30019732423E-01  0.11770612670E+00  0.33995330626E-01  0.12765216750E+00  0.19582562784E-01 0.  0.
         14    1    1    2    0    0  0.15496542353E-01  0.18280810571E-01  0.97043012209E-03  0.23984840935E-01  0.00000000000E+00 0. -1.
     999901    1    3    3    0    0 -0.45516274777E-01 -0.13598693727E+00 -0.34965760748E-01  0.89229299157E+00  0.88000000000E+00 0.  1.
        -11    1    4    4    0    0 -0.10876685887E-02  0.23317325846E-01  0.10079900208E-01  0.25431205570E-01  0.51100000000E-03 0.  1.
         11    1    4    4    0    0  0.31107401012E-01  0.94388800852E-01  0.23915430418E-01  0.10222096193E+00  0.51100000000E-03 0. -1.
</event>
<event>
 8    1  0.9956970E+004  0.1043930E+01  0.7957747E-01            NaN
         13   -1    0    0    0    0  0.00000000000E+00  0.00000000000E+00  0.74505805969E-08  0.10566000000E+00  0.10566000000E+00 0. -1.
     999900   -1    0    0    0    0 -0.00000000000E+00 -0.00000000000E+00 -0.74505805969E-08  0.93827000000E+00  0.93827000000E+00 0.  1.
     999902    2    1    2    0    0 -0.15637974408E-02 -0.16795687033E-01  0.16260400721E-01  0.10205005058E+01  0.10202315135E+01 0.  0.
     999903    2    3    3    0    0 -0.57281926955E-01 -0.31289882194E-01 -0.11009243999E+00  0.12961351412E+00  0.20470510853E-01 0.  0.
         14    1    1    2    0    0  0.15637974408E-02  0.16795687033E-01 -0.16260400721E-01  0.23429494167E-01  0.00000000000E+00 0. -1.
     999901    1    3    3    0    0  0.55718129514E-01  0.14494195162E-01  0.12635284072E+00  0.89088699171E+00  0.88000000000E+00 0. -1.
        -11    1    4    4    0    0 -0.64501020326E-02 -0.11449302452E-01 -0.29333705845E-01  0.32146815744E-01  0.51100000000E-03 0.  1.
         11    1    4    4    0    0 -0.50831824923E-01 -0.19840579742E-01 -0.80758734150E-01  0.97466698374E-01  0.51100000000E-03 0. -1.
</event>
<event>
 8    1  0.9956970E+004  0.1043930E+01  0.7957747E-01            NaN
         13   -1    0    0    0    0  0.00000000000E+00  0.00000000000E+00  0.74505805969E-08  0.10566000000E+00  0.10566000000E+00 0. -1.
     999900   -1    0    0    0    0 -0.00000000000E+00 -0.00000000000E+00 -0.74505805969E-08  0.93827000000E+00  0.93827000000E+00 0. -1.
     999902    2    1    2    0    0 -0.15245479636E-01  0.18305647149E-01  0.31844898574E-02  0.10198953928E+01  0.10196121566E+01 0.  0.
     999903    2    3    3    0    0  0.12615164269E+00  0.19217969308E-02  0.10439207917E-01  0.12842794659E+00  0.21606252504E-01 0.  0.
         14    1    1    2    0    0  0.15245479636E-01 -0.18305647149E-01 -0.31844898574E-02  0.24034607185E-01  0.00000000000E+00 0. -1.
     999901    1    3    3    0    0 -0.14139712232E+00  0.16383850218E-01 -0.72547180594E-02  0.89146744623E+00  0.88000000000E+00 0. -1.
        -11    1    4    4    0    0  0.17891983471E-01 -0.17070286428E-02  0.89759150386E-02  0.20096397465E-01  0.51100000000E-03 0.  1.
         11    1    4    4    0    0  0.10825965921E+00  0.36288255735E-02  0.14632928782E-02  0.10833154912E+00  0.51100000000E-03 0. -1.
</event>
<event>
 8    1  0.9956970E+004  0.1043930E+01  0.7957747E-01            NaN
         13   -1    0    0    0    0  0.00000000000E+00  0.00000000000E+00  0.74505805969E-08  0.10566000000E+00  0.10566000000E+00 0. -1.
     999900   -1    0    0    0    0 -0.00000000000E+00 -0.00000000000E+00 -0.74505805969E-08  0.93827000000E+00  0.93827000000E+00 0. -1.
     999902    2    1    2    0    0 -0.48934033353E-02 -0.55371573074E-02  0.22824764722E-01  0.10199388476E+01  0.10196566469E+01 0.  0.
     999903    2    3    3    0    0 -0.44764650274E-02 -0.15577725983E-01 -0.12496068337E+00  0.12755914957E+00  0.19835825278E-01 0.  0.
         14    1    1    2    0    0  0.48934033353E-02  0.55371573074E-02 -0.22824764722E-01  0.23991152367E-01  0.00000000000E+00 0.  1.
     999901    1    3    3    0    0 -0.41693830788E-03  0.10040568676E-01  0.14778544809E+00  0.89237969807E+00  0.88000000000E+00 0.  1.
        -11    1    4    4    0    0 -0.76151784258E-02 -0.92901167966E-02 -0.29744342767E-01  0.32082460320E-01  0.51100000000E-03 0.  1.
         11    1    4    4    0    0  0.31387133984E-02 -0.62876091863E-02 -0.95216340599E-01  0.95476689245E-01  0.51100000000E-03 0. -1.
</event>
<event>
 8    1  0.9956970E+004  0.1043930E+01  0.7957747E-01            NaN
         13   -1    0    0    0    0  0.00000000000E+00  0.00000000000E+00  0.74505805969E-08  0.10566000000E+00  0.10566000000E+00 0.  1.
     999900   -1    0    0    0    0 -0.00000000000E+00 -0.00000000000E+00 -0.74505805969E-08  0.93827000000E+00  0.93827000000E+00 0. -1.
     999902    2    1    2    0    0 -0.24860935735E-01 -0.15374330165E-01 -0.21383453000E-01  0.10077127636E+01  0.10070617288E+01 0.  0.
     999903    2    3    3    0    0 -0.83811315296E-01  0.69947771314E-01  0.43696774934E-01  0.11923628985E+00  0.19770113677E-01 0.  0.
         14    1    1    2    0    0  0.24860935735E-01  0.15374330165E-01  0.21383453000E-01  0.36217236447E-01  0.00000000000E+00 0.  1.
     999901    1    3    3    0    0  0.58950379560E-01 -0.85322101479E-01 -0.65080227934E-01  0.88847647370E+00  0.88000000000E+00 0. -1.
        -11    1    4    4    0    0 -0.26542266840E-01  0.33184434267E-01  0.11979515109E-01  0.44152785981E-01  0.51100000000E-03 0. -1.
         11    1    4    4    0    0 -0.57269048455E-01  0.36763337047E-01  0.31717259825E-01  0.75083503871E-01  0.51100000000E-03 0.  1.
</event>
<event>
 8    1  0.9956970E+004  0.1043930E+01  0.7957747E-01            NaN
         13   -1    0    0    0    0  0.00000000000E+00  0.00000000000E+00  0.74505805969E-08  0.10566000000E+00  0.10566000000E+00 0.  1.
     999900   -1    0    0    0    0 -0.00000000000E+00 -0.00000000000E+00 -0.74505805969E-08  0.93827000000E+00  0.93827000000E+00 0. -1.
     999902    2    1    2    0    0 -0.10649660821E-01 -0.19296078931E-01 -0.39983400099E-02  0.10215304317E+01  0.10212848193E+01 0.  0.
     999903    2    3    3    0    0  0.10433742878E+00  0.56521923280E-01 -0.48434971458E-01  0.12970925317E+00  0.19937829430E-01 0.  0.
         14    1    1    2    0    0  0.10649660821E-01  0.19296078931E-01  0.39983400099E-02  0.22399568312E-01  0.00000000000E+00 0. -1.
     999901    1    3    3    0    0 -0.11498708960E+00 -0.75818002211E-01  0.44436631448E-01  0.89182117852E+00  0.88000000000E+00 0.  1.
        -11    1    4    4    0    0  0.96606815731E-02  0.75274735155E-02  0.80212101888E-03  0.12283979205E-01  0.51100000000E-03 0. -1.
         11    1    4    4    0    0  0.94676747208E-01  0.48994449765E-01 -0.49237092477E-01  0.11742527397E+00  0.51100000000E-03 0.  1.
</event>
<event>
 8    1  0.9956970E+004  0.1043930E+01  0.7957747E-01            NaN
         13   -1    0    0    0    0  0.00000000000E+00  0.00000000000E+00  0.74505805969E-08  0.10566000000E+00  0.10566000000E+00 0.  1.
     999900   -1    0    0    0    0 -0.00000000000E+00 -0.00000000000E+00 -0.74505805969E-08  0.93827000000E+00  0.93827000000E+00 0. -1.
     999902    2    1    2    0    0 -0.22997124084E-01  0.29685341338E-02 -0.60206474882E-02  0.10199732033E+01  0.10196918198E+01 0.  0.
     999903    2    3    3    0    0 -0.11521151876E+00  0.36809652313E-01 -0.52344884131E-01  0.13329702186E+00  0.19986610136E-01 0.  0.
         14    1    1    2    0    0  0.22997124084E-01 -0.29685341338E-02  0.60206474882E-02  0.23956796681E-01  0.00000000000E+00 0.  1.
     999901    1    3    3    0    0  0.92214394673E-01 -0.33841118179E-01  0.46324236643E-01  0.88667618146E+00  0.88000000000E+00 0.  1.
        -11    1    4    4    0    0 -0.72171308900E-01  0.32654681348E-01 -0.30920575852E-01  0.85037457478E-01  0.51100000000E-03 0. -1.
         11    1    4    4    0    0 -0.43040209857E-01  0.41549709648E-02 -0.21424308279E-01  0.48259564383E-01  0.51100000000E-03 0.  1.
</event>
<event>
 8    1  0.9956970E+004  0.1043930E+01  0.7957747E-01            NaN
         13   -1    0    0    0    0  0.00000000000E+00  0.00000000000E+00  0.74505805969E-08  0.10566000000E+00  0.10566000000E+00 0.  1.
     999900   -1    0    0    0    0 -0.00000000000E+00 -0.00000000000E+00 -0.74505805969E-08  0.93827000000E+00  0.93827000000E+00 0. -1.
     999902    2    1    2    0    0  0.13716578624E-02 -0.69744250486E-02 -0.22907837350E-01  0.10199447324E+01  0.10196626717E+01 0.  0.
     999903    2    3    3    0    0  0.15392405034E-01  0.11726566745E+00 -0.51667255222E-01  0.13064203587E+00  0.20240389747E-01 0.  0.
         14    1    1    2    0    0 -0.13716578624E-02  0.69744250486E-02  0.22907837350E-01  0.23985267606E-01  0.00000000000E+00 0.  1.
     999901    1    3    3    0    0 -0.14020747171E-01 -0.12424009250E+00  0.28759417871E-01  0.88930269653E+00  0.88000000000E+00 0.  1.
        -11    1    4    4    0    0  0.96757494505E-02  0.52766444524E-01 -0.34021632484E-01  0.63526769106E-01  0.51100000000E-03 0.  1.
         11    1    4    4    0    0  0.57166555831E-02  0.64499222929E-01 -0.17645622738E-01  0.67115266760E-01  0.51100000000E-03 0. -1.
</event>
<event>
 8    1  0.9956970E+004  0.1043930E+01  0.7957747E-01            NaN
         13   -1    0    0    0    0  0.00000000000E+00  0.00000000000E+00  0.74505805969E-08  0.10566000000E+00  0.10566000000E+00 0. -1.
     999900   -1    0    0    0    0 -0.00000000000E+00 -0.00000000000E+00 -0.74505805969E-08  0.93827000000E+00  0.93827000000E+00 0.  1.
     999902    2    1    2    0    0 -0.14390191437E-03  0.19202311467E-01  0.14633875818E-01  0.10197866822E+01  0.10195008472E+01 0.  0.
     999903    2    3    3    0    0  0.28953372805E-01 -0.12275612933E+00  0.48750250819E-02  0.12788193084E+00  0.20558630331E-01 0.  0.
         14    1    1    2    0    0  0.14390191437E-03 -0.19202311467E-01 -0.14633875818E-01  0.24143317810E-01  0.00000000000E+00 0.  1.
     999901    1    3    3    0    0 -0.29097274720E-01  0.14195844080E+00  0.97588507364E-02  0.89190475135E+00  0.88000000000E+00 0.  1.
        -11    1    4    4    0    0  0.51509991514E-02 -0.66214450616E-01  0.13249281629E-02  0.66429683262E-01  0.51100000000E-03 0. -1.
         11    1    4    4    0    0  0.23802373654E-01 -0.56541678715E-01  0.35500969190E-02  0.61452247579E-01  0.51100000000E-03 0.  1.
</event>
<event>
 8    1  0.9956970E+004  0.1043930E+01  0.7957747E-01            NaN
         13   -1    0    0    0    0  0.00000000000E+00  0.00000000000E+00  0.74505805969E-08  0.10566000000E+00  0.10566000000E+00 0. -1.
     999900   -1    0    0    0    0 -0.00000000000E+00 -0.00000000000E+00 -0.74505805969E-08  0.93827000000E+00  0.93827000000E+00 0. -1.
     999902    2    1    2    0    0 -0.87804013510E-03  0.13169463464E-01  0.18906324932E-01  0.10208723582E+01  0.10206119326E+01 0.  0.
     999903    2    3    3    0    0 -0.58374684604E-01  0.71153583559E-01  0.95055946142E-01  0.13381723754E+00  0.20024582612E-01 0.  0.
         14    1    1    2    0    0  0.87804013510E-03 -0.13169463464E-01 -0.18906324932E-01  0.23057641788E-01  0.00000000000E+00 0.  1.
     999901    1    3    3    0    0  0.57496644469E-01 -0.57984120095E-01 -0.76149621210E-01  0.88705512068E+00  0.88000000000E+00 0. -1.
        -11    1    4    4    0    0 -0.24473104815E-01  0.38959026348E-01  0.35575994741E-01  0.58160563237E-01  0.51100000000E-03 0.  1.
         11    1    4    4    0    0 -0.33901579790E-01  0.32194557211E-01  0.59479951401E-01  0.75656674298E-01  0.51100000000E-03 0. -1.
</event>
<event>
 8    1  0.9956970E+004  0.1043930E+01  0.7957747E-01            NaN
         13   -1    0    0    0    0  0.00000000000E+00  0.00000000000E+00  0.74505805969E-08  0.10566000000E+00  0.10566000000E+00 0. -1.
     999900   -1    0    0    0    0 -0.00000000000E+00 -0.00000000000E+00 -0.74505805969E-08  0.93827000000E+00  0.93827000000E+00 0.  1.
     999902    2    1    2    0    0 -0.22036392512E-01  0.79396521398E-02  0.10503743340E-01  0.10182596027E+01  0.10179359750E+01 0.  0.
     999903    2    3    3    0    0  0.86540245926E-01 -0.54748046549E-01  0.72665495803E-01  0.12720252407E+00  0.20338266515E-01 0.  0.
         14    1    1    2    0    0  0.22036392512E-01 -0.79396521398E-02 -0.10503743340E-01  0.25670397254E-01  0.00000000000E+00 0. -1.
     999901    1    3    3    0    0 -0.10857663844E+00  0.62687698689E-01 -0.62161752462E-01  0.89105707867E+00  0.88000000000E+00 0. -1.
        -11    1    4    4    0    0  0.26193657119E-01 -0.27811977188E-01  0.29434609411E-01  0.48231432703E-01  0.51100000000E-03 0.  1.
         11    1    4    4    0    0  0.60346588806E-01 -0.26936069361E-01  0.43230886391E-01  0.78971091371E-01  0.51100000000E-03 0. -1.
</event>
<event>
 8    1  0.9956970E+004  0.1043930E+01  0.7957747E-01            NaN
         13   -1    0    0    0    0  0.00000000000E+00  0.00000000000E+00  0.74505805969E-08  0.10566000000E+00  0.10566000000E+00 0. -1.
     999900   -1    0    0    0    0 -0.00000000000E+00 -0.00000000000E+00 -0.74505805969E-08  0.93827000000E+00  0.93827000000E+00 0. -1.
     999902    2    1    2    0    0  0.34004612928E-02 -0.33140363484E-02  0.21142271666E-01  0.10222610908E+01  0.10220314066E+01 0.  0.
     999903    2    3    3    0    0 -0.35641400292E-01  0.32247970563E-01 -0.11874066439E+00  0.12964910396E+00  0.19982586363E-01 0.  0.
         14    1    1    2    0    0 -0.34004612928E-02  0.33140363484E-02 -0.21142271666E-01  0.21668909181E-01  0.00000000000E+00 0.  1.
     999901    1    3    3    0    0  0.39041861585E-01 -0.35562006911E-01  0.13988293605E+00  0.89261198686E+00  0.88000000000E+00 0.  1.
        -11    1    4    4    0    0 -0.42785542413E-02  0.70200400426E-02 -0.43937570896E-01  0.44703000412E-01  0.51100000000E-03 0. -1.
         11    1    4    4    0    0 -0.31362846051E-01  0.25227930520E-01 -0.74803093490E-01  0.84946103544E-01  0.51100000000E-03 0.  1.
</event>
<event>
 8    1  0.9956970E+004  0.1043930E+01  0.7957747E-01            NaN
         13   -1    0    0    0    0  0.00000000000E+00  0.00000000000E+00  0.74505805969E-08  0.10566000000E+00  0.10566000000E+00 0.  1.
     999900   -1    0    0    0    0 -0.00000000000E+00 -0.00000000000E+00 -0.74505805969E-08  0.93827000000E+00  0.93827000000E+00 0. -1.
     999902    2    1    2    0    0 -0.21453912678E-01 -0.65931118959E-02 -0.81481719767E-02  0.10200525588E+01  0.10197730583E+01 0.  0.
     999903    2    3    3    0    0 -0.43344098349E-01 -0.11324720852E+00 -0.49111357717E-01  0.13239707427E+00  0.20332700760E-01 0.  0.
         14    1    1    2    0    0  0.21453912678E-01  0.65931118959E-02  0.81481719767E-02  0.23877441242E-01  0.00000000000E+00 0.  1.
     999901    1    3    3    0    0  0.21890185670E-01  0.10665409662E+00  0.40963185741E-01  0.88765548449E+00  0.88000000000E+00 0.  1.
        -11    1    4    4    0    0 -0.32084789885E-01 -0.60596260009E-01 -0.21333920215E-01  0.71810429199E-01  0.51100000000E-03 0. -1.
         11    1    4    4    0    0 -0.11259308463E-01 -0.52650948508E-01 -0.27777437503E-01  0.60586645072E-01  0.51100000000E-03 0.  1.
</event>
<event>
 8    1  0.9956970E+004  0.1043930E+01  0.7957747E-01            NaN
         13   -1    0    0    0    0  0.00000000000E+00  0.00000000000E+00  0.74505805969E-08  0.10566000000E+00  0.10566000000E+00 0. -1.
     999900   -1    0    0    0    0 -0.00000000000E+00 -0.00000000000E+00 -0.74505805969E-08  0.93827000000E+00  0.93827000000E+00 0.  1.
     999902    2    1    2    0    0 -0.22958839407E-01 -0.61476280781E-02  0.22971171025E-02  0.10200515917E+01  0.10197720683E+01 0.  0.
     999903    2    3    3    0    0  0.61605139948E-02  0.11384458412E+00  0.58296271061E-01  0.12966854320E+00  0.20418976711E-01 0.  0.
         14    1    1    2    0    0  0.22958839407E-01  0.61476280781E-02 -0.22971171025E-02  0.23878408340E-01  0.00000000000E+00 0. -1.
     999901    1    3    3    0    0 -0.29119353401E-01 -0.11999221220E+00 -0.55999153959E-01  0.89038304845E+00  0.88000000000E+00 0. -1.
        -11    1    4    4    0    0  0.12914336681E-01  0.61563458110E-01  0.27897954808E-01  0.68814217062E-01  0.51100000000E-03 0. -1.
         11    1    4    4    0    0 -0.67538226858E-02  0.52281126015E-01  0.30398316254E-01  0.60854326143E-01  0.51100000000E-03 0.  1.
</event>
<event>
 8    1  0.9956970E+004  0.1043930E+01  0.7957747E-01            NaN
         13   -1    0    0    0    0  0.00000000000E+00  0.00000000000E+00  0.74505805969E-08  0.10566000000E+00  0.10566000000E+00 0. -1.
     999900   -1    0    0    0    0 -0.00000000000E+00 -0.00000000000E+00 -0.74505805969E-08  0.93827000000E+00  0.93827000000E+00 0.  1.
     999902    2    1    2    0    0  0.16415393115E-01  0.14662905777E-01 -0.84751085521E-02  0.10203441271E+01  0.10200714898E+01 0.  0.
     999903    2    3    3    0    0 -0.22435243832E-01 -0.91893024089E-01 -0.86412657295E-01  0.12964900544E+00  0.19850673287E-01 0.  0.
         14    1    1    2    0    0 -0.16415393115E-01 -0.14662905777E-01  0.84751085521E-02  0.23585872932E-01  0.00000000000E+00 0. -1.
     999901    1    3    3    0    0  0.38850636947E-01  0.10655592987E+00  0.77937548743E-01  0.89069512162E+00  0.88000000000E+00 0.  1.
        -11    1    4    4    0    0 -0.13839060846E-01 -0.39873903515E-01 -0.50674457619E-01  0.65951569827E-01  0.51100000000E-03 0. -1.
         11    1    4    4    0    0 -0.85961829861E-02 -0.52019120574E-01 -0.35738199676E-01  0.63697435618E-01  0.51100000000E-03 0.  1.
</event>
<event>
 8    1  0.9956970E+004  0.1043930E+01  0.7957747E-01            NaN
         13   -1    0    0    0    0  0.00000000000E+00  0.00000000000E+00  0.74505805969E-08  0.10566000000E+00  0.10566000000E+00 0.  1.
     999900   -1    0    0    0    0 -0.00000000000E+00 -0.00000000000E+00 -0.74505805969E-08  0.93827000000E+00  0.93827000000E+00 0.  1.
     999902    2    1    2    0    0 -0.95175503312E-02  0.19620636324E-01 -0.93333871706E-02  0.10202094340E+01  0.10199336371E+01 0.  0.
     999903    2    3    3    0    0 -0.13284959895E-01  0.51960498715E-01  0.11735991490E+00  0.13054025233E+00  0.19774333544E-01 0.  0.
         14    1    1    2    0    0  0.95175503312E-02 -0.19620636324E-01  0.93333871706E-02  0.23720565974E-01  0.00000000000E+00 0. -1.
     999901    1    3    3    0    0  0.37674095639E-02 -0.32339862391E-01 -0.12669330207E+00  0.88966918170E+00  0.88000000000E+00 0.  1.
        -11    1    4    4    0    0 -0.15367473905E-02  0.41065666892E-01  0.86393831062E-01  0.95670819775E-01  0.51100000000E-03 0.  1.
         11    1    4    4    0    0 -0.11748212505E-01  0.10894831823E-01  0.30966083835E-01  0.34869432553E-01  0.51100000000E-03 0. -1.
</event>
<event>
 8    1  0.9956970E+004  0.1043930E+01  0.7957747E-01            NaN
         13   -1    0    0    0    0  0.00000000000E+00  0.00000000000E+00  0.74505805969E-08  0.10566000000E+00  0.10566000000E+00 0. -1.
     999900   -1    0    0    0    0 -0.00000000000E+00 -0.00000000000E+00 -0.74505805969E-08  0.93827000000E+00  0.93827000000E+00 0. -1.
     999902    2    1    2    0    0  0.10665142310E-01 -0.10696813799E-01  0.16483590095E-01  0.10215720970E+01  0.10213274076E+01 0.  0.
     999903    2    3    3    0    0  0.90317207288E-01 -0.91060312597E-01 -0.27803183358E-01  0.13322303173E+00  0.22938629333E-01 0.  0.
         14    1    1    2    0    0 -0.10665142310E-01  0.10696813799E-01 -0.16483590095E-01  0.22357903040E-01  0.00000000000E+00 0.  1.
     999901    1    3    3    0    0 -0.79652064978E-01  0.80363498798E-01  0.44286773454E-01  0.88834906523E+00  0.88000000000E+00 0.  1.
        -11    1    4    4    0    0  0.22053450958E-01 -0.30649856298E-01 -0.17051274084E-01  0.41433989177E-01  0.51100000000E-03 0. -1.
         11    1    4    4    0    0  0.68263756330E-01 -0.60410456298E-01 -0.10751909274E-01  0.91789042551E-01  0.51100000000E-03 0.  1.
</event>
<event>
 8    1  0.9956970E+004  0.1043930E+01  0.7957747E-01            NaN
         13   -1    0    0    0    0  0.00000000000E+00  0.00000000000E+00  0.74505805969E-08  0.10566000000E+00  0.10566000000E+00 0.  1.
     999900   -1    0    0    0    0 -0.00000000000E+00 -0.00000000000E+00 -0.74505805969E-08  0.93827000000E+00  0.93827000000E+00 0.  1.
     999902    2    1    2    0    0 -0.12741308720E-01 -0.19800825433E-01 -0.14974659242E-02  0.10203364407E+01  0.10200636236E+01 0.  0.
     999903    2    3    3    0    0 -0.35407934985E-02  0.39372333757E-01 -0.12213604102E+00  0.13008940867E+00  0.21055257057E-01 0.  0.
         14    1    1    2    0    0  0.12741308720E-01  0.19800825433E-01  0.14974659242E-02  0.23593559289E-01  0.00000000000E+00 0.  1.
     999901    1    3    3    0    0 -0.92005152219E-02 -0.59173159190E-01  0.12063857509E+00  0.89024703204E+00  0.88000000000E+00 0. -1.
        -11    1    4    4    0    0  0.82938360348E-02  0.12952374864E-01 -0.34028797073E-01  0.37346644856E-01  0.51100000000E-03 0. -1.
         11    1    4    4    0    0 -0.11834629533E-01  0.26419958894E-01 -0.88107243945E-01  0.92742763818E-01  0.51100000000E-03 0.  1.
</event>
<event>
 8    1  0.9956970E+004  0.1043930E+01  0.7957747E-01            NaN
         13   -1    0    0    0    0  0.00000000000E+00  0.00000000000E+00  0.74505805969E-08  0.10566000000E+00  0.10566000000E+00 0. -1.
     999900   -1    0    0    0    0 -0.00000000000E+00 -0.00000000000E+00 -0.74505805969E-08  0.93827000000E+00  0.93827000000E+00 0.  1.
     999902    2    1    2    0    0 -0.17722170168E-03  0.15825942153E-01  0.17392035900E-01  0.10204145845E+01  0.10201435926E+01 0.  0.
     999903    2    3    3    0    0  0.11615941188E+00  0.43000128862E-01 -0.39076394266E-01  0.13054867757E+00  0.13189866486E-01 0.  0.
         14    1    1    2    0    0  0.17722170168E-03 -0.15825942153E-01 -0.17392035900E-01  0.23515415482E-01  0.00000000000E+00 0.  1.
     999901    1    3    3    0    0 -0.11633663358E+00 -0.27174186709E-01  0.56468430166E-01  0.88986590694E+00  0.88000000000E+00 0.  1.
        -11    1    4    4    0    0  0.96579340646E-01  0.36372696845E-01 -0.27298935893E-01  0.10675221373E+00  0.51100000000E-03 0. -1.
         11    1    4    4    0    0  0.19580071231E-01  0.66274320162E-02 -0.11777458373E-01  0.23796463840E-01  0.51100000000E-03 0.  1.
</event>
<event>
 8    1  0.9956970E+004  0.1043930E+01  0.7957747E-01            NaN
         13   -1    0    0    0    0  0.00000000000E+00  0.00000000000E+00  0.74505805969E-08  0.10566000000E+00  0.10566000000E+00 0. -1.
     999900   -1    0    0    0    0 -0.00000000000E+00 -0.00000000000E+00 -0.74505805969E-08  0.93827000000E+00  0.93827000000E+00 0.  1.
     999902    2    1    2    0    0  0.60199265016E-02  0.88936626333E-02  0.21147150047E-01  0.10202121016E+01  0.10199363674E+01 0.  0.
     999903    2    3    3    0    0 -0.25628605292E-01 -0.43514197205E-02 -0.12346115760E+00  0.12774998787E+00  0.20041000507E-01 0.  0.
         14    1    1    2    0    0 -0.60199265016E-02 -0.88936626333E-02 -0.21147150047E-01  0.23717898415E-01  0.00000000000E+00 0.  1.
     999901    1    3    3    0    0  0.31648531794E-01  0.13245082354E-01  0.14460830765E+00  0.89246211371E+00  0.88000000000E+00 0. -1.
        -11    1    4    4    0    0 -0.27824776023E-01 -0.16925245618E-02 -0.92982643066E-01  0.97072734755E-01  0.51100000000E-03 0.  1.
         11    1    4    4    0    0  0.21961707309E-02 -0.26588951587E-02 -0.30478514538E-01  0.30677253117E-01  0.51100000000E-03 0. -1.
</event>
<event>
 8    1  0.9956970E+004  0.1043930E+01  0.7957747E-01            NaN
         13   -1    0    0    0    0  0.00000000000E+00  0.00000000000E+00  0.74505805969E-08  0.10566000000E+00  0.10566000000E+00 0.  1.
     999900   -1    0    0    0    0 -0.00000000000E+00 -0.00000000000E+00 -0.74505805969E-08  0.93827000000E+00  0.93827000000E+00 0. -1.
     999902    2    1    2    0    0  0.18626569190E-01  0.10094092846E-01 -0.10222994040E-01  0.10204066202E+01  0.10201354425E+01 0.  0.
     999903    2    3    3    0    0  0.43233041606E-01  0.96189292718E-01  0.76274190486E-01  0.13164364569E+00  0.19769203220E-01 0.  0.
         14    1    1    2    0    0 -0.18626569190E-01 -0.10094092846E-01  0.10222994040E-01  0.23523379802E-01  0.00000000000E+00 0.  1.
     999901    1    3    3    0    0 -0.24606472416E-01 -0.86095199871E-01 -0.86497184526E-01  0.88876297451E+00  0.88000000000E+00 0.  1.
        -11    1    4    4    0    0  0.10227264592E-01  0.17034825401E-01  0.59830482805E-02  0.20756690613E-01  0.51100000000E-03 0.  1.
         11    1    4    4    0    0  0.33005777015E-01  0.79154467316E-01  0.70291142206E-01  0.11088695508E+00  0.51100000000E-03 0. -1.
</event>
<event>
 8    1  0.9956970E+004  0.1043930E+01  0.7957747E-01            NaN
         13   -1    0    0    0    0  0.00000000000E+00  0.00000000000E+00  0.74505805969E-08  0.10566000000E+00  0.10566000000E+00 0. -1.
     999900   -1    0    0    0    0 -0.00000000000E+00 -0.00000000000E+00 -0.74505805969E-08  0.93827000000E+00  0.93827000000E+00 0. -1.
     999902    2    1    2    0    0  0.17464871636E-01 -0.31653443049E-02  0.86002543889E-02  0.10242067771E+01  0.10240168537E+01 0.  0.
     999903    2    3    3    0    0  0.91307641388E-01 -0.98809938381E-01  0.93119723861E-02  0.13594941037E+00  0.17176729923E-01 0.  0.
         14    1    1    2    0    0 -0.17464871636E-01  0.31653443049E-02 -0.86002543889E-02  0.19723222895E-01  0.00000000000E+00 0.  1.
     999901    1    3    3    0    0 -0.73842769753E-01  0.95644594076E-01 -0.71171799727E-03  0.88825736674E+00  0.88000000000E+00 0.  1.
        -11    1    4    4    0    0  0.62207579464E-01 -0.56725078566E-01  0.99661354673E-02  0.84776780183E-01  0.51100000000E-03 0.  1.
         11    1    4    4    0    0  0.29100061924E-01 -0.42084859815E-01 -0.65416308120E-03  0.51172630184E-01  0.51100000000E-03 0. -1.
</event>
<event>
 8    1  0.9956970E+004  0.1043930E+01  0.7957747E-01            NaN
         13   -1    0    0    0    0  0.00000000000E+00  0.00000000000E+00  0.74505805969E-08  0.10566000000E+00  0.10566000000E+00 0.  1.
     999900   -1    0    0    0    0 -0.00000000000E+00 -0.00000000000E+00 -0.74505805969E-08  0.93827000000E+00  0.93827000000E+00 0.  1.
     999902    2    1    2    0    0  0.22572462181E-01 -0.41785596730E-02 -0.38113142834E-02  0.10206597932E+01  0.10203944879E+01 0.  0.
     999903    2    3    3    0    0 -0.70338848604E-01 -0.57010221716E-01 -0.90982545507E-01  0.12991711441E+00  0.20072718489E-01 0.  0.
         14    1    1    2    0    0 -0.22572462181E-01  0.41785596730E-02  0.38113142834E-02  0.23270206840E-01  0.00000000000E+00 0.  1.
     999901    1    3    3    0    0  0.92911310785E-01  0.52831662043E-01  0.87171231224E-01  0.89074267875E+00  0.88000000000E+00 0. -1.
        -11    1    4    4    0    0 -0.59692069685E-01 -0.49815701350E-01 -0.86479844553E-01  0.11629175344E+00  0.51100000000E-03 0. -1.
         11    1    4    4    0    0 -0.10646778920E-01 -0.71945203659E-02 -0.45027009536E-02  0.13625360969E-01  0.51100000000E-03 0.  1.
</event>
<event>
 8    1  0.9956970E+004  0.1043930E+01  0.7957747E-01            NaN
         13   -1    0    0    0    0  0.00000000000E+00  0.00000000000E+00  0.74505805969E-08  0.10566000000E+00  0.10566000000E+00 0.  1.
     999900   -1    0    0    0    0 -0.00000000000E+00 -0.00000000000E+00 -0.74505805969E-08  0.93827000000E+00  0.93827000000E+00 0.  1.
     999902    2    1    2    0    0 -0.27329563099E-01 -0.45017103295E-02 -0.63735325815E-02  0.10155083123E+01  0.10151105063E+01 0.  0.
     999903    2    3    3    0    0 -0.11197067131E+00 -0.58317952883E-01 -0.15859119031E-01  0.12975988213E+00  0.25449960594E-01 0.  0.
         14    1    1    2    0    0  0.27329563099E-01  0.45017103295E-02  0.63735325815E-02  0.28421687716E-01  0.00000000000E+00 0.  1.
     999901    1    3    3    0    0  0.84641108206E-01  0.53816242553E-01  0.94855864495E-02  0.88574843015E+00  0.88000000000E+00 0. -1.
        -11    1    4    4    0    0 -0.64265844608E-01 -0.33164779635E-01  0.36368458766E-02  0.72411940730E-01  0.51100000000E-03 0. -1.
         11    1    4    4    0    0 -0.47704826698E-01 -0.25153173247E-01 -0.19495964908E-01  0.57347941405E-01  0.51100000000E-03 0.  1.
</event>
<event>
 8    1  0.9956970E+004  0.1043930E+01  0.7957747E-01            NaN
         13   -1    0    0    0    0  0.00000000000E+00  0.00000000000E+00  0.74505805969E-08  0.10566000000E+00  0.10566000000E+00 0.  1.
     999900   -1    0    0    0    0 -0.00000000000E+00 -0.00000000000E+00 -0.74505805969E-08  0.93827000000E+00  0.93827000000E+00 0. -1.
     999902    2    1    2    0    0 -0.12005500687E-01  0.93838456436E-02 -0.17508485184E-01  0.10207193201E+01  0.10204553860E+01 0.  0.
     999903    2    3    3    0    0 -0.11055589919E+00  0.57181624443E-01 -0.44114624079E-01  0.13353010959E+00  0.19795077430E-01 0.  0.
         14    1    1    2    0    0  0.12005500687E-01 -0.93838456436E-02  0.17508485184E-01  0.23210679853E-01  0.00000000000E+00 0.  1.
     999901    1    3    3    0    0  0.98550398500E-01 -0.47797778800E-01  0.26606138895E-01  0.88718921056E+00  0.88000000000E+00 0.  1.
        -11    1    4    4    0    0 -0.51142451319E-01  0.15665568148E-01 -0.16715633223E-01  0.56041358543E-01  0.51100000000E-03 0. -1.
         11    1    4    4    0    0 -0.59413447868E-01  0.41516056295E-01 -0.27398990856E-01  0.77488751046E-01  0.51100000000E-03 0.  1.
</event>
<event>
 8    1  0.1833858E+005  0.1043930E+01  0.7957747E-01            NaN
         13   -1    0    0    0    0  0.00000000000E+00  0.00000000000E+00  0.74505805969E-08  0.10566000000E+00  0.10566000000E+00 0.  1.
     999900   -1    0    0    0    0 -0.00000000000E+00 -0.00000000000E+00 -0.74505805969E-08  0.93827000000E+00  0.93827000000E+00 0.  1.
     999902    2    1    2    0    0  0.19642447792E-01 -0.72990000852E-04  0.12950536008E-01  0.10204024105E+01  0.10201311347E+01 0.  0.
     999903    2    3    3    0    0 -0.48598224924E-01  0.80938114306E-01 -0.84921162467E-01  0.12866340287E+00  0.20734068372E-01 0.  0.
         14    1    1    2    0    0 -0.19642447792E-01  0.72990000852E-04 -0.12950536008E-01  0.23527589458E-01  0.00000000000E+00 0.  1.
     999901    1    3    3    0    0  0.68240672716E-01 -0.81011104307E-01  0.97871698475E-01  0.89173900767E+00  0.88000000000E+00 0. -1.
        -11    1    4    4    0    0 -0.14432793996E-01  0.44131285224E-01 -0.41080330777E-01  0.61997827186E-01  0.51100000000E-03 0. -1.
         11    1    4    4    0    0 -0.34165430928E-01  0.36806829082E-01 -0.43840831689E-01  0.66665575688E-01  0.51100000000E-03 0.  1.
</event>
<event>
 8    1  0.9956970E+004  0.1043930E+01  0.7957747E-01            NaN
         13   -1    0    0    0    0  0.00000000000E+00  0.00000000000E+00  0.74505805969E-08  0.10566000000E+00  0.10566000000E+00 0.  1.
     999900   -1    0    0    0    0 -0.00000000000E+00 -0.00000000000E+00 -0.74505805969E-08  0.93827000000E+00  0.93827000000E+00 0. -1.
     999902    2    1    2    0    0  0.79098639228E-02  0.21159494575E-01 -0.72978680275E-02  0.10201908122E+01  0.10199145770E+01 0.  0.
     999903    2    3    3    0    0 -0.86078633217E-01 -0.44339627965E-01 -0.83495651420E-01  0.12950002704E+00  0.20571813033E-01 0.  0.
         14    1    1    2    0    0 -0.79098639228E-02 -0.21159494575E-01  0.72978680275E-02  0.23739187764E-01  0.00000000000E+00 0.  1.
     999901    1    3    3    0    0  0.93988497140E-01  0.65499122540E-01  0.76197783392E-01  0.89069078520E+00  0.88000000000E+00 0.  1.
        -11    1    4    4    0    0 -0.16931797095E-01 -0.16042166263E-01 -0.12659958972E-01  0.26543785213E-01  0.51100000000E-03 0. -1.
         11    1    4    4    0    0 -0.69146836122E-01 -0.28297461702E-01 -0.70835692448E-01  0.10295624182E+00  0.51100000000E-03 0.  1.
</event>
<event>
 8    1  0.9956970E+004  0.1043930E+01  0.7957747E-01            NaN
         13   -1    0    0    0    0  0.00000000000E+00  0.00000000000E+00  0.74505805969E-08  0.10566000000E+00  0.10566000000E+00 0.  1.
     999900   -1    0    0    0    0 -0.00000000000E+00 -0.00000000000E+00 -0.74505805969E-08  0.93827000000E+00  0.93827000000E+00 0.  1.
     999902    2    1    2    0    0  0.19735622909E-01  0.98051306856E-02 -0.84262612888E-02  0.10203368383E+01  0.10200640305E+01 0.  0.
     999903    2    3    3    0    0  0.89273913568E-01 -0.91401147333E-01 -0.24662402721E-01  0.13166260279E+00  0.20070014663E-01 0.  0.
         14    1    1    2    0    0 -0.19735622909E-01 -0.98051306856E-02  0.84262612888E-02  0.23593161693E-01  0.00000000000E+00 0.  1.
     999901    1    3    3    0    0 -0.69538290658E-01  0.10120627802E+00  0.16236141432E-01  0.88867423551E+00  0.88000000000E+00 0.  1.
        -11    1    4    4    0    0  0.51344589840E-01 -0.46025637498E-01 -0.22303970101E-01  0.72473128925E-01  0.51100000000E-03 0.  1.
         11    1    4    4    0    0  0.37929323728E-01 -0.45375509835E-01 -0.23584326193E-02  0.59189473867E-01  0.51100000000E-03 0. -1.
</event>
<event>
 8    1  0.9956970E+004  0.1043930E+01  0.7957747E-01            NaN
         13   -1    0    0    0    0  0.00000000000E+00  0.00000000000E+00  0.74505805969E-08  0.10566000000E+00  0.10566000000E+00 0.  1.
     999900   -1    0    0    0    0 -0.00000000000E+00 -0.00000000000E+00 -0.74505805969E-08  0.93827000000E+00  0.93827000000E+00 0. -1.
     999902    2    1    2    0    0 -0.14351432004E-01 -0.12106583673E-01  0.14989184407E-01  0.10199048337E+01  0.10196218226E+01 0.  0.
     999903    2    3    3    0    0  0.16666258104E-01 -0.12859925857E+00  0.10196549312E-01  0.13167310164E+00  0.20452447630E-01 0.  0.
         14    1    1    2    0    0  0.14351432004E-01  0.12106583673E-01 -0.14989184407E-01  0.24025166346E-01  0.00000000000E+00 0.  1.
     999901    1    3    3    0    0 -0.31017690108E-01  0.11649267490E+00  0.47926350954E-02  0.88823173201E+00  0.88000000000E+00 0.  1.
        -11    1    4    4    0    0  0.11227178160E-01 -0.46181274713E-01 -0.46299377209E-02  0.47754131841E-01  0.51100000000E-03 0.  1.
         11    1    4    4    0    0  0.54390799436E-02 -0.82417983856E-01  0.14826487033E-01  0.83918969799E-01  0.51100000000E-03 0. -1.
</event>
<event>
 8    1  0.9956970E+004  0.1043930E+01  0.7957747E-01            NaN
         13   -1    0    0    0    0  0.00000000000E+00  0.00000000000E+00  0.74505805969E-08  0.10566000000E+00  0.10566000000E+00 0.  1.
     999900   -1    0    0    0    0 -0.00000000000E+00 -0.00000000000E+00 -0.74505805969E-08  0.93827000000E+00  0.93827000000E+00 0.  1.
     999902    2    1    2    0    0  0.14270189037E-01  0.71898101707E-02  0.30391190961E-01  0.10095940691E+01  0.10090100238E+01 0.  0.
     999903    2    3    3    0    0  0.43506670352E-01  0.35373632651E-01 -0.10259893836E+00  0.11867573712E+00  0.20328900060E-01 0.  0.
         14    1    1    2    0    0 -0.14270189037E-01 -0.71898101707E-02 -0.30391190961E-01  0.34335930939E-01  0.00000000000E+00 0. -1.
     999901    1    3    3    0    0 -0.29236481315E-01 -0.28183822481E-01  0.13299012932E+00  0.89091833194E+00  0.88000000000E+00 0. -1.
        -11    1    4    4    0    0 -0.97597760675E-03  0.13871529574E-02 -0.12329231183E-01  0.12455833500E-01  0.51100000000E-03 0.  1.
         11    1    4    4    0    0  0.44482647958E-01  0.33986479694E-01 -0.90269707173E-01  0.10621990362E+00  0.51100000000E-03 0. -1.
</event>
<event>
 7    1  0.9956970E+004  0.1043930E+01  0.7957747E-01            NaN
         13   -1    0    0    0    0  0.00000000000E+00  0.00000000000E+00  0.74505805969E-08  0.10566000000E+00  0.10566000000E+00 0. -1.
     999900   -1    0    0    0    0 -0.00000000000E+00 -0.00000000000E+00 -0.74505805969E-08  0.93827000000E+00  0.93827000000E+00 0.  1.
     999902    2    1    2    0    0  0.39045813712E-02  0.22258486833E-01  0.28422562936E-02  0.10211535997E+01  0.10208995591E+01 0.  0.
         14    1    1    2    0    0 -0.39045813712E-02 -0.22258486833E-01 -0.28422562936E-02  0.22776400343E-01  0.00000000000E+00 0. -1.
     999901    1    3    3    0    0  0.98159834840E-01  0.95752658445E-01 -0.18694517457E-01  0.89081614812E+00  0.88000000000E+00 0. -1.
        -11    1    3    3    0    0 -0.87693168205E-01 -0.45966649540E-01  0.24148105517E-01  0.10191377110E+00  0.51100000000E-03 0.  1.
         11    1    3    3    0    0 -0.65620852638E-02 -0.27527522073E-01 -0.26113317665E-02  0.28423680428E-01  0.51100000000E-03 0. -1.
</event>
<event>
 8    1  0.9956970E+004  0.1043930E+01  0.7957747E-01            NaN
         13   -1    0    0    0    0  0.00000000000E+00  0.00000000000E+00  0.74505805969E-08  0.10566000000E+00  0.10566000000E+00 0.  1.
     999900   -1    0    0    0    0 -0.00000000000E+00 -0.00000000000E+00 -0.74505805969E-08  0.93827000000E+00  0.93827000000E+00 0.  1.
     999902    2    1    2    0    0  0.18748385787E-02 -0.90518649425E-02  0.20866558393E-01  0.10211075431E+01  0.10208524624E+01 0.  0.
     999903    2    3    3    0    0  0.29079102640E-01  0.11445152104E+00  0.54096985699E-01  0.13144613583E+00  0.20170718470E-01 0.  0.
         14    1    1    2    0    0 -0.18748385787E-02  0.90518649425E-02 -0.20866558393E-01  0.22822456875E-01  0.00000000000E+00 0. -1.
     999901    1    3    3    0    0 -0.27204264061E-01 -0.12350338598E+00 -0.33230427306E-01  0.88966140730E+00  0.88000000000E+00 0. -1.
        -11    1    4    4    0    0  0.17281878190E-01  0.69887696942E-01  0.22033639508E-01  0.75290742383E-01  0.51100000000E-03 0. -1.
         11    1    4    4    0    0  0.11797224450E-01  0.44563824100E-01  0.32063346191E-01  0.56155393447E-01  0.51100000000E-03 0.  1.
</event>
<event>
 8    1  0.9956970E+004  0.1043930E+01  0.7957747E-01            NaN
         13   -1    0    0    0    0  0.00000000000E+00  0.00000000000E+00  0.74505805969E-08  0.10566000000E+00  0.10566000000E+00 0.  1.
     999900   -1    0    0    0    0 -0.00000000000E+00 -0.00000000000E+00 -0.74505805969E-08  0.93827000000E+00  0.93827000000E+00 0. -1.
     999902    2    1    2    0    0  0.80654520444E-02 -0.13021357088E-02 -0.23252438666E-01  0.10192840474E+01  0.10189860384E+01 0.  0.
     999903    2    3    3    0    0  0.59595323031E-01 -0.10972939270E+00 -0.34120449203E-01  0.13106678160E+00  0.20546387427E-01 0.  0.
         14    1    1    2    0    0 -0.80654520444E-02  0.13021357088E-02  0.23252438666E-01  0.24645952568E-01  0.00000000000E+00 0.  1.
     999901    1    3    3    0    0 -0.51529870986E-01  0.10842725699E+00  0.10868010537E-01  0.88821726583E+00  0.88000000000E+00 0. -1.
        -11    1    4    4    0    0  0.26354311642E-01 -0.69650685298E-01 -0.20566246475E-01  0.77259299244E-01  0.51100000000E-03 0.  1.
         11    1    4    4    0    0  0.33241011388E-01 -0.40078707403E-01 -0.13554202728E-01  0.53807482359E-01  0.51100000000E-03 0. -1.
</event>
<event>
 8    1  0.9956970E+004  0.1043930E+01  0.7957747E-01            NaN
         13   -1    0    0    0    0  0.00000000000E+00  0.00000000000E+00  0.74505805969E-08  0.10566000000E+00  0.10566000000E+00 0. -1.
     999900   -1    0    0    0    0 -0.00000000000E+00 -0.00000000000E+00 -0.74505805969E-08  0.93827000000E+00  0.93827000000E+00 0.  1.
     999902    2    1    2    0    0 -0.17272974610E-01  0.98676999271E-04  0.17242077347E-01  0.10195239634E+01  0.10192317977E+01 0.  0.
     999903    2    3    3    0    0 -0.67076557114E-01  0.10829473268E+00  0.25958919028E-01  0.13145709287E+00  0.19495849506E-01 0.  0.
         14    1    1    2    0    0  0.17272974610E-01 -0.98676999271E-04 -0.17242077347E-01  0.24406036554E-01  0.00000000000E+00 0.  1.
     999901    1    3    3    0    0  0.49803582504E-01 -0.10819605568E+00 -0.87168416805E-02  0.88806687058E+00  0.88000000000E+00 0. -1.
        -11    1    4    4    0    0 -0.27146654536E-01  0.41848601008E-01  0.19867211304E-01  0.53695562804E-01  0.51100000000E-03 0.  1.
         11    1    4    4    0    0 -0.39929902579E-01  0.66446131667E-01  0.60917077233E-02  0.77761530061E-01  0.51100000000E-03 0. -1.
</event>
<event>
 8    1  0.9956970E+004  0.1043930E+01  0.7957747E-01            NaN
         13   -1    0    0    0    0  0.00000000000E+00  0.00000000000E+00  0.74505805969E-08  0.10566000000E+00  0.10566000000E+00 0.  1.
     999900   -1    0    0    0    0 -0.00000000000E+00 -0.00000000000E+00 -0.74505805969E-08  0.93827000000E+00  0.93827000000E+00 0. -1.
     999902    2    1    2    0    0  0.20695902211E-01  0.86739494889E-02  0.79983941016E-02  0.10201070683E+01  0.10198288575E+01 0.  0.
     999903    2    3    3    0    0 -0.10689803949E+00  0.65521974036E-01  0.21691698195E-01  0.12898450743E+00  0.21122345029E-01 0.  0.
         14    1    1    2    0    0 -0.20695902211E-01 -0.86739494889E-02 -0.79983941016E-02  0.23822931731E-01  0.00000000000E+00 0. -1.
     999901    1    3    3    0    0  0.12759394170E+00 -0.56848024547E-01 -0.13693304093E-01  0.89112256084E+00  0.88000000000E+00 0. -1.
        -11    1    4    4    0    0 -0.38838524297E-01  0.16884185640E-01  0.15505867398E-01  0.45102103488E-01  0.51100000000E-03 0.  1.
         11    1    4    4    0    0 -0.68059515190E-01  0.48637788396E-01  0.61858307966E-02  0.83882403945E-01  0.51100000000E-03 0. -1.
</event>
<event>
 8    1  0.9956970E+004  0.1043930E+01  0.7957747E-01            NaN
         13   -1    0    0    0    0  0.00000000000E+00  0.00000000000E+00  0.74505805969E-08  0.10566000000E+00  0.10566000000E+00 0. -1.
     999900   -1    0    0    0    0 -0.00000000000E+00 -0.00000000000E+00 -0.74505805969E-08  0.93827000000E+00  0.93827000000E+00 0. -1.
     999902    2    1    2    0    0 -0.73508087322E-02 -0.18545946608E-01  0.12564540539E-01  0.10203534395E+01  0.10200810200E+01 0.  0.
     999903    2    3    3    0    0 -0.10851048655E+00 -0.73401792779E-01  0.10078192229E-01  0.13285773464E+00  0.19678892726E-01 0.  0.
         14    1    1    2    0    0  0.73508087322E-02  0.18545946608E-01 -0.12564540539E-01  0.23576560469E-01  0.00000000000E+00 0.  1.
     999901    1    3    3    0    0  0.10115967782E+00  0.54855846170E-01  0.24863483098E-02  0.88749570489E+00  0.88000000000E+00 0. -1.
        -11    1    4    4    0    0 -0.92794001323E-01 -0.64793848934E-01  0.15248219645E-01  0.11420043286E+00  0.51100000000E-03 0.  1.
         11    1    4    4    0    0 -0.15716485232E-01 -0.86079438450E-02 -0.51700274160E-02  0.18657301781E-01  0.51100000000E-03 0. -1.
</event>
<event>
 8    1  0.9956970E+004  0.1043930E+01  0.7957747E-01            NaN
         13   -1    0    0    0    0  0.00000000000E+00  0.00000000000E+00  0.74505805969E-08  0.10566000000E+00  0.10566000000E+00 0.  1.
     999900   -1    0    0    0    0 -0.00000000000E+00 -0.00000000000E+00 -0.74505805969E-08  0.93827000000E+00  0.93827000000E+00 0. -1.
     999902    2    1    2    0    0  0.44252321251E-03  0.19416907497E-01  0.12214769391E-01  0.10209863143E+01  0.10207284856E+01 0.  0.
     999903    2    3    3    0    0 -0.12477368343E+00 -0.71102690928E-02 -0.32135906222E-01  0.13062134869E+00  0.20253203729E-01 0.  0.
         14    1    1    2    0    0 -0.44252321251E-03 -0.19416907497E-01 -0.12214769391E-01  0.22943685728E-01  0.00000000000E+00 0. -1.
     999901    1    3    3    0    0  0.12521620665E+00  0.26527176589E-01  0.44350675613E-01  0.89036496558E+00  0.88000000000E+00 0.  1.
        -11    1    4    4    0    0 -0.71263224334E-01 -0.36657292393E-02 -0.28613186713E-01  0.76882119431E-01  0.51100000000E-03 0. -1.
         11    1    4    4    0    0 -0.53510459100E-01 -0.34445398536E-02 -0.35227195095E-02  0.53739229261E-01  0.51100000000E-03 0.  1.
</event>
<event>
 8    1  0.9956970E+004  0.1043930E+01  0.7957747E-01            NaN
         13   -1    0    0    0    0  0.00000000000E+00  0.00000000000E+00  0.74505805969E-08  0.10566000000E+00  0.10566000000E+00 0.  1.
     999900   -1    0    0    0    0 -0.00000000000E+00 -0.00000000000E+00 -0.74505805969E-08  0.93827000000E+00  0.93827000000E+00 0. -1.
     999902    2    1    2    0    0 -0.34514440606E-02  0.17440485590E-01 -0.16737016547E-01  0.10195125733E+01  0.10192201315E+01 0.  0.
     999903    2    3    3    0    0  0.31977942139E-01  0.32933177529E-01 -0.12245554529E+00  0.13234197402E+00  0.20294199890E-01 0.  0.
         14    1    1    2    0    0  0.34514440606E-02 -0.17440485590E-01  0.16737016547E-01  0.24417426699E-01  0.00000000000E+00 0. -1.
     999901    1    3    3    0    0 -0.35429386199E-01 -0.15492691939E-01  0.10571852874E+00  0.88717059928E+00  0.88000000000E+00 0.  1.
        -11    1    4    4    0    0  0.33419530806E-02  0.98654920301E-02 -0.50137457425E-01  0.51210568650E-01  0.51100000000E-03 0. -1.
         11    1    4    4    0    0  0.28635989058E-01  0.23067685499E-01 -0.72318087865E-01  0.81131405369E-01  0.51100000000E-03 0.  1.
</event>
<event>
 8    1  0.9956970E+004  0.1043930E+01  0.7957747E-01            NaN
         13   -1    0    0    0    0  0.00000000000E+00  0.00000000000E+00  0.74505805969E-08  0.10566000000E+00  0.10566000000E+00 0. -1.
     999900   -1    0    0    0    0 -0.00000000000E+00 -0.00000000000E+00 -0.74505805969E-08  0.93827000000E+00  0.93827000000E+00 0. -1.
     999902    2    1    2    0    0  0.90555257470E-02  0.12360221597E-01  0.18117706004E-01  0.10202017701E+01  0.10199257928E+01 0.  0.
     999903    2    3    3    0    0  0.53159783365E-01  0.46314034229E-01 -0.10671658208E+00  0.12965045409E+00  0.21209880257E-01 0.  0.
         14    1    1    2    0    0 -0.90555257470E-02 -0.12360221597E-01 -0.18117706004E-01  0.23728229924E-01  0.00000000000E+00 0.  1.
     999901    1    3    3    0    0 -0.44104257618E-01 -0.33953812633E-01  0.12483428808E+00  0.89055131599E+00  0.88000000000E+00 0.  1.
        -11    1    4    4    0    0  0.42788351855E-01  0.42629873015E-01 -0.76394403440E-01  0.97388475323E-01  0.51100000000E-03 0. -1.
         11    1    4    4    0    0  0.10371431510E-01  0.36841612138E-02 -0.30322178636E-01  0.32261978762E-01  0.51100000000E-03 0.  1.
</event>
<event>
 8    1  0.9956970E+004  0.1043930E+01  0.7957747E-01            NaN
         13   -1    0    0    0    0  0.00000000000E+00  0.00000000000E+00  0.74505805969E-08  0.10566000000E+00  0.10566000000E+00 0. -1.
     999900   -1    0    0    0    0 -0.00000000000E+00 -0.00000000000E+00 -0.74505805969E-08  0.93827000000E+00  0.93827000000E+00 0. -1.
     999902    2    1    2    0    0 -0.39999434360E-02 -0.20254062274E-01 -0.10767869923E-01  0.10206453783E+01  0.10203797404E+01 0.  0.
     999903    2    3    3    0    0 -0.10999365592E+00 -0.67297178736E-01 -0.25515382228E-01  0.13291500761E+00  0.19693905342E-01 0.  0.
         14    1    1    2    0    0  0.39999434360E-02  0.20254062274E-01  0.10767869923E-01  0.23284621722E-01  0.00000000000E+00 0. -1.
     999901    1    3    3    0    0  0.10599371249E+00  0.47043116463E-01  0.14747512305E-01  0.88773037067E+00  0.88000000000E+00 0.  1.
        -11    1    4    4    0    0 -0.47735693678E-01 -0.26828951178E-01 -0.20561068562E-01  0.58493655499E-01  0.51100000000E-03 0.  1.
         11    1    4    4    0    0 -0.62257962245E-01 -0.40468227558E-01 -0.49543136660E-02  0.74421352108E-01  0.51100000000E-03 0. -1.
</event>
<event>
 8    1  0.9956970E+004  0.1043930E+01  0.7957747E-01            NaN
         13   -1    0    0    0    0  0.00000000000E+00  0.00000000000E+00  0.74505805969E-08  0.10566000000E+00  0.10566000000E+00 0.  1.
     999900   -1    0    0    0    0 -0.00000000000E+00 -0.00000000000E+00 -0.74505805969E-08  0.93827000000E+00  0.93827000000E+00 0. -1.
     999902    2    1    2    0    0 -0.78937514657E-02 -0.31814370612E-02  0.20065827341E-01  0.10221338930E+01  0.10219014752E+01 0.  0.
     999903    2    3    3    0    0 -0.10627031314E-01 -0.12845359549E+00  0.27414081947E-01  0.13322749671E+00  0.19615657079E-01 0.  0.
         14    1    1    2    0    0  0.78937514657E-02  0.31814370612E-02 -0.20065827341E-01  0.21796107011E-01  0.00000000000E+00 0. -1.
     999901    1    3    3    0    0  0.27332798488E-02  0.12527215843E+00 -0.73482546063E-02  0.88890639628E+00  0.88000000000E+00 0. -1.
        -11    1    4    4    0    0 -0.46042132168E-02 -0.49661044547E-01  0.93577868302E-03  0.49885417986E-01  0.51100000000E-03 0. -1.
         11    1    4    4    0    0 -0.60228180977E-02 -0.78792550941E-01  0.26478303264E-01  0.83342078726E-01  0.51100000000E-03 0.  1.
</event>
<event>
 8    1  0.9956970E+004  0.1043930E+01  0.7957747E-01            NaN
         13   -1    0    0    0    0  0.00000000000E+00  0.00000000000E+00  0.74505805969E-08  0.10566000000E+00  0.10566000000E+00 0. -1.
     999900   -1    0    0    0    0 -0.00000000000E+00 -0.00000000000E+00 -0.74505805969E-08  0.93827000000E+00  0.93827000000E+00 0.  1.
     999902    2    1    2    0    0 -0.13588197332E-02  0.14862147597E-01 -0.18112354265E-01  0.10204611441E+01  0.10201912366E+01 0.  0.
     999903    2    3    3    0    0 -0.90813920139E-01 -0.90115923113E-01  0.39200158650E-02  0.12944597266E+00  0.19309210886E-01 0.  0.
         14    1    1    2    0    0  0.13588197332E-02 -0.14862147597E-01  0.18112354265E-01  0.23468855943E-01  0.00000000000E+00 0.  1.
     999901    1    3    3    0    0  0.89455100406E-01  0.10497807071E+00 -0.22032370130E-01  0.89101517139E+00  0.88000000000E+00 0.  1.
        -11    1    4    4    0    0 -0.74410106707E-01 -0.69878143604E-01  0.10368134154E-01  0.10260398755E+00  0.51100000000E-03 0. -1.
         11    1    4    4    0    0 -0.16403813432E-01 -0.20237779509E-01 -0.64481182886E-02  0.26841985117E-01  0.51100000000E-03 0.  1.
</event>
<event>
 8    1  0.9956970E+004  0.1043930E+01  0.7957747E-01            NaN
         13   -1    0    0    0    0  0.00000000000E+00  0.00000000000E+00  0.74505805969E-08  0.10566000000E+00  0.10566000000E+00 0.  1.
     999900   -1    0    0    0    0 -0.00000000000E+00 -0.00000000000E+00 -0.74505805969E-08  0.93827000000E+00  0.93827000000E+00 0.  1.
     999902    2    1    2    0    0 -0.22791845876E-02  0.19047689804E-01 -0.13033888929E-01  0.10207375135E+01  0.10204739977E+01 0.  0.
     999903    2    3    3    0    0  0.19660378920E-02 -0.95278226288E-01 -0.86687914220E-01  0.13028069117E+00  0.19402533593E-01 0.  0.
         14    1    1    2    0    0  0.22791845876E-02 -0.19047689804E-01  0.13033888929E-01  0.23192486496E-01  0.00000000000E+00 0. -1.
     999901    1    3    3    0    0 -0.42452224796E-02  0.11432591609E+00  0.73654025291E-01  0.89045682234E+00  0.88000000000E+00 0.  1.
        -11    1    4    4    0    0  0.18957642995E-02 -0.24956750949E-01 -0.34881257925E-01  0.42934794930E-01  0.51100000000E-03 0. -1.
         11    1    4    4    0    0  0.70273592488E-04 -0.70321475339E-01 -0.51806656295E-01  0.87345896238E-01  0.51100000000E-03 0.  1.
</event>
<event>
 8    1  0.9956970E+004  0.1043930E+01  0.7957747E-01            NaN
         13   -1    0    0    0    0  0.00000000000E+00  0.00000000000E+00  0.74505805969E-08  0.10566000000E+00  0.10566000000E+00 0.  1.
     999900   -1    0    0    0    0 -0.00000000000E+00 -0.00000000000E+00 -0.74505805969E-08  0.93827000000E+00  0.93827000000E+00 0.  1.
     999902    2    1    2    0    0 -0.15265208389E-01  0.11400704867E-01 -0.13922850127E-01  0.10203323642E+01  0.10200594517E+01 0.  0.
     999903    2    3    3    0    0 -0.83220588975E-01 -0.54172970379E-01 -0.85285100165E-01  0.13240758623E+00  0.19946012964E-01 0.  0.
         14    1    1    2    0    0  0.15265208389E-01 -0.11400704867E-01  0.13922850127E-01  0.23597635778E-01  0.00000000000E+00 0.  1.
     999901    1    3    3    0    0  0.67955380586E-01  0.65573675246E-01  0.71362250038E-01  0.88792477799E+00  0.88000000000E+00 0. -1.
        -11    1    4    4    0    0 -0.47987962407E-01 -0.35475737391E-01 -0.38940020828E-01  0.71259798081E-01  0.51100000000E-03 0.  1.
         11    1    4    4    0    0 -0.35232626568E-01 -0.18697232988E-01 -0.46345079337E-01  0.61147788153E-01  0.51100000000E-03 0. -1.
</event>
<event>
 8    1  0.9956970E+004  0.1043930E+01  0.7957747E-01            NaN
         13   -1    0    0    0    0  0.00000000000E+00  0.00000000000E+00  0.74505805969E-08  0.10566000000E+00  0.10566000000E+00 0. -1.
     999900   -1    0    0    0    0 -0.00000000000E+00 -0.00000000000E+00 -0.74505805969E-08  0.93827000000E+00  0.93827000000E+00 0.  1.
     999902    2    1    2    0    0  0.14904007098E-01 -0.36669255730E-02 -0.17813161312E-01  0.10204165042E+01  0.10201455570E+01 0.  0.
     999903    2    3    3    0    0 -0.86997559578E-01 -0.68831245711E-01 -0.65208615274E-01  0.13087918231E+00  0.23893118191E-01 0.  0.
         14    1    1    2    0    0 -0.14904007098E-01  0.36669255730E-02  0.17813161312E-01  0.23513495841E-01  0.00000000000E+00 0. -1.
     999901    1    3    3    0    0  0.10190156668E+00  0.65164320138E-01  0.47395453962E-01  0.88953732185E+00  0.88000000000E+00 0. -1.
        -11    1    4    4    0    0 -0.65266036708E-01 -0.38044489098E-01 -0.39418584761E-01  0.85212232947E-01  0.51100000000E-03 0. -1.
         11    1    4    4    0    0 -0.21731522869E-01 -0.30786756613E-01 -0.25790030514E-01  0.45666949360E-01  0.51100000000E-03 0.  1.
</event>
<event>
 8    1  0.9956970E+004  0.1043930E+01  0.7957747E-01            NaN
         13   -1    0    0    0    0  0.00000000000E+00  0.00000000000E+00  0.74505805969E-08  0.10566000000E+00  0.10566000000E+00 0.  1.
     999900   -1    0    0    0    0 -0.00000000000E+00 -0.00000000000E+00 -0.74505805969E-08  0.93827000000E+00  0.93827000000E+00 0.  1.
     999902    2    1    2    0    0  0.11191068419E-01  0.11987482534E-01 -0.15935021813E-01  0.10210637657E+01  0.10208076944E+01 0.  0.
     999903    2    3    3    0    0 -0.45020181725E-01  0.82599100373E-01  0.88151278946E-01  0.13034514392E+00  0.19229675488E-01 0.  0.
         14    1    1    2    0    0 -0.11191068419E-01 -0.11987482534E-01  0.15935021813E-01  0.22866234278E-01  0.00000000000E+00 0.  1.
     999901    1    3    3    0    0  0.56211250144E-01 -0.70611617839E-01 -0.10408630076E+00  0.89071862180E+00  0.88000000000E+00 0.  1.
        -11    1    4    4    0    0 -0.28781730603E-01  0.68962945512E-01  0.66467375659E-01  0.10001224434E+00  0.51100000000E-03 0.  1.
         11    1    4    4    0    0 -0.16238451122E-01  0.13636154861E-01  0.21683903286E-01  0.30332899581E-01  0.51100000000E-03 0. -1.
</event>
<event>
 8    1  0.9956970E+004  0.1043930E+01  0.7957747E-01            NaN
         13   -1    0    0    0    0  0.00000000000E+00  0.00000000000E+00  0.74505805969E-08  0.10566000000E+00  0.10566000000E+00 0.  1.
     999900   -1    0    0    0    0 -0.00000000000E+00 -0.00000000000E+00 -0.74505805969E-08  0.93827000000E+00  0.93827000000E+00 0.  1.
     999902    2    1    2    0    0 -0.40817264344E-02 -0.21922617577E-01  0.95972324144E-02  0.10196530866E+01  0.10193640412E+01 0.  0.
     999903    2    3    3    0    0 -0.20658669031E-02 -0.72704937374E-01 -0.10728809661E+00  0.13047082870E+00  0.14887099920E-01 0.  0.
         14    1    1    2    0    0  0.40817264344E-02  0.21922617577E-01 -0.95972324144E-02  0.24276913357E-01  0.00000000000E+00 0.  1.
     999901    1    3    3    0    0 -0.20158595312E-02  0.50782319797E-01  0.11688532902E+00  0.88918225794E+00  0.88000000000E+00 0. -1.
        -11    1    4    4    0    0  0.26819543919E-02 -0.34489119421E-01 -0.62191075259E-01  0.71166587671E-01  0.51100000000E-03 0.  1.
         11    1    4    4    0    0 -0.47478212951E-02 -0.38215817953E-01 -0.45097021349E-01  0.59304241033E-01  0.51100000000E-03 0. -1.
</event>
<event>
 8    1  0.9956970E+004  0.1043930E+01  0.7957747E-01            NaN
         13   -1    0    0    0    0  0.00000000000E+00  0.00000000000E+00  0.74505805969E-08  0.10566000000E+00  0.10566000000E+00 0.  1.
     999900   -1    0    0    0    0 -0.00000000000E+00 -0.00000000000E+00 -0.74505805969E-08  0.93827000000E+00  0.93827000000E+00 0.  1.
     999902    2    1    2    0    0  0.39516538325E-02  0.70254362860E-02 -0.22445976115E-01  0.10200805940E+01  0.10198017572E+01 0.  0.
     999903    2    3    3    0    0  0.11517635733E+00 -0.52961852259E-02 -0.61264545513E-01  0.13214498915E+00  0.20379174514E-01 0.  0.
         14    1    1    2    0    0 -0.39516538325E-02 -0.70254362860E-02  0.22445976115E-01  0.23849406005E-01  0.00000000000E+00 0.  1.
     999901    1    3    3    0    0 -0.11122470350E+00  0.12321621512E-01  0.38818569398E-01  0.88793560485E+00  0.88000000000E+00 0. -1.
        -11    1    4    4    0    0  0.55194071346E-01 -0.11795196413E-02 -0.40738120257E-01  0.68612187995E-01  0.51100000000E-03 0.  1.
         11    1    4    4    0    0  0.59982285986E-01 -0.41166655846E-02 -0.20526425256E-01  0.63532801153E-01  0.51100000000E-03 0. -1.
</event>
<event>
 8    1  0.9956970E+004  0.1043930E+01  0.7957747E-01            NaN
         13   -1    0    0    0    0  0.00000000000E+00  0.00000000000E+00  0.74505805969E-08  0.10566000000E+00  0.10566000000E+00 0.  1.
     999900   -1    0    0    0    0 -0.00000000000E+00 -0.00000000000E+00 -0.74505805969E-08  0.93827000000E+00  0.93827000000E+00 0. -1.
     999902    2    1    2    0    0 -0.16800331109E-01  0.51478475174E-02 -0.11187404758E-01  0.10230995059E+01  0.10228874276E+01 0.  0.
     999903    2    3    3    0    0  0.69704937972E-01  0.55306301455E-01 -0.97088818000E-01  0.13328037547E+00  0.20490352493E-01 0.  0.
         14    1    1    2    0    0  0.16800331109E-01 -0.51478475174E-02  0.11187404758E-01  0.20830494105E-01  0.00000000000E+00 0.  1.
     999901    1    3    3    0    0 -0.86505269081E-01 -0.50158453938E-01  0.85901413242E-01  0.88981913043E+00  0.88000000000E+00 0.  1.
        -11    1    4    4    0    0  0.65365027466E-01  0.43212409611E-01 -0.81258675840E-01  0.11288548481E+00  0.51100000000E-03 0. -1.
         11    1    4    4    0    0  0.43399105060E-02  0.12093891844E-01 -0.15830142160E-01  0.20394890658E-01  0.51100000000E-03 0.  1.
</event>
<event>
 7    1  0.9956970E+004  0.1043930E+01  0.7957747E-01            NaN
         13   -1    0    0    0    0  0.00000000000E+00  0.00000000000E+00  0.74505805969E-08  0.10566000000E+00  0.10566000000E+00 0.  1.
     999900   -1    0    0    0    0 -0.00000000000E+00 -0.00000000000E+00 -0.74505805969E-08  0.93827000000E+00  0.93827000000E+00 0. -1.
     999902    2    1    2    0    0  0.53869019459E-02 -0.72457362740E-02  0.22501842520E-01  0.10196843339E+01  0.10193960411E+01 0.  0.
         14    1    1    2    0    0 -0.53869019459E-02  0.72457362740E-02 -0.22501842520E-01  0.24245666077E-01  0.00000000000E+00 0. -1.
     999901    1    3    3    0    0  0.27664873023E-01 -0.21953328546E-01 -0.10111397196E+00  0.88649384045E+00  0.88000000000E+00 0. -1.
        -11    1    3    3    0    0  0.11823647886E-01  0.86964050249E-02  0.43427381458E-01  0.45843480354E-01  0.51100000000E-03 0. -1.
         11    1    3    3    0    0 -0.34101618963E-01  0.60111872470E-02  0.80188433027E-01  0.87347013116E-01  0.51100000000E-03 0.  1.
</event>
<event>
 8    1  0.9956970E+004  0.1043930E+01  0.7957747E-01            NaN
         13   -1    0    0    0    0  0.00000000000E+00  0.00000000000E+00  0.74505805969E-08  0.10566000000E+00  0.10566000000E+00 0. -1.
     999900   -1    0    0    0    0 -0.00000000000E+00 -0.00000000000E+00 -0.74505805969E-08  0.93827000000E+00  0.93827000000E+00 0. -1.
     999902    2    1    2    0    0  0.23078540277E-01  0.28423683064E-02  0.31720156427E-02  0.10204617286E+01  0.10201918348E+01 0.  0.
     999903    2    3    3    0    0 -0.11066334314E-01 -0.50278623585E-01  0.11850085137E+00  0.13069296506E+00  0.19692526381E-01 0.  0.
         14    1    1    2    0    0 -0.23078540277E-01 -0.28423683064E-02 -0.31720156427E-02  0.23468271392E-01  0.00000000000E+00 0. -1.
     999901    1    3    3    0    0  0.34144874590E-01  0.53120991892E-01 -0.11532883573E+00  0.88976876355E+00  0.88000000000E+00 0. -1.
        -11    1    4    4    0    0  0.19431535346E-02 -0.30838906623E-01  0.56083857071E-01  0.64034944775E-01  0.51100000000E-03 0. -1.
         11    1    4    4    0    0 -0.13009487848E-01 -0.19439716962E-01  0.62416994299E-01  0.66658020283E-01  0.51100000000E-03 0.  1.
</event>
<event>
 8    1  0.9956970E+004  0.1043930E+01  0.7957747E-01            NaN
         13   -1    0    0    0    0  0.00000000000E+00  0.00000000000E+00  0.74505805969E-08  0.10566000000E+00  0.10566000000E+00 0. -1.
     999900   -1    0    0    0    0 -0.00000000000E+00 -0.00000000000E+00 -0.74505805969E-08  0.93827000000E+00  0.93827000000E+00 0. -1.
     999902    2    1    2    0    0 -0.17062211151E-01  0.52469889515E-02 -0.17286719008E-01  0.10190808431E+01  0.10187778385E+01 0.  0.
     999903    2    3    3    0    0  0.10263762647E+00  0.66137305037E-01  0.30946980141E-01  0.12758649574E+00  0.20297113825E-01 0.  0.
         14    1    1    2    0    0  0.17062211151E-01 -0.52469889515E-02  0.17286719008E-01  0.24849156857E-01  0.00000000000E+00 0. -1.
     999901    1    3    3    0    0 -0.11969983762E+00 -0.60890316086E-01 -0.48233699150E-01  0.89149434740E+00  0.88000000000E+00 0.  1.
        -11    1    4    4    0    0  0.61767377565E-01  0.43955978314E-01  0.28583067220E-01  0.81022156312E-01  0.51100000000E-03 0.  1.
         11    1    4    4    0    0  0.40870248908E-01  0.22181326724E-01  0.23639129217E-02  0.46564339427E-01  0.51100000000E-03 0. -1.
</event>
<event>
 8    1  0.9956970E+004  0.1043930E+01  0.7957747E-01            NaN
         13   -1    0    0    0    0  0.00000000000E+00  0.00000000000E+00  0.74505805969E-08  0.10566000000E+00  0.10566000000E+00 0. -1.
     999900   -1    0    0    0    0 -0.00000000000E+00 -0.00000000000E+00 -0.74505805969E-08  0.93827000000E+00  0.93827000000E+00 0.  1.
     999902    2    1    2    0    0 -0.18812656841E-01 -0.57184941563E-02 -0.80172350565E-02  0.10226957519E+01  0.10224752847E+01 0.  0.
     999903    2    3    3    0    0  0.10243918898E+00 -0.63062407103E-01 -0.49005749270E-01  0.13158947726E+00  0.21061159446E-01 0.  0.
         14    1    1    2    0    0  0.18812656841E-01  0.57184941563E-02  0.80172350565E-02  0.21234248063E-01  0.00000000000E+00 0.  1.
     999901    1    3    3    0    0 -0.12125184582E+00  0.57343912947E-01  0.40988514214E-01  0.89110627467E+00  0.88000000000E+00 0. -1.
        -11    1    4    4    0    0  0.23943817646E-01 -0.23861701146E-01 -0.80094987290E-02  0.34743350097E-01  0.51100000000E-03 0.  1.
         11    1    4    4    0    0  0.78495371329E-01 -0.39200705957E-01 -0.40996250541E-01  0.96846127166E-01  0.51100000000E-03 0. -1.
</event>
<event>
 8    1  0.9956970E+004  0.1043930E+01  0.7957747E-01            NaN
         13   -1    0    0    0    0  0.00000000000E+00  0.00000000000E+00  0.74505805969E-08  0.10566000000E+00  0.10566000000E+00 0. -1.
     999900   -1    0    0    0    0 -0.00000000000E+00 -0.00000000000E+00 -0.74505805969E-08  0.93827000000E+00  0.93827000000E+00 0. -1.
     999902    2    1    2    0    0  0.17611591587E-01 -0.12454786853E-01  0.81419053539E-02  0.10208739705E+01  0.10206135817E+01 0.  0.
     999903    2    3    3    0    0  0.11717736793E+00 -0.52427539074E-02  0.58683612047E-01  0.13378895689E+00  0.26413947851E-01 0.  0.
         14    1    1    2    0    0 -0.17611591587E-01  0.12454786853E-01 -0.81419053539E-02  0.23056029506E-01  0.00000000000E+00 0.  1.
     999901    1    3    3    0    0 -0.99565776341E-01 -0.72120329454E-02 -0.50541706693E-01  0.88708501360E+00  0.88000000000E+00 0.  1.
        -11    1    4    4    0    0  0.78966898505E-01 -0.28475523163E-02  0.52834471045E-01  0.95055889167E-01  0.51100000000E-03 0.  1.
         11    1    4    4    0    0  0.38210469423E-01 -0.23952015912E-02  0.58491410026E-02  0.38733067728E-01  0.51100000000E-03 0. -1.
</event>
<event>
 8    1  0.9956970E+004  0.1043930E+01  0.7957747E-01            NaN
         13   -1    0    0    0    0  0.00000000000E+00  0.00000000000E+00  0.74505805969E-08  0.10566000000E+00  0.10566000000E+00 0.  1.
     999900   -1    0    0    0    0 -0.00000000000E+00 -0.00000000000E+00 -0.74505805969E-08  0.93827000000E+00  0.93827000000E+00 0.  1.
     999902    2    1    2    0    0  0.11205765364E-01 -0.10652621725E-01 -0.18329264544E-01  0.10199506450E+01  0.10196687250E+01 0.  0.
     999903    2    3    3    0    0  0.95452497337E-02 -0.56139450228E-01  0.11427861160E+00  0.12885207712E+00  0.17335139047E-01 0.  0.
         14    1    1    2    0    0 -0.11205765364E-01  0.10652621725E-01  0.18329264544E-01  0.23979354990E-01  0.00000000000E+00 0.  1.
     999901    1    3    3    0    0  0.16605156303E-02  0.45486828503E-01 -0.13260787614E+00  0.89109856789E+00  0.88000000000E+00 0.  1.
        -11    1    4    4    0    0 -0.48169315387E-02 -0.90921269301E-02  0.18278568330E-01  0.20981820292E-01  0.51100000000E-03 0. -1.
         11    1    4    4    0    0  0.14362181272E-01 -0.47047323298E-01  0.96000043266E-01  0.10787025683E+00  0.51100000000E-03 0.  1.
</event>
<event>
 8    1  0.9956970E+004  0.1043930E+01  0.7957747E-01            NaN
         13   -1    0    0    0    0  0.00000000000E+00  0.00000000000E+00  0.74505805969E-08  0.10566000000E+00  0.10566000000E+00 0.  1.
     999900   -1    0    0    0    0 -0.00000000000E+00 -0.00000000000E+00 -0.74505805969E-08  0.93827000000E+00  0.93827000000E+00 0.  1.
     999902    2    1    2    0    0 -0.89063404641E-03 -0.97032690186E-02 -0.17536716738E-01  0.10238680187E+01  0.10236714496E+01 0.  0.
     999903    2    3    3    0    0  0.91318397203E-02  0.27464145746E-01  0.12663688408E+00  0.13130547533E+00  0.19145695207E-01 0.  0.
         14    1    1    2    0    0  0.89063404641E-03  0.97032690186E-02  0.17536716738E-01  0.20061981273E-01  0.00000000000E+00 0. -1.
     999901    1    3    3    0    0 -0.10022473767E-01 -0.37167414765E-01 -0.14417360082E+00  0.89256254340E+00  0.88000000000E+00 0.  1.
        -11    1    4    4    0    0  0.15578903714E-02  0.44513685787E-02  0.37356092613E-02  0.60380130992E-02  0.51100000000E-03 0.  1.
         11    1    4    4    0    0  0.75739493489E-02  0.23012777168E-01  0.12290127482E+00  0.12526746223E+00  0.51100000000E-03 0. -1.
</event>
<event>
 8    1  0.9956970E+004  0.1043930E+01  0.7957747E-01            NaN
         13   -1    0    0    0    0  0.00000000000E+00  0.00000000000E+00  0.74505805969E-08  0.10566000000E+00  0.10566000000E+00 0.  1.
     999900   -1    0    0    0    0 -0.00000000000E+00 -0.00000000000E+00 -0.74505805969E-08  0.93827000000E+00  0.93827000000E+00 0. -1.
     999902    2    1    2    0    0 -0.53675800417E-02 -0.17726307481E-01  0.12246186325E-01  0.10217263523E+01  0.10214850645E+01 0.  0.
     999903    2    3    3    0    0  0.18638214788E-01 -0.12974916521E+00 -0.17523380085E-01  0.13380089036E+00  0.20331760586E-01 0.  0.
         14    1    1    2    0    0  0.53675800417E-02  0.17726307481E-01 -0.12246186325E-01  0.22203647717E-01  0.00000000000E+00 0. -1.
     999901    1    3    3    0    0 -0.24005794830E-01  0.11202285773E+00  0.29769566410E-01  0.88792546192E+00  0.88000000000E+00 0. -1.
        -11    1    4    4    0    0  0.14308325062E-01 -0.74708444961E-01 -0.66329509015E-03  0.76070894539E-01  0.51100000000E-03 0. -1.
         11    1    4    4    0    0  0.43298897258E-02 -0.55040720253E-01 -0.16860084994E-01  0.57729995826E-01  0.51100000000E-03 0.  1.
</event>
<event>
 8    1  0.9956970E+004  0.1043930E+01  0.7957747E-01            NaN
         13   -1    0    0    0    0  0.00000000000E+00  0.00000000000E+00  0.74505805969E-08  0.10566000000E+00  0.10566000000E+00 0.  1.
     999900   -1    0    0    0    0 -0.00000000000E+00 -0.00000000000E+00 -0.74505805969E-08  0.93827000000E+00  0.93827000000E+00 0. -1.
     999902    2    1    2    0    0  0.58046918654E-02 -0.67585475082E-02  0.24434255491E-01  0.10179222078E+01  0.10175899056E+01 0.  0.
     999903    2    3    3    0    0  0.82405940176E-01 -0.50375087826E-01  0.86782444216E-01  0.13132339751E+00  0.19653337092E-01 0.  0.
         14    1    1    2    0    0 -0.58046918654E-02  0.67585475082E-02 -0.24434255491E-01  0.26007792168E-01  0.00000000000E+00 0. -1.
     999901    1    3    3    0    0 -0.76601248311E-01  0.43616540318E-01 -0.62348188725E-01  0.88659881032E+00  0.88000000000E+00 0. -1.
        -11    1    4    4    0    0  0.11287810797E-01 -0.15814469918E-01  0.15423736488E-01  0.24812595584E-01  0.51100000000E-03 0. -1.
         11    1    4    4    0    0  0.71118129379E-01 -0.34560617908E-01  0.71358707728E-01  0.10651080192E+00  0.51100000000E-03 0.  1.
</event>
<event>
 8    1  0.9956970E+004  0.1043930E+01  0.7957747E-01            NaN
         13   -1    0    0    0    0  0.00000000000E+00  0.00000000000E+00  0.74505805969E-08  0.10566000000E+00  0.10566000000E+00 0.  1.
     999900   -1    0    0    0    0 -0.00000000000E+00 -0.00000000000E+00 -0.74505805969E-08  0.93827000000E+00  0.93827000000E+00 0. -1.
     999902    2    1    2    0    0 -0.12889093767E-01 -0.11898995307E-01 -0.19488684515E-01  0.10177093278E+01  0.10173714917E+01 0.  0.
     999903    2    3    3    0    0 -0.60284829530E-01 -0.74609250883E-01 -0.87770156976E-01  0.13157091229E+00  0.20161932384E-01 0.  0.
         14    1    1    2    0    0  0.12889093767E-01  0.11898995307E-01  0.19488684515E-01  0.26220672218E-01  0.00000000000E+00 0.  1.
     999901    1    3    3    0    0  0.47395735762E-01  0.62710255576E-01  0.68281472461E-01  0.88613841549E+00  0.88000000000E+00 0. -1.
        -11    1    4    4    0    0 -0.21476664194E-01 -0.36539903766E-01 -0.49043752909E-01  0.64822546175E-01  0.51100000000E-03 0. -1.
         11    1    4    4    0    0 -0.38808165335E-01 -0.38069347116E-01 -0.38726404067E-01  0.66748366119E-01  0.51100000000E-03 0.  1.
</event>
<event>
 8    1  0.9956970E+004  0.1043930E+01  0.7957747E-01            NaN
         13   -1    0    0    0    0  0.00000000000E+00  0.00000000000E+00  0.74505805969E-08  0.10566000000E+00  0.10566000000E+00 0. -1.
     999900   -1    0    0    0    0 -0.00000000000E+00 -0.00000000000E+00 -0.74505805969E-08  0.93827000000E+00  0.93827000000E+00 0. -1.
     999902    2    1    2    0    0  0.90189343944E-02  0.11146858781E-01  0.17740905568E-01  0.10211191831E+01  0.10208643655E+01 0.  0.
     999903    2    3    3    0    0  0.70500759488E-01 -0.40338819755E-02 -0.10787452984E+00  0.12994596348E+00  0.16199072381E-01 0.  0.
         14    1    1    2    0    0 -0.90189343944E-02 -0.11146858781E-01 -0.17740905568E-01  0.22810816923E-01  0.00000000000E+00 0.  1.
     999901    1    3    3    0    0 -0.61481825094E-01  0.15180740757E-01  0.12561543541E+00  0.89117321959E+00  0.88000000000E+00 0.  1.
        -11    1    4    4    0    0  0.10685452309E-01  0.52324668498E-02 -0.18565634125E-01  0.22056778818E-01  0.51100000000E-03 0. -1.
         11    1    4    4    0    0  0.59815307179E-01 -0.92663488253E-02 -0.89308895713E-01  0.10788918467E+00  0.51100000000E-03 0.  1.
</event>
<event>
 8    1  0.9956970E+004  0.1043930E+01  0.7957747E-01            NaN
         13   -1    0    0    0    0  0.00000000000E+00  0.00000000000E+00  0.74505805969E-08  0.10566000000E+00  0.10566000000E+00 0. -1.
     999900   -1    0    0    0    0 -0.00000000000E+00 -0.00000000000E+00 -0.74505805969E-08  0.93827000000E+00  0.93827000000E+00 0.  1.
     999902    2    1    2    0    0  0.15264621509E-01 -0.85966409523E-02  0.12394931028E-01  0.10224696827E+01  0.10222444457E+01 0.  0.
     999903    2    3    3    0    0 -0.92973323513E-01 -0.77259799084E-01  0.50198085897E-01  0.13238027111E+00  0.19788201310E-01 0.  0.
         14    1    1    2    0    0 -0.15264621509E-01  0.85966409523E-02 -0.12394931028E-01  0.21460317348E-01  0.00000000000E+00 0.  1.
     999901    1    3    3    0    0  0.10823794502E+00  0.68663158131E-01 -0.37803154870E-01  0.89008941155E+00  0.88000000000E+00 0. -1.
        -11    1    4    4    0    0 -0.30696860212E-01 -0.14570338334E-01  0.16846834165E-01  0.37929789459E-01  0.51100000000E-03 0.  1.
         11    1    4    4    0    0 -0.62276463301E-01 -0.62689460750E-01  0.33351251732E-01  0.94450481648E-01  0.51100000000E-03 0. -1.
</event>
<event>
 8    1  0.9956970E+004  0.1043930E+01  0.7957747E-01            NaN
         13   -1    0    0    0    0  0.00000000000E+00  0.00000000000E+00  0.74505805969E-08  0.10566000000E+00  0.10566000000E+00 0. -1.
     999900   -1    0    0    0    0 -0.00000000000E+00 -0.00000000000E+00 -0.74505805969E-08  0.93827000000E+00  0.93827000000E+00 0. -1.
     999902    2    1    2    0    0 -0.22913442203E-02 -0.23652477426E-01 -0.35872376413E-02  0.10198975590E+01  0.10196143745E+01 0.  0.
     999903    2    3    3    0    0 -0.69476647422E-01  0.10017960851E+00 -0.34002637392E-01  0.12817263111E+00  0.20225862577E-01 0.  0.
         14    1    1    2    0    0  0.22913442203E-02  0.23652477426E-01  0.35872376413E-02  0.24032441004E-01  0.00000000000E+00 0.  1.
     999901    1    3    3    0    0  0.67185303202E-01 -0.12383208594E+00  0.30415399751E-01  0.89172492789E+00  0.88000000000E+00 0.  1.
        -11    1    4    4    0    0 -0.40357630468E-01  0.54363878810E-01 -0.28988184213E-01  0.73652872322E-01  0.51100000000E-03 0.  1.
         11    1    4    4    0    0 -0.29119016954E-01  0.45815729702E-01 -0.50144531797E-02  0.54519758787E-01  0.51100000000E-03 0. -1.
</event>
<event>
 8    1  0.9956970E+004  0.1043930E+01  0.7957747E-01            NaN
         13   -1    0    0    0    0  0.00000000000E+00  0.00000000000E+00  0.74505805969E-08  0.10566000000E+00  0.10566000000E+00 0.  1.
     999900   -1    0    0    0    0 -0.00000000000E+00 -0.00000000000E+00 -0.74505805969E-08  0.93827000000E+00  0.93827000000E+00 0. -1.
     999902    2    1    2    0    0 -0.23015099311E-01  0.55361558351E-02  0.21916651362E-02  0.10201571749E+01  0.10198801470E+01 0.  0.
     999903    2    3    3    0    0  0.82962011155E-01  0.29309912421E-01  0.92019469728E-01  0.12894150294E+00  0.20409853283E-01 0.  0.
         14    1    1    2    0    0  0.23015099311E-01 -0.55361558351E-02 -0.21916651362E-02  0.23772825111E-01  0.00000000000E+00 0. -1.
     999901    1    3    3    0    0 -0.10597711047E+00 -0.23773756585E-01 -0.89827804592E-01  0.89121567195E+00  0.88000000000E+00 0. -1.
        -11    1    4    4    0    0  0.64628427602E-01  0.24917486898E-01  0.59335972612E-01  0.91207091689E-01  0.51100000000E-03 0. -1.
         11    1    4    4    0    0  0.18333583553E-01  0.43924255227E-02  0.32683497117E-01  0.37734411253E-01  0.51100000000E-03 0.  1.
</event>
<event>
 8    1  0.9956970E+004  0.1043930E+01  0.7957747E-01            NaN
         13   -1    0    0    0    0  0.00000000000E+00  0.00000000000E+00  0.74505805969E-08  0.10566000000E+00  0.10566000000E+00 0. -1.
     999900   -1    0    0    0    0 -0.00000000000E+00 -0.00000000000E+00 -0.74505805969E-08  0.93827000000E+00  0.93827000000E+00 0.  1.
     999902    2    1    2    0    0  0.11601302404E-01  0.79369250554E-02  0.19149526888E-01  0.10201752241E+01  0.10198986217E+01 0.  0.
     999903    2    3    3    0    0  0.19330477294E-01 -0.89293569491E-01  0.92693617367E-01  0.13173713261E+00  0.20385203029E-01 0.  0.
         14    1    1    2    0    0 -0.11601302404E-01 -0.79369250554E-02 -0.19149526888E-01  0.23754775874E-01  0.00000000000E+00 0.  1.
     999901    1    3    3    0    0 -0.77291748896E-02  0.97230494546E-01 -0.73544090480E-01  0.88843809152E+00  0.88000000000E+00 0.  1.
        -11    1    4    4    0    0 -0.22838442988E-03 -0.42715639717E-02  0.12552914763E-01  0.13271594036E-01  0.51100000000E-03 0.  1.
         11    1    4    4    0    0  0.19558861724E-01 -0.85022005519E-01  0.80140702604E-01  0.11846553857E+00  0.51100000000E-03 0. -1.
</event>
<event>
 8    1  0.9956970E+004  0.1043930E+01  0.7957747E-01            NaN
         13   -1    0    0    0    0  0.00000000000E+00  0.00000000000E+00  0.74505805969E-08  0.10566000000E+00  0.10566000000E+00 0. -1.
     999900   -1    0    0    0    0 -0.00000000000E+00 -0.00000000000E+00 -0.74505805969E-08  0.93827000000E+00  0.93827000000E+00 0. -1.
     999902    2    1    2    0    0 -0.43651441368E-02  0.21304369128E-01  0.94224314918E-02  0.10202295181E+01  0.10199541935E+01 0.  0.
     999903    2    3    3    0    0 -0.10376391314E+00 -0.62383461028E-01 -0.40936927599E-01  0.12926384354E+00  0.19356221875E-01 0.  0.
         14    1    1    2    0    0  0.43651441368E-02 -0.21304369128E-01 -0.94224314918E-02  0.23700481905E-01  0.00000000000E+00 0. -1.
     999901    1    3    3    0    0  0.99398769000E-01  0.83687830156E-01  0.50359359091E-01  0.89096567456E+00  0.88000000000E+00 0.  1.
        -11    1    4    4    0    0 -0.45617424365E-01 -0.31148572739E-01 -0.91152706947E-02  0.55986893735E-01  0.51100000000E-03 0.  1.
         11    1    4    4    0    0 -0.58146488772E-01 -0.31234888289E-01 -0.31821656904E-01  0.73276949801E-01  0.51100000000E-03 0. -1.
</event>
<event>
 8    1  0.9956970E+004  0.1043930E+01  0.7957747E-01            NaN
         13   -1    0    0    0    0  0.00000000000E+00  0.00000000000E+00  0.74505805969E-08  0.10566000000E+00  0.10566000000E+00 0. -1.
     999900   -1    0    0    0    0 -0.00000000000E+00 -0.00000000000E+00 -0.74505805969E-08  0.93827000000E+00  0.93827000000E+00 0. -1.
     999902    2    1    2    0    0  0.40197781293E-03  0.23626909368E-01 -0.33360398634E-02  0.10200653484E+01  0.10197861509E+01 0.  0.
     999903    2    3    3    0    0  0.99238113023E-01 -0.52032538299E-02 -0.81672397467E-01  0.13060689249E+00  0.22638527561E-01 0.  0.
         14    1    1    2    0    0 -0.40197781293E-03 -0.23626909368E-01  0.33360398634E-02  0.23864651567E-01  0.00000000000E+00 0. -1.
     999901    1    3    3    0    0 -0.98836135210E-01  0.28830163197E-01  0.78336357603E-01  0.88945845595E+00  0.88000000000E+00 0. -1.
        -11    1    4    4    0    0  0.59119022585E-01 -0.10324646362E-01 -0.59360787957E-01  0.84413395985E-01  0.51100000000E-03 0. -1.
         11    1    4    4    0    0  0.40119090438E-01  0.51213925323E-02 -0.22311609510E-01  0.46193496501E-01  0.51100000000E-03 0.  1.
</event>
<event>
 8    1  0.9956970E+004  0.1043930E+01  0.7957747E-01            NaN
         13   -1    0    0    0    0  0.00000000000E+00  0.00000000000E+00  0.74505805969E-08  0.10566000000E+00  0.10566000000E+00 0.  1.
     999900   -1    0    0    0    0 -0.00000000000E+00 -0.00000000000E+00 -0.74505805969E-08  0.93827000000E+00  0.93827000000E+00 0. -1.
     999902    2    1    2    0    0  0.14230082633E-01 -0.14590998366E-01 -0.12911195989E-01  0.10198034282E+01  0.10195179943E+01 0.  0.
     999903    2    3    3    0    0 -0.98464557969E-01 -0.81988659541E-02 -0.81893131021E-01  0.12991610458E+00  0.20229155728E-01 0.  0.
         14    1    1    2    0    0 -0.14230082633E-01  0.14590998366E-01  0.12911195989E-01  0.24126571802E-01  0.00000000000E+00 0.  1.
     999901    1    3    3    0    0  0.11269464060E+00 -0.63921324116E-02  0.68981935032E-01  0.88988732362E+00  0.88000000000E+00 0.  1.
        -11    1    4    4    0    0 -0.19054913699E-01  0.46463483772E-02 -0.99672307552E-02  0.22006478574E-01  0.51100000000E-03 0. -1.
         11    1    4    4    0    0 -0.79409644271E-01 -0.12845214331E-01 -0.71925900266E-01  0.10790962600E+00  0.51100000000E-03 0.  1.
</event>
<event>
 8    1  0.9956970E+004  0.1043930E+01  0.7957747E-01            NaN
         13   -1    0    0    0    0  0.00000000000E+00  0.00000000000E+00  0.74505805969E-08  0.10566000000E+00  0.10566000000E+00 0. -1.
     999900   -1    0    0    0    0 -0.00000000000E+00 -0.00000000000E+00 -0.74505805969E-08  0.93827000000E+00  0.93827000000E+00 0.  1.
     999902    2    1    2    0    0 -0.19574634045E-01  0.13152769176E-01 -0.54547737134E-02  0.10197242942E+01  0.10194369623E+01 0.  0.
     999903    2    3    3    0    0 -0.42562288389E-01 -0.89099708630E-01  0.80909962640E-01  0.12930704982E+00  0.20581171222E-01 0.  0.
         14    1    1    2    0    0  0.19574634045E-01 -0.13152769176E-01  0.54547737134E-02  0.24205705759E-01  0.00000000000E+00 0. -1.
     999901    1    3    3    0    0  0.22987654344E-01  0.10225247781E+00 -0.86364736354E-01  0.89041724442E+00  0.88000000000E+00 0.  1.
        -11    1    4    4    0    0 -0.28829404373E-01 -0.57796555203E-01  0.39914731291E-01  0.75927750164E-01  0.51100000000E-03 0. -1.
         11    1    4    4    0    0 -0.13732884016E-01 -0.31303153427E-01  0.40995231349E-01  0.53379299661E-01  0.51100000000E-03 0.  1.
</event>
<event>
 8    1  0.9956970E+004  0.1043930E+01  0.7957747E-01            NaN
         13   -1    0    0    0    0  0.00000000000E+00  0.00000000000E+00  0.74505805969E-08  0.10566000000E+00  0.10566000000E+00 0. -1.
     999900   -1    0    0    0    0 -0.00000000000E+00 -0.00000000000E+00 -0.74505805969E-08  0.93827000000E+00  0.93827000000E+00 0. -1.
     999902    2    1    2    0    0  0.20554999227E-01 -0.45499841155E-02 -0.11276864541E-01  0.10200474117E+01  0.10197677893E+01 0.  0.
     999903    2    3    3    0    0  0.12303455702E+00  0.39043811987E-01  0.21826175176E-01  0.13241106160E+00  0.19859149962E-01 0.  0.
         14    1    1    2    0    0 -0.20554999227E-01  0.45499841155E-02  0.11276864541E-01  0.23882588271E-01  0.00000000000E+00 0.  1.
     999901    1    3    3    0    0 -0.10247955779E+00 -0.43593796102E-01 -0.33103039717E-01  0.88763635012E+00  0.88000000000E+00 0.  1.
        -11    1    4    4    0    0  0.84664713660E-01  0.35304823586E-01  0.11164897198E-01  0.92409200614E-01  0.51100000000E-03 0. -1.
         11    1    4    4    0    0  0.38369843358E-01  0.37389884002E-02  0.10661277978E-01  0.40001860991E-01  0.51100000000E-03 0.  1.
</event>
<event>
 7    1  0.9956970E+004  0.1043930E+01  0.7957747E-01            NaN
         13   -1    0    0    0    0  0.00000000000E+00  0.00000000000E+00  0.74505805969E-08  0.10566000000E+00  0.10566000000E+00 0. -1.
     999900   -1    0    0    0    0 -0.00000000000E+00 -0.00000000000E+00 -0.74505805969E-08  0.93827000000E+00  0.93827000000E+00 0.  1.
     999903    2    1    2    0    0  0.59470260810E-02 -0.22572111293E-01 -0.99431404178E-01  0.10411570080E+00  0.20214046808E-01 0.  0.
         14    1    1    2    0    0  0.11256043650E-01 -0.42789610099E-02  0.56953635243E-01  0.58212752841E-01  0.00000000000E+00 0. -1.
     999901    1    1    2    0    0 -0.17203069731E-01  0.26851072303E-01  0.42477768935E-01  0.88160154636E+00  0.88000000000E+00 0. -1.
        -11    1    3    3    0    0  0.31443920603E-02 -0.24913390328E-01 -0.95406053855E-01  0.98656679714E-01  0.51100000000E-03 0.  1.
         11    1    3    3    0    0  0.28026340207E-02  0.23412790341E-02 -0.40253503231E-02  0.54590210837E-02  0.51100000000E-03 0. -1.
</event>
<event>
 8    1  0.9956970E+004  0.1043930E+01  0.7957747E-01            NaN
         13   -1    0    0    0    0  0.00000000000E+00  0.00000000000E+00  0.74505805969E-08  0.10566000000E+00  0.10566000000E+00 0.  1.
     999900   -1    0    0    0    0 -0.00000000000E+00 -0.00000000000E+00 -0.74505805969E-08  0.93827000000E+00  0.93827000000E+00 0. -1.
     999902    2    1    2    0    0 -0.20539073943E-01  0.10805250961E-01  0.57445589767E-02  0.10200216967E+01  0.10197414647E+01 0.  0.
     999903    2    3    3    0    0 -0.10501347246E+00 -0.75377299249E-01  0.16088147869E-01  0.13172538031E+00  0.19575001270E-01 0.  0.
         14    1    1    2    0    0  0.20539073943E-01 -0.10805250961E-01 -0.57445589767E-02  0.23908303256E-01  0.00000000000E+00 0. -1.
     999901    1    3    3    0    0  0.84474398518E-01  0.86182550209E-01 -0.10343588892E-01  0.88829631644E+00  0.88000000000E+00 0. -1.
        -11    1    4    4    0    0 -0.69322590702E-01 -0.49249437083E-01  0.19871651669E-01  0.87328530823E-01  0.51100000000E-03 0.  1.
         11    1    4    4    0    0 -0.35690881758E-01 -0.26127862166E-01 -0.37835037999E-02  0.44396849483E-01  0.51100000000E-03 0. -1.
</event>
<event>
 8    1  0.9956970E+004  0.1043930E+01  0.7957747E-01            NaN
         13   -1    0    0    0    0  0.00000000000E+00  0.00000000000E+00  0.74505805969E-08  0.10566000000E+00  0.10566000000E+00 0.  1.
     999900   -1    0    0    0    0 -0.00000000000E+00 -0.00000000000E+00 -0.74505805969E-08  0.93827000000E+00  0.93827000000E+00 0. -1.
     999902    2    1    2    0    0  0.21592387109E-01 -0.11249200706E-01 -0.35966284280E-02  0.10193187946E+01  0.10190216354E+01 0.  0.
     999903    2    3    3    0    0 -0.13689021814E-01 -0.12150321247E+00  0.40910457317E-01  0.13062221776E+00  0.20930319978E-01 0.  0.
         14    1    1    2    0    0 -0.21592387109E-01  0.11249200706E-01  0.35966284280E-02  0.24611205449E-01  0.00000000000E+00 0. -1.
     999901    1    3    3    0    0  0.35281408923E-01  0.11025401177E+00 -0.44507085745E-01  0.88869657680E+00  0.88000000000E+00 0. -1.
        -11    1    4    4    0    0 -0.15411945828E-02 -0.67232473550E-01  0.13399853412E-01  0.68574032788E-01  0.51100000000E-03 0.  1.
         11    1    4    4    0    0 -0.12147827231E-01 -0.54270738922E-01  0.27510603905E-01  0.62048184968E-01  0.51100000000E-03 0. -1.
</event>
<event>
 8    1  0.9956970E+004  0.1043930E+01  0.7957747E-01            NaN
         13   -1    0    0    0    0  0.00000000000E+00  0.00000000000E+00  0.74505805969E-08  0.10566000000E+00  0.10566000000E+00 0. -1.
     999900   -1    0    0    0    0 -0.00000000000E+00 -0.00000000000E+00 -0.74505805969E-08  0.93827000000E+00  0.93827000000E+00 0.  1.
     999902    2    1    2    0    0  0.10883958423E-01 -0.21229989588E-01  0.46030241989E-03  0.10200682128E+01  0.10197890831E+01 0.  0.
     999903    2    3    3    0    0  0.24683075381E-01 -0.12946258313E+00 -0.13997733496E-02  0.13332801986E+00  0.20114345006E-01 0.  0.
         14    1    1    2    0    0 -0.10883958423E-01  0.21229989588E-01 -0.46030241989E-03  0.23861787175E-01  0.00000000000E+00 0.  1.
     999901    1    3    3    0    0 -0.13799116959E-01  0.10823259354E+00  0.18600757695E-02  0.88674019296E+00  0.88000000000E+00 0.  1.
        -11    1    4    4    0    0  0.48574155335E-02 -0.69306597906E-01 -0.65018015471E-02  0.69782043129E-01  0.51100000000E-03 0. -1.
         11    1    4    4    0    0  0.19825659848E-01 -0.60155985221E-01  0.51020281975E-02  0.63545976734E-01  0.51100000000E-03 0.  1.
</event>
<event>
 8    1  0.9956970E+004  0.1043930E+01  0.7957747E-01            NaN
         13   -1    0    0    0    0  0.00000000000E+00  0.00000000000E+00  0.74505805969E-08  0.10566000000E+00  0.10566000000E+00 0.  1.
     999900   -1    0    0    0    0 -0.00000000000E+00 -0.00000000000E+00 -0.74505805969E-08  0.93827000000E+00  0.93827000000E+00 0.  1.
     999902    2    1    2    0    0 -0.22980153317E-01  0.50937881895E-02 -0.54688478980E-02  0.10197650994E+01  0.10194787470E+01 0.  0.
     999903    2    3    3    0    0 -0.78709989894E-01 -0.28191377746E-01  0.99146327088E-01  0.13119430772E+00  0.19797371409E-01 0.  0.
         14    1    1    2    0    0  0.22980153317E-01 -0.50937881895E-02  0.54688478980E-02  0.24164900619E-01  0.00000000000E+00 0.  1.
     999901    1    3    3    0    0  0.55729836577E-01  0.33285165935E-01 -0.10461517499E+00  0.88857079166E+00  0.88000000000E+00 0.  1.
        -11    1    4    4    0    0 -0.40417328359E-01 -0.24736422338E-01  0.57499880418E-01  0.74511397724E-01  0.51100000000E-03 0.  1.
         11    1    4    4    0    0 -0.38292661535E-01 -0.34549554082E-02  0.41646446670E-01  0.56682909995E-01  0.51100000000E-03 0. -1.
</event>
<event>
 8    1  0.9956970E+004  0.1043930E+01  0.7957747E-01            NaN
         13   -1    0    0    0    0  0.00000000000E+00  0.00000000000E+00  0.74505805969E-08  0.10566000000E+00  0.10566000000E+00 0.  1.
     999900   -1    0    0    0    0 -0.00000000000E+00 -0.00000000000E+00 -0.74505805969E-08  0.93827000000E+00  0.93827000000E+00 0.  1.
     999902    2    1    2    0    0  0.21493346879E-01 -0.67472648624E-03  0.10180610481E-01  0.10201378995E+01  0.10198604169E+01 0.  0.
     999903    2    3    3    0    0  0.12447654982E+00  0.23109644004E-01 -0.35679594135E-01  0.13262767718E+00  0.16988237585E-01 0.  0.
         14    1    1    2    0    0 -0.21493346879E-01  0.67472648624E-03 -0.10180610481E-01  0.23792100489E-01  0.00000000000E+00 0. -1.
     999901    1    3    3    0    0 -0.10298320294E+00 -0.23784370490E-01  0.45860204616E-01  0.88751022233E+00  0.88000000000E+00 0. -1.
        -11    1    4    4    0    0  0.94211998789E-01  0.10716468983E-01 -0.23181681639E-01  0.97613497570E-01  0.51100000000E-03 0. -1.
         11    1    4    4    0    0  0.30264551032E-01  0.12393175021E-01 -0.12497912496E-01  0.35014179614E-01  0.51100000000E-03 0.  1.
</event>
<event>
 8    1  0.9956970E+004  0.1043930E+01  0.7957747E-01            NaN
         13   -1    0    0    0    0  0.00000000000E+00  0.00000000000E+00  0.74505805969E-08  0.10566000000E+00  0.10566000000E+00 0. -1.
     999900   -1    0    0    0    0 -0.00000000000E+00 -0.00000000000E+00 -0.74505805969E-08  0.93827000000E+00  0.93827000000E+00 0.  1.
     999902    2    1    2    0    0  0.22765315477E-01 -0.54964290142E-02  0.51969718321E-03  0.10205047912E+01  0.10202358985E+01 0.  0.
     999903    2    3    3    0    0  0.89743399146E-01  0.57863708132E-01  0.75936778332E-01  0.13247984406E+00  0.19555775857E-01 0.  0.
         14    1    1    2    0    0 -0.22765315477E-01  0.54964290142E-02 -0.51969718321E-03  0.23425208768E-01  0.00000000000E+00 0. -1.
     999901    1    3    3    0    0 -0.66978083669E-01 -0.63360137146E-01 -0.75417081149E-01  0.88802494717E+00  0.88000000000E+00 0.  1.
        -11    1    4    4    0    0  0.25050573771E-01  0.10661502244E-01  0.10964667334E-01  0.29354453275E-01  0.51100000000E-03 0. -1.
         11    1    4    4    0    0  0.64692825376E-01  0.47202205888E-01  0.64972110999E-01  0.10312539078E+00  0.51100000000E-03 0.  1.
</event>
<event>
 8    1  0.9956970E+004  0.1043930E+01  0.7957747E-01            NaN
         13   -1    0    0    0    0  0.00000000000E+00  0.00000000000E+00  0.74505805969E-08  0.10566000000E+00  0.10566000000E+00 0.  1.
     999900   -1    0    0    0    0 -0.00000000000E+00 -0.00000000000E+00 -0.74505805969E-08  0.93827000000E+00  0.93827000000E+00 0. -1.
     999902    2    1    2    0    0 -0.20890399662E-01 -0.91976266466E-02 -0.70687769272E-02  0.10200349641E+01  0.10197550467E+01 0.  0.
     999903    2    3    3    0    0 -0.91208373589E-01  0.25667904367E-01  0.88766272988E-01  0.13135921923E+00  0.19949549590E-01 0.  0.
         14    1    1    2    0    0  0.20890399662E-01  0.91976266466E-02  0.70687769272E-02  0.23895035912E-01  0.00000000000E+00 0.  1.
     999901    1    3    3    0    0  0.70317973927E-01 -0.34865531013E-01 -0.95835049915E-01  0.88867574486E+00  0.88000000000E+00 0. -1.
        -11    1    4    4    0    0 -0.39749157326E-01  0.21090166495E-01  0.45135621569E-01  0.63735987373E-01  0.51100000000E-03 0.  1.
         11    1    4    4    0    0 -0.51459216263E-01  0.45777378715E-02  0.43630651419E-01  0.67623231856E-01  0.51100000000E-03 0. -1.
</event>
<event>
 8    1  0.1022008E+005  0.1043930E+01  0.7957747E-01            NaN
         13   -1    0    0    0    0  0.00000000000E+00  0.00000000000E+00  0.74505805969E-08  0.10566000000E+00  0.10566000000E+00 0.  1.
     999900   -1    0    0    0    0 -0.00000000000E+00 -0.00000000000E+00 -0.74505805969E-08  0.93827000000E+00  0.93827000000E+00 0. -1.
     999902    2    1    2    0    0 -0.49682503688E-03  0.23141009845E-01 -0.39752761190E-02  0.10204447708E+01  0.10201744822E+01 0.  0.
     999903    2    3    3    0    0 -0.41624915314E-01  0.12497910914E+00 -0.39866733649E-02  0.13361755061E+00  0.22030546304E-01 0.  0.
         14    1    1    2    0    0  0.49682503688E-03 -0.23141009845E-01  0.39752761190E-02  0.23485229230E-01  0.00000000000E+00 0.  1.
     999901    1    3    3    0    0  0.41128090277E-01 -0.10183809930E+00  0.11397245927E-04  0.88682722016E+00  0.88000000000E+00 0.  1.
        -11    1    4    4    0    0 -0.18216377107E-01  0.87040007694E-01 -0.95988898785E-03  0.88932456629E-01  0.51100000000E-03 0.  1.
         11    1    4    4    0    0 -0.23408538207E-01  0.37939101450E-01 -0.30267843771E-02  0.44685093986E-01  0.51100000000E-03 0. -1.
</event>
<event>
 8    1  0.9956970E+004  0.1043930E+01  0.7957747E-01            NaN
         13   -1    0    0    0    0  0.00000000000E+00  0.00000000000E+00  0.74505805969E-08  0.10566000000E+00  0.10566000000E+00 0. -1.
     999900   -1    0    0    0    0 -0.00000000000E+00 -0.00000000000E+00 -0.74505805969E-08  0.93827000000E+00  0.93827000000E+00 0.  1.
     999902    2    1    2    0    0 -0.24806815298E-01  0.13962432378E-01 -0.19633714346E-01  0.10093495092E+01  0.10087569685E+01 0.  0.
     999903    2    3    3    0    0  0.76530831724E-01  0.39648956101E-01  0.79092955786E-01  0.11767912641E+00  0.12793483192E-01 0.  0.
         14    1    1    2    0    0  0.24806815298E-01 -0.13962432378E-01  0.19633714346E-01  0.34580490774E-01  0.00000000000E+00 0. -1.
     999901    1    3    3    0    0 -0.10133764702E+00 -0.25686523722E-01 -0.98726670133E-01  0.89167038282E+00  0.88000000000E+00 0.  1.
        -11    1    4    4    0    0  0.36423505097E-01  0.13648518671E-01  0.29682631091E-01  0.48931314053E-01  0.51100000000E-03 0.  1.
         11    1    4    4    0    0  0.40107326627E-01  0.26000437429E-01  0.49410324695E-01  0.68747812352E-01  0.51100000000E-03 0. -1.
</event>
<event>
 8    1  0.9956970E+004  0.1043930E+01  0.7957747E-01            NaN
         13   -1    0    0    0    0  0.00000000000E+00  0.00000000000E+00  0.74505805969E-08  0.10566000000E+00  0.10566000000E+00 0. -1.
     999900   -1    0    0    0    0 -0.00000000000E+00 -0.00000000000E+00 -0.74505805969E-08  0.93827000000E+00  0.93827000000E+00 0.  1.
     999902    2    1    2    0    0 -0.24278949862E-01 -0.31920252040E-04  0.31893762486E-02  0.10194424410E+01  0.10191482963E+01 0.  0.
     999903    2    3    3    0    0 -0.21606537941E-01 -0.13041427041E-01  0.12679364400E+00  0.13070490715E+00  0.19241187416E-01 0.  0.
         14    1    1    2    0    0  0.24278949862E-01  0.31920252040E-04 -0.31893762486E-02  0.24487559007E-01  0.00000000000E+00 0.  1.
     999901    1    3    3    0    0 -0.26724119202E-02  0.13009506789E-01 -0.12360426775E+00  0.88873753384E+00  0.88000000000E+00 0.  1.
        -11    1    4    4    0    0 -0.17414550170E-01 -0.45295801909E-03  0.55047794874E-01  0.57740735794E-01  0.51100000000E-03 0. -1.
         11    1    4    4    0    0 -0.41919877718E-02 -0.12588469022E-01  0.71745849127E-01  0.72964171357E-01  0.51100000000E-03 0.  1.
</event>
<event>
 8    1  0.9956970E+004  0.1043930E+01  0.7957747E-01            NaN
         13   -1    0    0    0    0  0.00000000000E+00  0.00000000000E+00  0.74505805969E-08  0.10566000000E+00  0.10566000000E+00 0. -1.
     999900   -1    0    0    0    0 -0.00000000000E+00 -0.00000000000E+00 -0.74505805969E-08  0.93827000000E+00  0.93827000000E+00 0. -1.
     999902    2    1    2    0    0  0.52024389398E-03 -0.11927799580E-01 -0.20125272391E-01  0.10205297939E+01  0.10202614815E+01 0.  0.
     999903    2    3    3    0    0 -0.12561189945E+00  0.28969241911E-01 -0.13195880135E-02  0.13039747826E+00  0.19600886805E-01 0.  0.
         14    1    1    2    0    0 -0.52024389398E-03  0.11927799580E-01  0.20125272391E-01  0.23400206096E-01  0.00000000000E+00 0. -1.
     999901    1    3    3    0    0  0.12613214335E+00 -0.40897041490E-01 -0.18805684377E-01  0.89013231564E+00  0.88000000000E+00 0. -1.
        -11    1    4    4    0    0 -0.36101247765E-01  0.10791860016E-01 -0.89776537372E-02  0.38737884822E-01  0.51100000000E-03 0.  1.
         11    1    4    4    0    0 -0.89510651686E-01  0.18177381895E-01  0.76580657237E-02  0.91659593440E-01  0.51100000000E-03 0. -1.
</event>
<event>
 8    1  0.9956970E+004  0.1043930E+01  0.7957747E-01            NaN
         13   -1    0    0    0    0  0.00000000000E+00  0.00000000000E+00  0.74505805969E-08  0.10566000000E+00  0.10566000000E+00 0. -1.
     999900   -1    0    0    0    0 -0.00000000000E+00 -0.00000000000E+00 -0.74505805969E-08  0.93827000000E+00  0.93827000000E+00 0.  1.
     999902    2    1    2    0    0  0.74974579583E-02 -0.64107224955E-02 -0.20415114087E-01  0.10212565326E+01  0.10210048087E+01 0.  0.
     999903    2    3    3    0    0 -0.53519317301E-01  0.74040282455E-01 -0.93962495401E-01  0.13243448726E+00  0.19069927205E-01 0.  0.
         14    1    1    2    0    0 -0.74974579583E-02  0.64107224955E-02  0.20415114087E-01  0.22673467356E-01  0.00000000000E+00 0. -1.
     999901    1    3    3    0    0  0.61016775260E-01 -0.80451004951E-01  0.73547381313E-01  0.88882204538E+00  0.88000000000E+00 0. -1.
        -11    1    4    4    0    0 -0.25130935444E-01  0.42582978590E-01 -0.38682973970E-01  0.62781427015E-01  0.51100000000E-03 0.  1.
         11    1    4    4    0    0 -0.28388381857E-01  0.31457303865E-01 -0.55279521431E-01  0.69653060246E-01  0.51100000000E-03 0. -1.
</event>
<event>
 8    1  0.9956970E+004  0.1043930E+01  0.7957747E-01            NaN
         13   -1    0    0    0    0  0.00000000000E+00  0.00000000000E+00  0.74505805969E-08  0.10566000000E+00  0.10566000000E+00 0. -1.
     999900   -1    0    0    0    0 -0.00000000000E+00 -0.00000000000E+00 -0.74505805969E-08  0.93827000000E+00  0.93827000000E+00 0.  1.
     999902    2    1    2    0    0  0.44597854636E-02  0.23067144422E-01  0.42752664508E-02  0.10200498672E+01  0.10197703030E+01 0.  0.
     999903    2    3    3    0    0 -0.98196200874E-01 -0.92274494841E-02  0.82367972311E-01  0.13006129256E+00  0.20095205130E-01 0.  0.
         14    1    1    2    0    0 -0.44597854636E-02 -0.23067144422E-01 -0.42752664508E-02  0.23880132776E-01  0.00000000000E+00 0.  1.
     999901    1    3    3    0    0  0.10265598634E+00  0.32294593906E-01 -0.78092705861E-01  0.88998857467E+00  0.88000000000E+00 0.  1.
        -11    1    4    4    0    0 -0.86724489352E-01 -0.83217653340E-02  0.80041083878E-01  0.11830986882E+00  0.51100000000E-03 0.  1.
         11    1    4    4    0    0 -0.11471711522E-01 -0.90568415013E-03  0.23268884336E-02  0.11751423735E-01  0.51100000000E-03 0. -1.
</event>
<event>
 8    1  0.9956970E+004  0.1043930E+01  0.7957747E-01            NaN
         13   -1    0    0    0    0  0.00000000000E+00  0.00000000000E+00  0.74505805969E-08  0.10566000000E+00  0.10566000000E+00 0.  1.
     999900   -1    0    0    0    0 -0.00000000000E+00 -0.00000000000E+00 -0.74505805969E-08  0.93827000000E+00  0.93827000000E+00 0. -1.
     999902    2    1    2    0    0 -0.18677058605E-01  0.75678543545E-02  0.13360658787E-01  0.10197512461E+01  0.10194645613E+01 0.  0.
     999903    2    3    3    0    0  0.39781169813E-01 -0.10257656555E+00  0.65486190015E-01  0.12943319690E+00  0.18974143075E-01 0.  0.
         14    1    1    2    0    0  0.18677058605E-01 -0.75678543545E-02 -0.13360658787E-01  0.24178753915E-01  0.00000000000E+00 0.  1.
     999901    1    3    3    0    0 -0.58458228417E-01  0.11014441990E+00 -0.52125531227E-01  0.89031804919E+00  0.88000000000E+00 0. -1.
        -11    1    4    4    0    0  0.22491031266E-01 -0.70197894773E-01  0.52480607046E-01  0.90487933754E-01  0.51100000000E-03 0. -1.
         11    1    4    4    0    0  0.17290138546E-01 -0.32378670772E-01  0.13005582968E-01  0.38945263143E-01  0.51100000000E-03 0.  1.
</event>
<event>
 8    1  0.9956970E+004  0.1043930E+01  0.7957747E-01            NaN
         13   -1    0    0    0    0  0.00000000000E+00  0.00000000000E+00  0.74505805969E-08  0.10566000000E+00  0.10566000000E+00 0. -1.
     999900   -1    0    0    0    0 -0.00000000000E+00 -0.00000000000E+00 -0.74505805969E-08  0.93827000000E+00  0.93827000000E+00 0. -1.
     999902    2    1    2    0    0  0.80098946900E-02 -0.51588541920E-03  0.21537723997E-01  0.10209452636E+01  0.10206865010E+01 0.  0.
     999903    2    3    3    0    0 -0.10925860255E+00 -0.83434095532E-02  0.70291149713E-01  0.13179394519E+00  0.20536395655E-01 0.  0.
         14    1    1    2    0    0 -0.80098946900E-02  0.51588541920E-03 -0.21537723997E-01  0.22984736363E-01  0.00000000000E+00 0.  1.
     999901    1    3    3    0    0  0.11726849724E+00  0.78275241340E-02 -0.48753425716E-01  0.88915131845E+00  0.88000000000E+00 0. -1.
        -11    1    4    4    0    0 -0.50663745364E-01 -0.13900259053E-01  0.35738663055E-01  0.63541682808E-01  0.51100000000E-03 0.  1.
         11    1    4    4    0    0 -0.58594857186E-01  0.55568495000E-02  0.34552486657E-01  0.68252262381E-01  0.51100000000E-03 0. -1.
</event>
<event>
 8    1  0.9956970E+004  0.1043930E+01  0.7957747E-01            NaN
         13   -1    0    0    0    0  0.00000000000E+00  0.00000000000E+00  0.74505805969E-08  0.10566000000E+00  0.10566000000E+00 0. -1.
     999900   -1    0    0    0    0 -0.00000000000E+00 -0.00000000000E+00 -0.74505805969E-08  0.93827000000E+00  0.93827000000E+00 0. -1.
     999902    2    1    2    0    0 -0.14516290482E-01  0.27173315571E-02 -0.19821651406E-01  0.10192114959E+01  0.10189117081E+01 0.  0.
     999903    2    3    3    0    0  0.59801215638E-01  0.72009639183E-02 -0.11460694415E+00  0.13099561765E+00  0.19926387575E-01 0.  0.
         14    1    1    2    0    0  0.14516290482E-01 -0.27173315571E-02  0.19821651406E-01  0.24718504093E-01  0.00000000000E+00 0. -1.
     999901    1    3    3    0    0 -0.74317506120E-01 -0.44836323612E-02  0.94785292745E-01  0.88821587826E+00  0.88000000000E+00 0.  1.
        -11    1    4    4    0    0  0.24714149186E-01  0.17313685305E-02 -0.68174613348E-01  0.72538443829E-01  0.51100000000E-03 0.  1.
         11    1    4    4    0    0  0.35087066452E-01  0.54695953878E-02 -0.46432330802E-01  0.58457173817E-01  0.51100000000E-03 0. -1.
</event>
<event>
 8    1  0.9956970E+004  0.1043930E+01  0.7957747E-01            NaN
         13   -1    0    0    0    0  0.00000000000E+00  0.00000000000E+00  0.74505805969E-08  0.10566000000E+00  0.10566000000E+00 0.  1.
     999900   -1    0    0    0    0 -0.00000000000E+00 -0.00000000000E+00 -0.74505805969E-08  0.93827000000E+00  0.93827000000E+00 0. -1.
     999902    2    1    2    0    0  0.46840099744E-02  0.15367934538E-01  0.17682495260E-01  0.10200389138E+01  0.10197590900E+01 0.  0.
     999903    2    3    3    0    0 -0.99044518946E-01 -0.52669697347E-01 -0.58515014600E-01  0.12807771084E+00  0.19899229363E-01 0.  0.
         14    1    1    2    0    0 -0.46840099744E-02 -0.15367934538E-01 -0.17682495260E-01  0.23891086204E-01  0.00000000000E+00 0. -1.
     999901    1    3    3    0    0  0.10372852892E+00  0.68037631885E-01  0.76197509860E-01  0.89196120295E+00  0.88000000000E+00 0.  1.
        -11    1    4    4    0    0 -0.66346278883E-01 -0.33695368228E-01 -0.48975440508E-01  0.89084574734E-01  0.51100000000E-03 0. -1.
         11    1    4    4    0    0 -0.32698240063E-01 -0.18974329119E-01 -0.95395740923E-02  0.38993136109E-01  0.51100000000E-03 0.  1.
</event>
<event>
 8    1  0.9956970E+004  0.1043930E+01  0.7957747E-01            NaN
         13   -1    0    0    0    0  0.00000000000E+00  0.00000000000E+00  0.74505805969E-08  0.10566000000E+00  0.10566000000E+00 0.  1.
     999900   -1    0    0    0    0 -0.00000000000E+00 -0.00000000000E+00 -0.74505805969E-08  0.93827000000E+00  0.93827000000E+00 0.  1.
     999902    2    1    2    0    0 -0.16774004960E-01 -0.16594027380E-01  0.39412615361E-02  0.10200079907E+01  0.10197274335E+01 0.  0.
     999903    2    3    3    0    0  0.63740536627E-01 -0.94725766377E-01 -0.60298370336E-01  0.13056215740E+00  0.19358632567E-01 0.  0.
         14    1    1    2    0    0  0.16774004960E-01  0.16594027380E-01 -0.39412615361E-02  0.23922009313E-01  0.00000000000E+00 0. -1.
     999901    1    3    3    0    0 -0.80514541587E-01  0.78131738997E-01  0.64239631872E-01  0.88944583329E+00  0.88000000000E+00 0.  1.
        -11    1    4    4    0    0  0.32848245588E-01 -0.43661024078E-01 -0.18460331678E-01  0.57674407049E-01  0.51100000000E-03 0. -1.
         11    1    4    4    0    0  0.30892291039E-01 -0.51064742299E-01 -0.41838038658E-01  0.72887750353E-01  0.51100000000E-03 0.  1.
</event>
<event>
 8    1  0.9956970E+004  0.1043930E+01  0.7957747E-01            NaN
         13   -1    0    0    0    0  0.00000000000E+00  0.00000000000E+00  0.74505805969E-08  0.10566000000E+00  0.10566000000E+00 0.  1.
     999900   -1    0    0    0    0 -0.00000000000E+00 -0.00000000000E+00 -0.74505805969E-08  0.93827000000E+00  0.93827000000E+00 0.  1.
     999902    2    1    2    0    0  0.64253540674E-02  0.18609675163E-01  0.65693735408E-03  0.10242313515E+01  0.10240419057E+01 0.  0.
     999903    2    3    3    0    0 -0.11287106651E+00  0.17231466112E-02 -0.68117951620E-01  0.13336279998E+00  0.20068238487E-01 0.  0.
         14    1    1    2    0    0 -0.64253540674E-02 -0.18609675163E-01 -0.65693735408E-03  0.19698648463E-01  0.00000000000E+00 0.  1.
     999901    1    3    3    0    0  0.11929642057E+00  0.16886528552E-01  0.68774888974E-01  0.89086855156E+00  0.88000000000E+00 0. -1.
        -11    1    4    4    0    0 -0.44459534589E-01  0.67063100394E-02 -0.18113940045E-01  0.48476806363E-01  0.51100000000E-03 0.  1.
         11    1    4    4    0    0 -0.68411531917E-01 -0.49831634282E-02 -0.50004011575E-01  0.84885993612E-01  0.51100000000E-03 0. -1.
</event>
<event>
 8    1  0.9956970E+004  0.1043930E+01  0.7957747E-01            NaN
         13   -1    0    0    0    0  0.00000000000E+00  0.00000000000E+00  0.74505805969E-08  0.10566000000E+00  0.10566000000E+00 0. -1.
     999900   -1    0    0    0    0 -0.00000000000E+00 -0.00000000000E+00 -0.74505805969E-08  0.93827000000E+00  0.93827000000E+00 0. -1.
     999902    2    1    2    0    0  0.10281576097E-01 -0.22942963736E-01 -0.57814449131E-02  0.10181324130E+01  0.10178055290E+01 0.  0.
     999903    2    3    3    0    0  0.12419474621E+00  0.18815530478E-01  0.23102100625E-01  0.12933871284E+00  0.20406773683E-01 0.  0.
         14    1    1    2    0    0 -0.10281576097E-01  0.22942963736E-01  0.57814449131E-02  0.25797587044E-01  0.00000000000E+00 0. -1.
     999901    1    3    3    0    0 -0.11391317011E+00 -0.41758494214E-01 -0.28883545538E-01  0.88879370012E+00  0.88000000000E+00 0. -1.
        -11    1    4    4    0    0  0.23567762331E-01  0.10478793590E-01  0.18677780914E-03  0.25798072474E-01  0.51100000000E-03 0.  1.
         11    1    4    4    0    0  0.10062698388E+00  0.83367368879E-02  0.22915322816E-01  0.10354064037E+00  0.51100000000E-03 0. -1.
</event>
<event>
 8    1  0.9956970E+004  0.1043930E+01  0.7957747E-01            NaN
         13   -1    0    0    0    0  0.00000000000E+00  0.00000000000E+00  0.74505805969E-08  0.10566000000E+00  0.10566000000E+00 0. -1.
     999900   -1    0    0    0    0 -0.00000000000E+00 -0.00000000000E+00 -0.74505805969E-08  0.93827000000E+00  0.93827000000E+00 0. -1.
     999902    2    1    2    0    0 -0.19045663892E-01  0.44082600312E-02  0.12375201607E-01  0.10207931099E+01  0.10205308704E+01 0.  0.
     999903    2    3    3    0    0  0.30585121747E-01  0.11150820392E+00 -0.56781414997E-01  0.13022236565E+00  0.19084187518E-01 0.  0.
         14    1    1    2    0    0  0.19045663892E-01 -0.44082600312E-02 -0.12375201607E-01  0.23136890119E-01  0.00000000000E+00 0.  1.
     999901    1    3    3    0    0 -0.49630785639E-01 -0.10709994388E+00  0.69156616604E-01  0.89057074423E+00  0.88000000000E+00 0.  1.
        -11    1    4    4    0    0  0.22308819592E-01  0.45650775389E-01 -0.24865683949E-01  0.56570664523E-01  0.51100000000E-03 0.  1.
         11    1    4    4    0    0  0.82763021551E-02  0.65857428526E-01 -0.31915731048E-01  0.73651701125E-01  0.51100000000E-03 0. -1.
</event>
<event>
 8    1  0.9956970E+004  0.1043930E+01  0.7957747E-01            NaN
         13   -1    0    0    0    0  0.00000000000E+00  0.00000000000E+00  0.74505805969E-08  0.10566000000E+00  0.10566000000E+00 0.  1.
     999900   -1    0    0    0    0 -0.00000000000E+00 -0.00000000000E+00 -0.74505805969E-08  0.93827000000E+00  0.93827000000E+00 0. -1.
     999902    2    1    2    0    0  0.42644055913E-02  0.12969693528E-01 -0.19770608139E-01  0.10199034511E+01  0.10196204071E+01 0.  0.
     999903    2    3    3    0    0  0.11008648495E+00  0.66724406069E-01  0.15121348652E-01  0.13124978953E+00  0.20656028941E-01 0.  0.
         14    1    1    2    0    0 -0.42644055913E-02 -0.12969693528E-01  0.19770608139E-01  0.24026548887E-01  0.00000000000E+00 0.  1.
     999901    1    3    3    0    0 -0.10582207936E+00 -0.53754712541E-01 -0.34891956790E-01  0.88865366159E+00  0.88000000000E+00 0. -1.
        -11    1    4    4    0    0  0.17124048165E-01  0.13560072958E-01  0.10018341663E-01  0.24036158072E-01  0.51100000000E-03 0.  1.
         11    1    4    4    0    0  0.92962436787E-01  0.53164333111E-01  0.51030069885E-02  0.10721363146E+00  0.51100000000E-03 0. -1.
</event>
<event>
 8    1  0.9956970E+004  0.1043930E+01  0.7957747E-01            NaN
         13   -1    0    0    0    0  0.00000000000E+00  0.00000000000E+00  0.74505805969E-08  0.10566000000E+00  0.10566000000E+00 0.  1.
     999900   -1    0    0    0    0 -0.00000000000E+00 -0.00000000000E+00 -0.74505805969E-08  0.93827000000E+00  0.93827000000E+00 0.  1.
     999902    2    1    2    0    0 -0.12352364546E-01 -0.20140402106E-01 -0.41916640181E-05  0.10203033895E+01  0.10200297985E+01 0.  0.
     999903    2    3    3    0    0 -0.33166285679E-01 -0.13388991942E-01  0.12462700411E+00  0.13125235843E+00  0.20396662230E-01 0.  0.
         14    1    1    2    0    0  0.12352364546E-01  0.20140402106E-01  0.41916640181E-05  0.23626610515E-01  0.00000000000E+00 0.  1.
     999901    1    3    3    0    0  0.20813921133E-01 -0.67514101639E-02 -0.12463119577E+00  0.88905103105E+00  0.88000000000E+00 0.  1.
        -11    1    4    4    0    0 -0.29525510090E-01 -0.52289900162E-02  0.74095197896E-01  0.79934082561E-01  0.51100000000E-03 0.  1.
         11    1    4    4    0    0 -0.36407755890E-02 -0.81600019262E-02  0.50531806214E-01  0.51318275873E-01  0.51100000000E-03 0. -1.
</event>
<event>
 8    1  0.9956970E+004  0.1043930E+01  0.7957747E-01            NaN
         13   -1    0    0    0    0  0.00000000000E+00  0.00000000000E+00  0.74505805969E-08  0.10566000000E+00  0.10566000000E+00 0.  1.
     999900   -1    0    0    0    0 -0.00000000000E+00 -0.00000000000E+00 -0.74505805969E-08  0.93827000000E+00  0.93827000000E+00 0. -1.
     999902    2    1    2    0    0 -0.25912590820E-02 -0.23702287172E-01 -0.23982970898E-03  0.10200852824E+01  0.10198065565E+01 0.  0.
     999903    2    3    3    0    0  0.58523853419E-01 -0.37824753092E-01 -0.10957190390E+00  0.13110384079E+00  0.18068247808E-01 0.  0.
         14    1    1    2    0    0  0.25912590820E-02  0.23702287172E-01  0.23982970898E-03  0.23844717636E-01  0.00000000000E+00 0. -1.
     999901    1    3    3    0    0 -0.61115112501E-01  0.14122465919E-01  0.10933207419E+00  0.88898144158E+00  0.88000000000E+00 0.  1.
        -11    1    4    4    0    0  0.33789738673E-01 -0.28417028068E-01 -0.80311432127E-01  0.91648574322E-01  0.51100000000E-03 0.  1.
         11    1    4    4    0    0  0.24734114745E-01 -0.94077250240E-02 -0.29260471776E-01  0.39455266466E-01  0.51100000000E-03 0. -1.
</event>
<event>
 8    1  0.9956970E+004  0.1043930E+01  0.7957747E-01            NaN
         13   -1    0    0    0    0  0.00000000000E+00  0.00000000000E+00  0.74505805969E-08  0.10566000000E+00  0.10566000000E+00 0.  1.
     999900   -1    0    0    0    0 -0.00000000000E+00 -0.00000000000E+00 -0.74505805969E-08  0.93827000000E+00  0.93827000000E+00 0. -1.
     999902    2    1    2    0    0  0.10647803432E-01  0.10051449122E-01  0.17897088267E-01  0.10208061354E+01  0.10205441945E+01 0.  0.
     999903    2    3    3    0    0 -0.58273198814E-01  0.54138836653E-01  0.10452825553E+00  0.13277530176E+00  0.19399619038E-01 0.  0.
         14    1    1    2    0    0 -0.10647803432E-01 -0.10051449122E-01 -0.17897088267E-01  0.23123864639E-01  0.00000000000E+00 0. -1.
     999901    1    3    3    0    0  0.68921002246E-01 -0.44087387530E-01 -0.86631167261E-01  0.88803083360E+00  0.88000000000E+00 0.  1.
        -11    1    4    4    0    0 -0.14861618790E-01  0.85850743617E-02  0.12290368390E-01  0.21116000829E-01  0.51100000000E-03 0. -1.
         11    1    4    4    0    0 -0.43411580024E-01  0.45553762291E-01  0.92237887138E-01  0.11165930093E+00  0.51100000000E-03 0.  1.
</event>
<event>
 8    1  0.9956970E+004  0.1043930E+01  0.7957747E-01            NaN
         13   -1    0    0    0    0  0.00000000000E+00  0.00000000000E+00  0.74505805969E-08  0.10566000000E+00  0.10566000000E+00 0.  1.
     999900   -1    0    0    0    0 -0.00000000000E+00 -0.00000000000E+00 -0.74505805969E-08  0.93827000000E+00  0.93827000000E+00 0.  1.
     999902    2    1    2    0    0 -0.14954760942E-01 -0.82085098705E-02 -0.16773713628E-01  0.10200054942E+01  0.10197248777E+01 0.  0.
     999903    2    3    3    0    0 -0.12075594293E+00 -0.46118559396E-01  0.19376920025E-01  0.13212153203E+00  0.19279909808E-01 0.  0.
         14    1    1    2    0    0  0.14954760942E-01  0.82085098705E-02  0.16773713628E-01  0.23924505805E-01  0.00000000000E+00 0.  1.
     999901    1    3    3    0    0  0.10580118198E+00  0.37910049526E-01 -0.36150633653E-01  0.88788396217E+00  0.88000000000E+00 0. -1.
        -11    1    4    4    0    0 -0.68324510471E-01 -0.18095334751E-01  0.16594304309E-01  0.72603801053E-01  0.51100000000E-03 0. -1.
         11    1    4    4    0    0 -0.52431432456E-01 -0.28023224645E-01  0.27826157155E-02  0.59517730973E-01  0.51100000000E-03 0.  1.
</event>
<event>
 8    1  0.9956970E+004  0.1043930E+01  0.7957747E-01            NaN
         13   -1    0    0    0    0  0.00000000000E+00  0.00000000000E+00  0.74505805969E-08  0.10566000000E+00  0.10566000000E+00 0.  1.
     999900   -1    0    0    0    0 -0.00000000000E+00 -0.00000000000E+00 -0.74505805969E-08  0.93827000000E+00  0.93827000000E+00 0.  1.
     999902    2    1    2    0    0  0.14038943839E-01  0.18632075483E-01  0.72336516531E-03  0.10205897036E+01  0.10203227791E+01 0.  0.
     999903    2    3    3    0    0  0.11481797484E+00 -0.56494840093E-01  0.21906584672E-01  0.13140513592E+00  0.20311991282E-01 0.  0.
         14    1    1    2    0    0 -0.14038943839E-01 -0.18632075483E-01 -0.72336516531E-03  0.23340296444E-01  0.00000000000E+00 0. -1.
     999901    1    3    3    0    0 -0.10077903100E+00  0.75126915576E-01 -0.21183219507E-01  0.88918456764E+00  0.88000000000E+00 0.  1.
        -11    1    4    4    0    0  0.49929109089E-01 -0.35645714138E-01  0.84068810996E-02  0.61923094574E-01  0.51100000000E-03 0. -1.
         11    1    4    4    0    0  0.64888865755E-01 -0.20849125955E-01  0.13499703572E-01  0.69482041345E-01  0.51100000000E-03 0.  1.
</event>
<event>
 8    1  0.9956970E+004  0.1043930E+01  0.7957747E-01            NaN
         13   -1    0    0    0    0  0.00000000000E+00  0.00000000000E+00  0.74505805969E-08  0.10566000000E+00  0.10566000000E+00 0. -1.
     999900   -1    0    0    0    0 -0.00000000000E+00 -0.00000000000E+00 -0.74505805969E-08  0.93827000000E+00  0.93827000000E+00 0. -1.
     999902    2    1    2    0    0  0.19578869904E-02  0.21673078133E-01  0.38344374371E-03  0.10221652885E+01  0.10219335469E+01 0.  0.
     999903    2    3    3    0    0  0.12580890862E+00 -0.16786098484E-01 -0.30742796383E-01  0.13211639847E+00  0.19999215640E-01 0.  0.
         14    1    1    2    0    0 -0.19578869904E-02 -0.21673078133E-01 -0.38344374371E-03  0.21764711492E-01  0.00000000000E+00 0.  1.
     999901    1    3    3    0    0 -0.12385102163E+00  0.38459176617E-01  0.31126240126E-01  0.89004889003E+00  0.88000000000E+00 0.  1.
        -11    1    4    4    0    0  0.38390489010E-01 -0.14488410509E-01 -0.93947702263E-02  0.42098295857E-01  0.51100000000E-03 0.  1.
         11    1    4    4    0    0  0.87418419610E-01 -0.22976879750E-02 -0.21348026156E-01  0.90018102617E-01  0.51100000000E-03 0. -1.
</event>
<event>
 8    1  0.9956970E+004  0.1043930E+01  0.7957747E-01            NaN
         13   -1    0    0    0    0  0.00000000000E+00  0.00000000000E+00  0.74505805969E-08  0.10566000000E+00  0.10566000000E+00 0.  1.
     999900   -1    0    0    0    0 -0.00000000000E+00 -0.00000000000E+00 -0.74505805969E-08  0.93827000000E+00  0.93827000000E+00 0. -1.
     999902    2    1    2    0    0  0.17718756925E-01  0.11282503708E-01 -0.10992427201E-01  0.10202217168E+01  0.10199462087E+01 0.  0.
     999903    2    3    3    0    0 -0.89612339093E-01  0.75361904825E-01 -0.53923987294E-01  0.13035135956E+00  0.19336300528E-01 0.  0.
         14    1    1    2    0    0 -0.17718756925E-01 -0.11282503708E-01  0.10992427201E-01  0.23708283208E-01  0.00000000000E+00 0. -1.
     999901    1    3    3    0    0  0.10733109602E+00 -0.64079401117E-01  0.42931560093E-01  0.88987035723E+00  0.88000000000E+00 0.  1.
        -11    1    4    4    0    0 -0.53662091320E-01  0.34503077862E-01 -0.23430683367E-01  0.67965730121E-01  0.51100000000E-03 0. -1.
         11    1    4    4    0    0 -0.35950247773E-01  0.40858826963E-01 -0.30493303927E-01  0.62385629444E-01  0.51100000000E-03 0.  1.
</event>
<event>
 8    1  0.9956970E+004  0.1043930E+01  0.7957747E-01            NaN
         13   -1    0    0    0    0  0.00000000000E+00  0.00000000000E+00  0.74505805969E-08  0.10566000000E+00  0.10566000000E+00 0. -1.
     999900   -1    0    0    0    0 -0.00000000000E+00 -0.00000000000E+00 -0.74505805969E-08  0.93827000000E+00  0.93827000000E+00 0. -1.
     999902    2    1    2    0    0 -0.20070646669E-01  0.87434766585E-02  0.90901779328E-02  0.10202253469E+01  0.10199499242E+01 0.  0.
     999903    2    3    3    0    0  0.52024586154E-01 -0.17185303710E-01 -0.11471084627E+00  0.12826306195E+00  0.17057039075E-01 0.  0.
         14    1    1    2    0    0  0.20070646669E-01 -0.87434766585E-02 -0.90901779328E-02  0.23704653059E-01  0.00000000000E+00 0. -1.
     999901    1    3    3    0    0 -0.72095232823E-01  0.25928780368E-01  0.12380102420E+00  0.89196228499E+00  0.88000000000E+00 0.  1.
        -11    1    4    4    0    0  0.34749097457E-01 -0.11247423848E-01 -0.56749395508E-01  0.67488957087E-01  0.51100000000E-03 0.  1.
         11    1    4    4    0    0  0.17275488697E-01 -0.59378798624E-02 -0.57961450760E-01  0.60774104866E-01  0.51100000000E-03 0. -1.
</event>
<event>
 8    1  0.9956970E+004  0.1043930E+01  0.7957747E-01            NaN
         13   -1    0    0    0    0  0.00000000000E+00  0.00000000000E+00  0.74505805969E-08  0.10566000000E+00  0.10566000000E+00 0.  1.
     999900   -1    0    0    0    0 -0.00000000000E+00 -0.00000000000E+00 -0.74505805969E-08  0.93827000000E+00  0.93827000000E+00 0. -1.
     999902    2    1    2    0    0  0.20840691505E-01  0.93134557493E-02 -0.64481807279E-02  0.10202096730E+01  0.10199338816E+01 0.  0.
     999903    2    3    3    0    0 -0.35648752227E-01  0.11893542565E+00  0.35293867532E-01  0.13063087817E+00  0.20057423490E-01 0.  0.
         14    1    1    2    0    0 -0.20840691505E-01 -0.93134557493E-02  0.64481807279E-02  0.23720327045E-01  0.00000000000E+00 0.  1.
     999901    1    3    3    0    0  0.56489443732E-01 -0.10962196990E+00 -0.41742048260E-01  0.88957879478E+00  0.88000000000E+00 0. -1.
        -11    1    4    4    0    0 -0.31349424985E-01  0.71895379704E-01  0.24532725382E-01  0.82181797287E-01  0.51100000000E-03 0. -1.
         11    1    4    4    0    0 -0.42993272414E-02  0.47040045943E-01  0.10761142150E-01  0.48449080883E-01  0.51100000000E-03 0.  1.
</event>
<event>
 8    1  0.9956970E+004  0.1043930E+01  0.7957747E-01            NaN
         13   -1    0    0    0    0  0.00000000000E+00  0.00000000000E+00  0.74505805969E-08  0.10566000000E+00  0.10566000000E+00 0. -1.
     999900   -1    0    0    0    0 -0.00000000000E+00 -0.00000000000E+00 -0.74505805969E-08  0.93827000000E+00  0.93827000000E+00 0. -1.
     999902    2    1    2    0    0 -0.14080798774E-01 -0.32097091073E-02 -0.23953327278E-01  0.10159597834E+01  0.10155746888E+01 0.  0.
     999903    2    3    3    0    0  0.86455826863E-01  0.73070648103E-01  0.47049437361E-01  0.12412588715E+00  0.19484781025E-01 0.  0.
         14    1    1    2    0    0  0.14080798774E-01  0.32097091073E-02  0.23953327278E-01  0.27970216559E-01  0.00000000000E+00 0. -1.
     999901    1    3    3    0    0 -0.10053662564E+00 -0.76280357211E-01 -0.71002764639E-01  0.89183389629E+00  0.88000000000E+00 0.  1.
        -11    1    4    4    0    0  0.67654787119E-01  0.47710057983E-01  0.39159060845E-01  0.91581182675E-01  0.51100000000E-03 0.  1.
         11    1    4    4    0    0  0.18801039744E-01  0.25360590120E-01  0.78903765163E-02  0.32544704474E-01  0.51100000000E-03 0. -1.
</event>
<event>
 8    1  0.9956970E+004  0.1043930E+01  0.7957747E-01            NaN
         13   -1    0    0    0    0  0.00000000000E+00  0.00000000000E+00  0.74505805969E-08  0.10566000000E+00  0.10566000000E+00 0.  1.
     999900   -1    0    0    0    0 -0.00000000000E+00 -0.00000000000E+00 -0.74505805969E-08  0.93827000000E+00  0.93827000000E+00 0. -1.
     999902    2    1    2    0    0  0.21221671696E-01 -0.80584678973E-02  0.63471676510E-02  0.10203591538E+01  0.10200868678E+01 0.  0.
     999903    2    3    3    0    0  0.24804698562E-01  0.59744053387E-01 -0.11123488150E+00  0.12994601469E+00  0.18114714670E-01 0.  0.
         14    1    1    2    0    0 -0.21221671696E-01  0.80584678973E-02 -0.63471676510E-02  0.23570846222E-01  0.00000000000E+00 0. -1.
     999901    1    3    3    0    0 -0.35830268659E-02 -0.67802521284E-01  0.11758204915E+00  0.89041313909E+00  0.88000000000E+00 0. -1.
        -11    1    4    4    0    0  0.12728161906E-02  0.24483001724E-01 -0.46387612933E-01  0.52470078989E-01  0.51100000000E-03 0. -1.
         11    1    4    4    0    0  0.23531882371E-01  0.35261051662E-01 -0.64847268562E-01  0.77475935704E-01  0.51100000000E-03 0.  1.
</event>
<event>
 7    1  0.9956970E+004  0.1043930E+01  0.7957747E-01            NaN
         13   -1    0    0    0    0  0.00000000000E+00  0.00000000000E+00  0.74505805969E-08  0.10566000000E+00  0.10566000000E+00 0. -1.
     999900   -1    0    0    0    0 -0.00000000000E+00 -0.00000000000E+00 -0.74505805969E-08  0.93827000000E+00  0.93827000000E+00 0. -1.
     999903    2    1    2    0    0 -0.78925275331E-01  0.16488898092E-01 -0.57190140206E-01  0.99893064245E-01  0.14381561149E-01 0.  0.
         14    1    1    2    0    0  0.20079485150E-01  0.18809115219E-01 -0.47790671258E-01  0.55144508326E-01  0.00000000000E+00 0.  1.
     999901    1    1    2    0    0  0.58845790182E-01 -0.35298013312E-01  0.10498081146E+00  0.88889242743E+00  0.88000000000E+00 0.  1.
        -11    1    3    3    0    0 -0.35849949597E-01  0.65091384273E-02 -0.34549505964E-01  0.50214711515E-01  0.51100000000E-03 0.  1.
         11    1    3    3    0    0 -0.43075325734E-01  0.99797596649E-02 -0.22640634241E-01  0.49678352730E-01  0.51100000000E-03 0. -1.
</event>
<event>
 8    1  0.9956970E+004  0.1043930E+01  0.7957747E-01            NaN
         13   -1    0    0    0    0  0.00000000000E+00  0.00000000000E+00  0.74505805969E-08  0.10566000000E+00  0.10566000000E+00 0. -1.
     999900   -1    0    0    0    0 -0.00000000000E+00 -0.00000000000E+00 -0.74505805969E-08  0.93827000000E+00  0.93827000000E+00 0. -1.
     999902    2    1    2    0    0  0.23569879639E-01 -0.47549019582E-03 -0.22592033366E-02  0.10202473203E+01  0.10199724140E+01 0.  0.
     999903    2    3    3    0    0  0.36740246562E-01  0.25171456432E-01  0.12173531546E+00  0.13108711815E+00  0.19516597485E-01 0.  0.
         14    1    1    2    0    0 -0.23569879639E-01  0.47549019582E-03  0.22592033366E-02  0.23682679680E-01  0.00000000000E+00 0. -1.
     999901    1    3    3    0    0 -0.13170366923E-01 -0.25646946628E-01 -0.12399451880E+00  0.88916020217E+00  0.88000000000E+00 0. -1.
        -11    1    4    4    0    0  0.12059468741E-01  0.16288552479E-01  0.34750269663E-01  0.40231705045E-01  0.51100000000E-03 0.  1.
         11    1    4    4    0    0  0.24680777821E-01  0.88829039531E-02  0.86985045798E-01  0.90855413102E-01  0.51100000000E-03 0. -1.
</event>
<event>
 8    1  0.9956970E+004  0.1043930E+01  0.7957747E-01            NaN
         13   -1    0    0    0    0  0.00000000000E+00  0.00000000000E+00  0.74505805969E-08  0.10566000000E+00  0.10566000000E+00 0.  1.
     999900   -1    0    0    0    0 -0.00000000000E+00 -0.00000000000E+00 -0.74505805969E-08  0.93827000000E+00  0.93827000000E+00 0. -1.
     999902    2    1    2    0    0  0.20528652750E-01  0.58034052989E-02  0.80373017186E-02  0.10211329977E+01  0.10208784921E+01 0.  0.
     999903    2    3    3    0    0 -0.85865606219E-01 -0.15733726170E-01  0.94468324751E-01  0.13026044330E+00  0.20568573994E-01 0.  0.
         14    1    1    2    0    0 -0.20528652750E-01 -0.58034052989E-02 -0.80373017186E-02  0.22797002341E-01  0.00000000000E+00 0. -1.
     999901    1    3    3    0    0  0.10639425897E+00  0.21537131469E-01 -0.86431023033E-01  0.89087255436E+00  0.88000000000E+00 0. -1.
        -11    1    4    4    0    0 -0.15095427222E-01 -0.37903806078E-02  0.29927966829E-01  0.33736971229E-01  0.51100000000E-03 0.  1.
         11    1    4    4    0    0 -0.70770178996E-01 -0.11943345563E-01  0.64540357923E-01  0.96523472068E-01  0.51100000000E-03 0. -1.
</event>
<event>
 8    1  0.9956970E+004  0.1043930E+01  0.7957747E-01            NaN
         13   -1    0    0    0    0  0.00000000000E+00  0.00000000000E+00  0.74505805969E-08  0.10566000000E+00  0.10566000000E+00 0.  1.
     999900   -1    0    0    0    0 -0.00000000000E+00 -0.00000000000E+00 -0.74505805969E-08  0.93827000000E+00  0.93827000000E+00 0. -1.
     999902    2    1    2    0    0  0.19493933381E-01  0.73374690884E-02 -0.10438849115E-01  0.10206314708E+01  0.10203655118E+01 0.  0.
     999903    2    3    3    0    0 -0.10255307111E+00 -0.73821269441E-01  0.98099246606E-02  0.12827939625E+00  0.19815566190E-01 0.  0.
         14    1    1    2    0    0 -0.19493933381E-01 -0.73374690884E-02  0.10438849115E-01  0.23298529184E-01  0.00000000000E+00 0.  1.
     999901    1    3    3    0    0  0.12204700449E+00  0.81158738529E-01 -0.20248773776E-01  0.89235207457E+00  0.88000000000E+00 0.  1.
        -11    1    4    4    0    0 -0.36548015206E-01 -0.19575058758E-01  0.10759540166E-01  0.42836540086E-01  0.51100000000E-03 0.  1.
         11    1    4    4    0    0 -0.66005055907E-01 -0.54246210683E-01 -0.94961550531E-03  0.85442856163E-01  0.51100000000E-03 0. -1.
</event>
<event>
 8    1  0.9956970E+004  0.1043930E+01  0.7957747E-01            NaN
         13   -1    0    0    0    0  0.00000000000E+00  0.00000000000E+00  0.74505805969E-08  0.10566000000E+00  0.10566000000E+00 0. -1.
     999900   -1    0    0    0    0 -0.00000000000E+00 -0.00000000000E+00 -0.74505805969E-08  0.93827000000E+00  0.93827000000E+00 0. -1.
     999902    2    1    2    0    0  0.74621981906E-02  0.18848688296E-01 -0.61511457594E-02  0.10227452402E+01  0.10225258101E+01 0.  0.
     999903    2    3    3    0    0 -0.76755249372E-01  0.54918458327E-01 -0.93490694808E-01  0.13368854709E+00  0.14990404835E-01 0.  0.
         14    1    1    2    0    0 -0.74621981906E-02 -0.18848688296E-01  0.61511457594E-02  0.21184759769E-01  0.00000000000E+00 0.  1.
     999901    1    3    3    0    0  0.84217447563E-01 -0.36069770031E-01  0.87339549048E-01  0.88905669314E+00  0.88000000000E+00 0.  1.
        -11    1    4    4    0    0 -0.59208197392E-01  0.49536429563E-01 -0.75851943553E-01  0.10822775501E+00  0.51100000000E-03 0.  1.
         11    1    4    4    0    0 -0.17547051980E-01  0.53820287646E-02 -0.17638751255E-01  0.25460792086E-01  0.51100000000E-03 0. -1.
</event>
<event>
 8    1  0.9956970E+004  0.1043930E+01  0.7957747E-01            NaN
         13   -1    0    0    0    0  0.00000000000E+00  0.00000000000E+00  0.74505805969E-08  0.10566000000E+00  0.10566000000E+00 0.  1.
     999900   -1    0    0    0    0 -0.00000000000E+00 -0.00000000000E+00 -0.74505805969E-08  0.93827000000E+00  0.93827000000E+00 0. -1.
     999902    2    1    2    0    0 -0.10149799836E-02 -0.11117004075E-01  0.20780498310E-01  0.10203408696E+01  0.10200681561E+01 0.  0.
     999903    2    3    3    0    0  0.72051220992E-01 -0.34153842911E-01  0.10458048178E+00  0.13304621565E+00  0.20158246356E-01 0.  0.
         14    1    1    2    0    0  0.10149799836E-02  0.11117004075E-01 -0.20780498310E-01  0.23589130420E-01  0.00000000000E+00 0. -1.
     999901    1    3    3    0    0 -0.73066200976E-01  0.23036838837E-01 -0.83799983472E-01  0.88729465393E+00  0.88000000000E+00 0. -1.
        -11    1    4    4    0    0  0.63450280367E-02 -0.10733609133E-01  0.16560113317E-01  0.20735675052E-01  0.51100000000E-03 0. -1.
         11    1    4    4    0    0  0.65706192955E-01 -0.23420233778E-01  0.88020368465E-01  0.11231054059E+00  0.51100000000E-03 0.  1.
</event>
<event>
 8    1  0.9956970E+004  0.1043930E+01  0.7957747E-01            NaN
         13   -1    0    0    0    0  0.00000000000E+00  0.00000000000E+00  0.74505805969E-08  0.10566000000E+00  0.10566000000E+00 0. -1.
     999900   -1    0    0    0    0 -0.00000000000E+00 -0.00000000000E+00 -0.74505805969E-08  0.93827000000E+00  0.93827000000E+00 0. -1.
     999902    2    1    2    0    0  0.24065943349E-02  0.19337710106E-01 -0.13707474354E-01  0.10201049380E+01  0.10198266769E+01 0.  0.
     999903    2    3    3    0    0 -0.18510201793E-01  0.82222204982E-01  0.97749184567E-01  0.13060251588E+00  0.19974871909E-01 0.  0.
         14    1    1    2    0    0 -0.24065943349E-02 -0.19337710106E-01  0.13707474354E-01  0.23825062049E-01  0.00000000000E+00 0.  1.
     999901    1    3    3    0    0  0.20916796128E-01 -0.62884494875E-01 -0.11145665892E+00  0.88950242207E+00  0.88000000000E+00 0. -1.
        -11    1    4    4    0    0 -0.22222782967E-01  0.66499796620E-01  0.74711043208E-01  0.10246011971E+00  0.51100000000E-03 0. -1.
         11    1    4    4    0    0  0.37125811741E-02  0.15722408361E-01  0.23038141359E-01  0.28142396166E-01  0.51100000000E-03 0.  1.
</event>
<event>
 8    1  0.9956970E+004  0.1043930E+01  0.7957747E-01            NaN
         13   -1    0    0    0    0  0.00000000000E+00  0.00000000000E+00  0.74505805969E-08  0.10566000000E+00  0.10566000000E+00 0. -1.
     999900   -1    0    0    0    0 -0.00000000000E+00 -0.00000000000E+00 -0.74505805969E-08  0.93827000000E+00  0.93827000000E+00 0. -1.
     999902    2    1    2    0    0 -0.22792911162E-01  0.39979390597E-03  0.34699212603E-02  0.10208710107E+01  0.10206105543E+01 0.  0.
     999903    2    3    3    0    0  0.11988534141E+00 -0.33827871264E-01 -0.23759966009E-01  0.12830724066E+00  0.19529261636E-01 0.  0.
         14    1    1    2    0    0  0.22792911162E-01 -0.39979390597E-03 -0.34699212603E-02  0.23058989309E-01  0.00000000000E+00 0.  1.
     999901    1    3    3    0    0 -0.14267825257E+00  0.34227665170E-01  0.27229887270E-01  0.89256377004E+00  0.88000000000E+00 0.  1.
        -11    1    4    4    0    0  0.51476239423E-01 -0.50316393272E-02 -0.12730131042E-01  0.53267607200E-01  0.51100000000E-03 0.  1.
         11    1    4    4    0    0  0.68409101989E-01 -0.28796231937E-01 -0.11029834968E-01  0.75039633455E-01  0.51100000000E-03 0. -1.
</event>
<event>
 8    1  0.9956970E+004  0.1043930E+01  0.7957747E-01            NaN
         13   -1    0    0    0    0  0.00000000000E+00  0.00000000000E+00  0.74505805969E-08  0.10566000000E+00  0.10566000000E+00 0.  1.
     999900   -1    0    0    0    0 -0.00000000000E+00 -0.00000000000E+00 -0.74505805969E-08  0.93827000000E+00  0.93827000000E+00 0.  1.
     999902    2    1    2    0    0 -0.20988568492E-01  0.44026503237E-02  0.19706361838E-02  0.10223942914E+01  0.10221674522E+01 0.  0.
     999903    2    3    3    0    0  0.44973661298E-01  0.74421778727E-01 -0.96622910609E-01  0.13167863445E+00  0.21024855664E-01 0.  0.
         14    1    1    2    0    0  0.20988568492E-01 -0.44026503237E-02 -0.19706361838E-02  0.21535708584E-01  0.00000000000E+00 0. -1.
     999901    1    3    3    0    0 -0.65962229791E-01 -0.70019128404E-01  0.98593546793E-01  0.89071565697E+00  0.88000000000E+00 0. -1.
        -11    1    4    4    0    0  0.32070067504E-01  0.58281469103E-01 -0.85090302471E-01  0.10800851617E+00  0.51100000000E-03 0.  1.
         11    1    4    4    0    0  0.12903593795E-01  0.16140309624E-01 -0.11532608138E-01  0.23670118273E-01  0.51100000000E-03 0. -1.
</event>
<event>
 8    1  0.9956970E+004  0.1043930E+01  0.7957747E-01            NaN
         13   -1    0    0    0    0  0.00000000000E+00  0.00000000000E+00  0.74505805969E-08  0.10566000000E+00  0.10566000000E+00 0.  1.
     999900   -1    0    0    0    0 -0.00000000000E+00 -0.00000000000E+00 -0.74505805969E-08  0.93827000000E+00  0.93827000000E+00 0. -1.
     999902    2    1    2    0    0 -0.16088155451E-01 -0.22218023811E-01 -0.14534746822E-01  0.10128860281E+01  0.10124101825E+01 0.  0.
     999903    2    3    3    0    0 -0.84305031048E-01  0.74966915597E-01 -0.46981678658E-01  0.12431905932E+00  0.22816083972E-01 0.  0.
         14    1    1    2    0    0  0.16088155451E-01  0.22218023811E-01  0.14534746822E-01  0.31043971928E-01  0.00000000000E+00 0. -1.
     999901    1    3    3    0    0  0.68216875597E-01 -0.97184939408E-01  0.32446931835E-01  0.88856696875E+00  0.88000000000E+00 0. -1.
        -11    1    4    4    0    0 -0.11011261090E-01  0.20743020287E-01 -0.53530557881E-02  0.24092262009E-01  0.51100000000E-03 0. -1.
         11    1    4    4    0    0 -0.73293769958E-01  0.54223895309E-01 -0.41628622869E-01  0.10022679732E+00  0.51100000000E-03 0.  1.
</event>
<event>
 8    1  0.9956970E+004  0.1043930E+01  0.7957747E-01            NaN
         13   -1    0    0    0    0  0.00000000000E+00  0.00000000000E+00  0.74505805969E-08  0.10566000000E+00  0.10566000000E+00 0.  1.
     999900   -1    0    0    0    0 -0.00000000000E+00 -0.00000000000E+00 -0.74505805969E-08  0.93827000000E+00  0.93827000000E+00 0.  1.
     999902    2    1    2    0    0  0.26328444497E-03 -0.94215271199E-02  0.21175662088E-01  0.10207514936E+01  0.10204882991E+01 0.  0.
     999903    2    3    3    0    0 -0.91062977213E-01 -0.78874385836E-01  0.52279447170E-01  0.13275845814E+00  0.19443072095E-01 0.  0.
         14    1    1    2    0    0 -0.26328444497E-03  0.94215271199E-02 -0.21175662088E-01  0.23178506355E-01  0.00000000000E+00 0. -1.
     999901    1    3    3    0    0  0.91326261658E-01  0.69452858716E-01 -0.31103785083E-01  0.88799303550E+00  0.88000000000E+00 0.  1.
        -11    1    4    4    0    0 -0.33164198574E-01 -0.34812794051E-01  0.11856573183E-01  0.49524076421E-01  0.51100000000E-03 0.  1.
         11    1    4    4    0    0 -0.57898778639E-01 -0.44061591785E-01  0.40422873987E-01  0.83234381723E-01  0.51100000000E-03 0. -1.
</event>
<event>
 8    1  0.9956970E+004  0.1043930E+01  0.7957747E-01            NaN
         13   -1    0    0    0    0  0.00000000000E+00  0.00000000000E+00  0.74505805969E-08  0.10566000000E+00  0.10566000000E+00 0.  1.
     999900   -1    0    0    0    0 -0.00000000000E+00 -0.00000000000E+00 -0.74505805969E-08  0.93827000000E+00  0.93827000000E+00 0. -1.
     999902    2    1    2    0    0  0.33868685089E-02  0.23356890987E-01  0.29203378682E-02  0.10201488392E+01  0.10198716147E+01 0.  0.
     999903    2    3    3    0    0 -0.35710398176E-02  0.11043861428E+00 -0.70862924391E-01  0.13275061474E+00  0.19792215915E-01 0.  0.
         14    1    1    2    0    0 -0.33868685089E-02 -0.23356890987E-01 -0.29203378682E-02  0.23781160782E-01  0.00000000000E+00 0. -1.
     999901    1    3    3    0    0  0.69579083265E-02 -0.87081723293E-01  0.73783262259E-01  0.88739822448E+00  0.88000000000E+00 0.  1.
        -11    1    4    4    0    0 -0.60062110346E-02  0.23708838119E-01 -0.23395808584E-01  0.33849794035E-01  0.51100000000E-03 0. -1.
         11    1    4    4    0    0  0.24351712170E-02  0.86729776160E-01 -0.47467115807E-01  0.98900820703E-01  0.51100000000E-03 0.  1.
</event>
<event>
 8    1  0.9956970E+004  0.1043930E+01  0.7957747E-01            NaN
         13   -1    0    0    0    0  0.00000000000E+00  0.00000000000E+00  0.74505805969E-08  0.10566000000E+00  0.10566000000E+00 0.  1.
     999900   -1    0    0    0    0 -0.00000000000E+00 -0.00000000000E+00 -0.74505805969E-08  0.93827000000E+00  0.93827000000E+00 0. -1.
     999902    2    1    2    0    0  0.20592015072E-01  0.37571380463E-02  0.18715464243E-01  0.10158512576E+01  0.10154631268E+01 0.  0.
     999903    2    3    3    0    0  0.82365375236E-01  0.45657050126E-01 -0.82083365933E-01  0.12695758861E+00  0.22625849815E-01 0.  0.
         14    1    1    2    0    0 -0.20592015072E-01 -0.37571380463E-02 -0.18715464243E-01  0.28078742366E-01  0.00000000000E+00 0. -1.
     999901    1    3    3    0    0 -0.61773360164E-01 -0.41899912080E-01  0.10079883018E+00  0.88889366902E+00  0.88000000000E+00 0.  1.
        -11    1    4    4    0    0  0.63415355818E-01  0.38394046260E-01 -0.75002945820E-01  0.10545763673E+00  0.51100000000E-03 0. -1.
         11    1    4    4    0    0  0.18950019418E-01  0.72630038657E-02 -0.70804201133E-02  0.21499951886E-01  0.51100000000E-03 0.  1.
</event>
<event>
 7    1  0.9956970E+004  0.1043930E+01  0.7957747E-01            NaN
         13   -1    0    0    0    0  0.00000000000E+00  0.00000000000E+00  0.74505805969E-08  0.10566000000E+00  0.10566000000E+00 0.  1.
     999900   -1    0    0    0    0 -0.00000000000E+00 -0.00000000000E+00 -0.74505805969E-08  0.93827000000E+00  0.93827000000E+00 0. -1.
     999903    2    1    2    0    0  0.92108417862E-01  0.71823532500E-02  0.34528473710E-01  0.10055102568E+00  0.19563906313E-01 0.  0.
         14    1    1    2    0    0 -0.25049986759E-01 -0.69007540455E-02 -0.54742763150E-01  0.60596141464E-01  0.00000000000E+00 0. -1.
     999901    1    1    2    0    0 -0.67058431103E-01 -0.28159920456E-03  0.20214289440E-01  0.88278283285E+00  0.88000000000E+00 0.  1.
        -11    1    3    3    0    0  0.35859925732E-01  0.21814602971E-02  0.23719868876E-01  0.43053296540E-01  0.51100000000E-03 0.  1.
         11    1    3    3    0    0  0.56248492130E-01  0.50008929530E-02  0.10808604834E-01  0.57497729144E-01  0.51100000000E-03 0. -1.
</event>
<event>
 8    1  0.9956970E+004  0.1043930E+01  0.7957747E-01            NaN
         13   -1    0    0    0    0  0.00000000000E+00  0.00000000000E+00  0.74505805969E-08  0.10566000000E+00  0.10566000000E+00 0. -1.
     999900   -1    0    0    0    0 -0.00000000000E+00 -0.00000000000E+00 -0.74505805969E-08  0.93827000000E+00  0.93827000000E+00 0. -1.
     999902    2    1    2    0    0  0.12506702851E-01 -0.20129821840E-01 -0.12200408975E-02  0.10201999380E+01  0.10199239176E+01 0.  0.
     999903    2    3    3    0    0  0.17341591760E-01  0.62778305692E-04  0.12786332100E+00  0.13054065962E+00  0.19776253710E-01 0.  0.
         14    1    1    2    0    0 -0.12506702851E-01  0.20129821840E-01  0.12200408975E-02  0.23730062017E-01  0.00000000000E+00 0.  1.
     999901    1    3    3    0    0 -0.48348889097E-02 -0.20192600146E-01 -0.12908336190E+00  0.88965927836E+00  0.88000000000E+00 0. -1.
        -11    1    4    4    0    0  0.14106665983E-01 -0.80954605620E-02  0.62279478405E-01  0.64370249792E-01  0.51100000000E-03 0.  1.
         11    1    4    4    0    0  0.32349257778E-02  0.81582388677E-02  0.65583842599E-01  0.66170409832E-01  0.51100000000E-03 0. -1.
</event>
<event>
 8    1  0.9956970E+004  0.1043930E+01  0.7957747E-01            NaN
         13   -1    0    0    0    0  0.00000000000E+00  0.00000000000E+00  0.74505805969E-08  0.10566000000E+00  0.10566000000E+00 0.  1.
     999900   -1    0    0    0    0 -0.00000000000E+00 -0.00000000000E+00 -0.74505805969E-08  0.93827000000E+00  0.93827000000E+00 0.  1.
     999902    2    1    2    0    0  0.23419762144E-01 -0.45786163503E-02 -0.27487289212E-02  0.10199090821E+01  0.10196261723E+01 0.  0.
     999903    2    3    3    0    0 -0.68601237614E-01  0.90034609120E-01  0.56585246747E-01  0.12809068830E+00  0.19823562711E-01 0.  0.
         14    1    1    2    0    0 -0.23419762144E-01  0.45786163503E-02  0.27487289212E-02  0.24020917911E-01  0.00000000000E+00 0.  1.
     999901    1    3    3    0    0  0.92020999758E-01 -0.94613225470E-01 -0.59333975668E-01  0.89181839379E+00  0.88000000000E+00 0.  1.
        -11    1    4    4    0    0 -0.30523493957E-01  0.25489319121E-01  0.16028347066E-01  0.42878410690E-01  0.51100000000E-03 0.  1.
         11    1    4    4    0    0 -0.38077743657E-01  0.64545289999E-01  0.40556899680E-01  0.85212277611E-01  0.51100000000E-03 0. -1.
</event>
<event>
 8    1  0.9956970E+004  0.1043930E+01  0.7957747E-01            NaN
         13   -1    0    0    0    0  0.00000000000E+00  0.00000000000E+00  0.74505805969E-08  0.10566000000E+00  0.10566000000E+00 0.  1.
     999900   -1    0    0    0    0 -0.00000000000E+00 -0.00000000000E+00 -0.74505805969E-08  0.93827000000E+00  0.93827000000E+00 0.  1.
     999902    2    1    2    0    0 -0.74309053175E-02  0.21248543390E-01  0.96663916382E-02  0.10194318760E+01  0.10191374744E+01 0.  0.
     999903    2    3    3    0    0 -0.52967647194E-01  0.97737809537E-01  0.70053049355E-01  0.13288196142E+00  0.19797345374E-01 0.  0.
         14    1    1    2    0    0  0.74309053175E-02 -0.21248543390E-01 -0.96663916382E-02  0.24498123955E-01  0.00000000000E+00 0. -1.
     999901    1    3    3    0    0  0.45536741876E-01 -0.76489266147E-01 -0.60386657716E-01  0.88654991463E+00  0.88000000000E+00 0. -1.
        -11    1    4    4    0    0 -0.16282534797E-01  0.30143695348E-01  0.11233168365E-01  0.36058404029E-01  0.51100000000E-03 0.  1.
         11    1    4    4    0    0 -0.36685112397E-01  0.67594114189E-01  0.58819880989E-01  0.96823557388E-01  0.51100000000E-03 0. -1.
</event>
<event>
 8    1  0.9956970E+004  0.1043930E+01  0.7957747E-01            NaN
         13   -1    0    0    0    0  0.00000000000E+00  0.00000000000E+00  0.74505805969E-08  0.10566000000E+00  0.10566000000E+00 0.  1.
     999900   -1    0    0    0    0 -0.00000000000E+00 -0.00000000000E+00 -0.74505805969E-08  0.93827000000E+00  0.93827000000E+00 0.  1.
     999902    2    1    2    0    0  0.92300655468E-02  0.19820883235E-01  0.85575000209E-02  0.10204503848E+01  0.10201802270E+01 0.  0.
     999903    2    3    3    0    0  0.10925394563E+00 -0.57635490441E-01 -0.26840604198E-01  0.13069913184E+00  0.33220033658E-01 0.  0.
         14    1    1    2    0    0 -0.92300655468E-02 -0.19820883235E-01 -0.85575000209E-02  0.23479615176E-01  0.00000000000E+00 0.  1.
     999901    1    3    3    0    0 -0.10002388008E+00  0.77456373676E-01  0.35398104219E-01  0.88975125299E+00  0.88000000000E+00 0.  1.
        -11    1    4    4    0    0  0.55844366708E-01 -0.36402102533E-01 -0.30068825240E-01  0.73130716762E-01  0.51100000000E-03 0. -1.
         11    1    4    4    0    0  0.53409578917E-01 -0.21233387908E-01  0.32282210418E-02  0.57568415075E-01  0.51100000000E-03 0.  1.
</event>
<event>
 8    1  0.9956970E+004  0.1043930E+01  0.7957747E-01            NaN
         13   -1    0    0    0    0  0.00000000000E+00  0.00000000000E+00  0.74505805969E-08  0.10566000000E+00  0.10566000000E+00 0. -1.
     999900   -1    0    0    0    0 -0.00000000000E+00 -0.00000000000E+00 -0.74505805969E-08  0.93827000000E+00  0.93827000000E+00 0. -1.
     999902    2    1    2    0    0 -0.22107062439E-01  0.88816068008E-03 -0.84548579914E-02  0.10202446530E+01  0.10199696840E+01 0.  0.
     999903    2    3    3    0    0 -0.39180873209E-01  0.32464647663E-01 -0.12063836236E+00  0.13239684611E+00  0.19652384373E-01 0.  0.
         14    1    1    2    0    0  0.22107062439E-01 -0.88816068008E-03  0.84548579914E-02  0.23685347005E-01  0.00000000000E+00 0.  1.
     999901    1    3    3    0    0  0.17073810770E-01 -0.31576486983E-01  0.11218350437E+00  0.88784780689E+00  0.88000000000E+00 0.  1.
        -11    1    4    4    0    0 -0.90011215082E-02  0.85086601076E-02 -0.54128092294E-01  0.55529532517E-01  0.51100000000E-03 0. -1.
         11    1    4    4    0    0 -0.30179751701E-01  0.23955987555E-01 -0.66510270071E-01  0.76867313589E-01  0.51100000000E-03 0.  1.
</event>
<event>
 8    1  0.9956970E+004  0.1043930E+01  0.7957747E-01            NaN
         13   -1    0    0    0    0  0.00000000000E+00  0.00000000000E+00  0.74505805969E-08  0.10566000000E+00  0.10566000000E+00 0.  1.
     999900   -1    0    0    0    0 -0.00000000000E+00 -0.00000000000E+00 -0.74505805969E-08  0.93827000000E+00  0.93827000000E+00 0.  1.
     999902    2    1    2    0    0 -0.60940795221E-02 -0.23418658785E-01  0.10572620443E-01  0.10175225827E+01  0.10171798536E+01 0.  0.
     999903    2    3    3    0    0  0.14309047209E-01  0.12272385533E+00  0.15783622465E-02  0.12519146778E+00  0.20112654665E-01 0.  0.
         14    1    1    2    0    0  0.60940795221E-02  0.23418658785E-01 -0.10572620443E-01  0.26407417283E-01  0.00000000000E+00 0. -1.
     999901    1    3    3    0    0 -0.20403126731E-01 -0.14614251411E+00  0.89942581969E-02  0.89233111494E+00  0.88000000000E+00 0. -1.
        -11    1    4    4    0    0  0.10147235549E-02  0.23861860551E-01 -0.74678931593E-02  0.25028955273E-01  0.51100000000E-03 0.  1.
         11    1    4    4    0    0  0.13294323654E-01  0.98861994778E-01  0.90462554058E-02  0.10016251250E+00  0.51100000000E-03 0. -1.
</event>
<event>
 8    1  0.9956970E+004  0.1043930E+01  0.7957747E-01            NaN
         13   -1    0    0    0    0  0.00000000000E+00  0.00000000000E+00  0.74505805969E-08  0.10566000000E+00  0.10566000000E+00 0.  1.
     999900   -1    0    0    0    0 -0.00000000000E+00 -0.00000000000E+00 -0.74505805969E-08  0.93827000000E+00  0.93827000000E+00 0. -1.
     999902    2    1    2    0    0  0.22766088858E-02 -0.19950216868E-02 -0.24140728572E-01  0.10196002274E+01  0.10193099067E+01 0.  0.
     999903    2    3    3    0    0  0.25156204451E-01  0.11831291940E+00 -0.45028911961E-01  0.13087428943E+00  0.21672452608E-01 0.  0.
         14    1    1    2    0    0 -0.22766088858E-02  0.19950216868E-02  0.24140728572E-01  0.24329772616E-01  0.00000000000E+00 0.  1.
     999901    1    3    3    0    0 -0.22879595565E-01 -0.12030794109E+00  0.20888183389E-01  0.88872593795E+00  0.88000000000E+00 0.  1.
        -11    1    4    4    0    0  0.54410092902E-02  0.59910754762E-01 -0.30910287698E-01  0.67635864191E-01  0.51100000000E-03 0. -1.
         11    1    4    4    0    0  0.19715195161E-01  0.58402164641E-01 -0.14118624263E-01  0.63238425242E-01  0.51100000000E-03 0.  1.
</event>
<event>
 8    1  0.9956970E+004  0.1043930E+01  0.7957747E-01            NaN
         13   -1    0    0    0    0  0.00000000000E+00  0.00000000000E+00  0.74505805969E-08  0.10566000000E+00  0.10566000000E+00 0.  1.
     999900   -1    0    0    0    0 -0.00000000000E+00 -0.00000000000E+00 -0.74505805969E-08  0.93827000000E+00  0.93827000000E+00 0.  1.
     999902    2    1    2    0    0 -0.76588142964E-02 -0.11161725199E-01 -0.19552759680E-01  0.10201486637E+01  0.10198714351E+01 0.  0.
     999903    2    3    3    0    0 -0.11295381433E+00  0.61699847726E-01 -0.97407439518E-03  0.13068758337E+00  0.22646417962E-01 0.  0.
         14    1    1    2    0    0  0.76588142964E-02  0.11161725199E-01  0.19552759680E-01  0.23781336316E-01  0.00000000000E+00 0.  1.
     999901    1    3    3    0    0  0.10529500003E+00 -0.72861572925E-01 -0.18578685285E-01  0.88946108031E+00  0.88000000000E+00 0.  1.
        -11    1    4    4    0    0 -0.86912106525E-01  0.49272039744E-01  0.86082138136E-02  0.10027866487E+00  0.51100000000E-03 0. -1.
         11    1    4    4    0    0 -0.26041707803E-01  0.12427807982E-01 -0.95822882088E-02  0.30408918508E-01  0.51100000000E-03 0.  1.
</event>
<event>
 8    1  0.9956970E+004  0.1043930E+01  0.7957747E-01            NaN
         13   -1    0    0    0    0  0.00000000000E+00  0.00000000000E+00  0.74505805969E-08  0.10566000000E+00  0.10566000000E+00 0.  1.
     999900   -1    0    0    0    0 -0.00000000000E+00 -0.00000000000E+00 -0.74505805969E-08  0.93827000000E+00  0.93827000000E+00 0. -1.
     999902    2    1    2    0    0 -0.54069220361E-02  0.22599005588E-01 -0.56383081143E-02  0.10200189068E+01  0.10197386086E+01 0.  0.
     999903    2    3    3    0    0  0.98071913384E-02  0.10586404619E+00 -0.77636503780E-01  0.13303058872E+00  0.19139841639E-01 0.  0.
         14    1    1    2    0    0  0.54069220361E-02 -0.22599005588E-01  0.56383081143E-02  0.23911093197E-01  0.00000000000E+00 0. -1.
     999901    1    3    3    0    0 -0.15214113374E-01 -0.83265040607E-01  0.71998195666E-01  0.88698831808E+00  0.88000000000E+00 0.  1.
        -11    1    4    4    0    0 -0.32954628359E-02  0.45679656891E-01 -0.40265525889E-01  0.60984135848E-01  0.51100000000E-03 0. -1.
         11    1    4    4    0    0  0.13102654174E-01  0.60184389303E-01 -0.37370977891E-01  0.72046452874E-01  0.51100000000E-03 0.  1.
</event>
<event>
 8    1  0.9956970E+004  0.1043930E+01  0.7957747E-01            NaN
         13   -1    0    0    0    0  0.00000000000E+00  0.00000000000E+00  0.74505805969E-08  0.10566000000E+00  0.10566000000E+00 0. -1.
     999900   -1    0    0    0    0 -0.00000000000E+00 -0.00000000000E+00 -0.74505805969E-08  0.93827000000E+00  0.93827000000E+00 0.  1.
     999902    2    1    2    0    0 -0.23582847077E-02 -0.19575371227E-01  0.14535196618E-01  0.10194345187E+01  0.10191401813E+01 0.  0.
     999903    2    3    3    0    0 -0.37415228076E-01 -0.15880191746E-01 -0.12019481617E+00  0.12848288138E+00  0.20223184498E-01 0.  0.
         14    1    1    2    0    0  0.23582847077E-02  0.19575371227E-01 -0.14535196618E-01  0.24495481342E-01  0.00000000000E+00 0.  1.
     999901    1    3    3    0    0  0.35056943368E-01 -0.36951794816E-02  0.13473001279E+00  0.89095163728E+00  0.88000000000E+00 0. -1.
        -11    1    4    4    0    0 -0.49546014113E-02 -0.11634424116E-01 -0.34047103434E-01  0.36323191943E-01  0.51100000000E-03 0.  1.
         11    1    4    4    0    0 -0.32460626664E-01 -0.42457676299E-02 -0.86147712734E-01  0.92159689434E-01  0.51100000000E-03 0. -1.
</event>
<event>
 8    1  0.9956970E+004  0.1043930E+01  0.7957747E-01            NaN
         13   -1    0    0    0    0  0.00000000000E+00  0.00000000000E+00  0.74505805969E-08  0.10566000000E+00  0.10566000000E+00 0. -1.
     999900   -1    0    0    0    0 -0.00000000000E+00 -0.00000000000E+00 -0.74505805969E-08  0.93827000000E+00  0.93827000000E+00 0.  1.
     999902    2    1    2    0    0 -0.22315787595E-01 -0.50302574187E-02 -0.44773703053E-02  0.10206202443E+01  0.10203540260E+01 0.  0.
     999903    2    3    3    0    0  0.88861898768E-01  0.71433544257E-01  0.54966229995E-01  0.12835305757E+00  0.21308041889E-01 0.  0.
         14    1    1    2    0    0  0.22315787595E-01  0.50302574187E-02  0.44773703053E-02  0.23309755695E-01  0.00000000000E+00 0.  1.
     999901    1    3    3    0    0 -0.11117768636E+00 -0.76463801676E-01 -0.59443600301E-01  0.89226718674E+00  0.88000000000E+00 0.  1.
        -11    1    4    4    0    0  0.42603900391E-01  0.23528261516E-01  0.30319730174E-01  0.57342990655E-01  0.51100000000E-03 0. -1.
         11    1    4    4    0    0  0.46257998377E-01  0.47905282742E-01  0.24646499822E-01  0.71010066912E-01  0.51100000000E-03 0.  1.
</event>
<event>
 8    1  0.9956970E+004  0.1043930E+01  0.7957747E-01            NaN
         13   -1    0    0    0    0  0.00000000000E+00  0.00000000000E+00  0.74505805969E-08  0.10566000000E+00  0.10566000000E+00 0.  1.
     999900   -1    0    0    0    0 -0.00000000000E+00 -0.00000000000E+00 -0.74505805969E-08  0.93827000000E+00  0.93827000000E+00 0.  1.
     999902    2    1    2    0    0 -0.13345836822E-01  0.16930881602E-01 -0.90650348730E-02  0.10205432309E+01  0.10202752301E+01 0.  0.
     999903    2    3    3    0    0  0.91710861798E-01  0.78671549744E-01 -0.47096491980E-01  0.13133278799E+00  0.20739496943E-01 0.  0.
         14    1    1    2    0    0  0.13345836822E-01 -0.16930881602E-01  0.90650348730E-02  0.23386769113E-01  0.00000000000E+00 0.  1.
     999901    1    3    3    0    0 -0.10505669862E+00 -0.61740668142E-01  0.38031457107E-01  0.88921044290E+00  0.88000000000E+00 0. -1.
        -11    1    4    4    0    0  0.67210694630E-01  0.44882895811E-01 -0.32588951407E-01  0.87143861997E-01  0.51100000000E-03 0.  1.
         11    1    4    4    0    0  0.24500167168E-01  0.33788653933E-01 -0.14507540573E-01  0.44188925993E-01  0.51100000000E-03 0. -1.
</event>
<event>
 8    1  0.9956970E+004  0.1043930E+01  0.7957747E-01            NaN
         13   -1    0    0    0    0  0.00000000000E+00  0.00000000000E+00  0.74505805969E-08  0.10566000000E+00  0.10566000000E+00 0. -1.
     999900   -1    0    0    0    0 -0.00000000000E+00 -0.00000000000E+00 -0.74505805969E-08  0.93827000000E+00  0.93827000000E+00 0.  1.
     999902    2    1    2    0    0 -0.12891491015E-02  0.22815701395E-01  0.51826506840E-02  0.10204975865E+01  0.10202285264E+01 0.  0.
     999903    2    3    3    0    0 -0.30350401397E-01  0.40305732446E-01 -0.11931295251E+00  0.13108788741E+00  0.20068748252E-01 0.  0.
         14    1    1    2    0    0  0.12891491015E-02 -0.22815701395E-01 -0.51826506840E-02  0.23432413527E-01  0.00000000000E+00 0.  1.
     999901    1    3    3    0    0  0.29061252296E-01 -0.17490031050E-01  0.12449560319E+00  0.88940969906E+00  0.88000000000E+00 0. -1.
        -11    1    4    4    0    0 -0.18234792260E-01  0.22788307376E-01 -0.43867019404E-01  0.52691470982E-01  0.51100000000E-03 0.  1.
         11    1    4    4    0    0 -0.12115609138E-01  0.17517425070E-01 -0.75445933105E-01  0.78396416430E-01  0.51100000000E-03 0. -1.
</event>
<event>
 8    1  0.9956970E+004  0.1043930E+01  0.7957747E-01            NaN
         13   -1    0    0    0    0  0.00000000000E+00  0.00000000000E+00  0.74505805969E-08  0.10566000000E+00  0.10566000000E+00 0. -1.
     999900   -1    0    0    0    0 -0.00000000000E+00 -0.00000000000E+00 -0.74505805969E-08  0.93827000000E+00  0.93827000000E+00 0. -1.
     999902    2    1    2    0    0 -0.50608955231E-02 -0.30737199019E-03  0.23222735566E-01  0.10201602169E+01  0.10198832608E+01 0.  0.
     999903    2    3    3    0    0 -0.88031368965E-01 -0.54210760824E-01 -0.74812307893E-01  0.12920536702E+00  0.20219222139E-01 0.  0.
         14    1    1    2    0    0  0.50608955231E-02  0.30737199019E-03 -0.23222735566E-01  0.23769783092E-01  0.00000000000E+00 0.  1.
     999901    1    3    3    0    0  0.82970473442E-01  0.53903388834E-01  0.98035043460E-01  0.89095484989E+00  0.88000000000E+00 0.  1.
        -11    1    4    4    0    0 -0.82343499818E-01 -0.44175183180E-01 -0.63080318374E-01  0.11274434114E+00  0.51100000000E-03 0. -1.
         11    1    4    4    0    0 -0.56878691465E-02 -0.10035577644E-01 -0.11731989519E-01  0.16461025884E-01  0.51100000000E-03 0.  1.
</event>
<event>
 8    1  0.9956970E+004  0.1043930E+01  0.7957747E-01            NaN
         13   -1    0    0    0    0  0.00000000000E+00  0.00000000000E+00  0.74505805969E-08  0.10566000000E+00  0.10566000000E+00 0.  1.
     999900   -1    0    0    0    0 -0.00000000000E+00 -0.00000000000E+00 -0.74505805969E-08  0.93827000000E+00  0.93827000000E+00 0.  1.
     999902    2    1    2    0    0 -0.30010978599E-01 -0.10652015488E-01  0.10427710114E-02  0.10120676140E+01  0.10115659364E+01 0.  0.
     999903    2    3    3    0    0 -0.49635793540E-01  0.79585995476E-01 -0.78219125673E-01  0.12369242285E+00  0.19594416875E-01 0.  0.
         14    1    1    2    0    0  0.30010978599E-01  0.10652015488E-01 -0.10427710114E-02  0.31862386003E-01  0.00000000000E+00 0. -1.
     999901    1    3    3    0    0  0.19624814941E-01 -0.90238010964E-01  0.79261896684E-01  0.88837519115E+00  0.88000000000E+00 0.  1.
        -11    1    4    4    0    0 -0.47020344329E-01  0.65701292345E-01 -0.72096686323E-01  0.10828557566E+00  0.51100000000E-03 0. -1.
         11    1    4    4    0    0 -0.26154492103E-02  0.13884703131E-01 -0.61224393498E-02  0.15406847186E-01  0.51100000000E-03 0.  1.
</event>
<event>
 8    1  0.9956970E+004  0.1043930E+01  0.7957747E-01            NaN
         13   -1    0    0    0    0  0.00000000000E+00  0.00000000000E+00  0.74505805969E-08  0.10566000000E+00  0.10566000000E+00 0.  1.
     999900   -1    0    0    0    0 -0.00000000000E+00 -0.00000000000E+00 -0.74505805969E-08  0.93827000000E+00  0.93827000000E+00 0. -1.
     999902    2    1    2    0    0  0.85742578975E-02 -0.17431536685E-01 -0.14378774555E-01  0.10197613110E+01  0.10194748677E+01 0.  0.
     999903    2    3    3    0    0 -0.34277472641E-01 -0.12762112325E-01  0.12178571189E+00  0.12824639711E+00  0.16660195418E-01 0.  0.
         14    1    1    2    0    0 -0.85742578975E-02  0.17431536685E-01  0.14378774555E-01  0.24168688988E-01  0.00000000000E+00 0.  1.
     999901    1    3    3    0    0  0.42851730539E-01 -0.46694243607E-02 -0.13616448644E+00  0.89151491390E+00  0.88000000000E+00 0. -1.
        -11    1    4    4    0    0 -0.28102010121E-01 -0.28042898580E-02  0.79714485210E-01  0.84570960073E-01  0.51100000000E-03 0.  1.
         11    1    4    4    0    0 -0.61754625201E-02 -0.99578224665E-02  0.42071226677E-01  0.43675437041E-01  0.51100000000E-03 0. -1.
</event>
<event>
 8    1  0.9956970E+004  0.1043930E+01  0.7957747E-01            NaN
         13   -1    0    0    0    0  0.00000000000E+00  0.00000000000E+00  0.74505805969E-08  0.10566000000E+00  0.10566000000E+00 0. -1.
     999900   -1    0    0    0    0 -0.00000000000E+00 -0.00000000000E+00 -0.74505805969E-08  0.93827000000E+00  0.93827000000E+00 0. -1.
     999902    2    1    2    0    0  0.50999376501E-02 -0.13483713744E-01  0.18170313662E-01  0.10207355998E+01  0.10204720401E+01 0.  0.
     999903    2    3    3    0    0  0.11405263737E+00 -0.25756822531E-01 -0.55404333699E-01  0.13088474227E+00  0.19742278722E-01 0.  0.
         14    1    1    2    0    0 -0.50999376501E-02  0.13483713744E-01 -0.18170313662E-01  0.23194400163E-01  0.00000000000E+00 0.  1.
     999901    1    3    3    0    0 -0.10895269972E+00  0.12273108786E-01  0.73574647361E-01  0.88985085757E+00  0.88000000000E+00 0. -1.
        -11    1    4    4    0    0  0.74283782732E-01 -0.18213150157E-01 -0.46248163170E-01  0.89380942786E-01  0.51100000000E-03 0.  1.
         11    1    4    4    0    0  0.39768854637E-01 -0.75436723734E-02 -0.91561705290E-02  0.41503799486E-01  0.51100000000E-03 0. -1.
</event>
<event>
 8    1  0.9956970E+004  0.1043930E+01  0.7957747E-01            NaN
         13   -1    0    0    0    0  0.00000000000E+00  0.00000000000E+00  0.74505805969E-08  0.10566000000E+00  0.10566000000E+00 0.  1.
     999900   -1    0    0    0    0 -0.00000000000E+00 -0.00000000000E+00 -0.74505805969E-08  0.93827000000E+00  0.93827000000E+00 0. -1.
     999902    2    1    2    0    0  0.53135070822E-02  0.17622924807E-01 -0.13683332515E-01  0.10209945596E+01  0.10207369183E+01 0.  0.
     999903    2    3    3    0    0 -0.42503945971E-01 -0.11035625060E+00 -0.50118004065E-01  0.12970747712E+00  0.18086675207E-01 0.  0.
         14    1    1    2    0    0 -0.53135070822E-02 -0.17622924807E-01  0.13683332515E-01  0.22935440370E-01  0.00000000000E+00 0.  1.
     999901    1    3    3    0    0  0.47817453053E-01  0.12797917541E+00  0.36434671550E-01  0.89128708251E+00  0.88000000000E+00 0. -1.
        -11    1    4    4    0    0 -0.14920033486E-01 -0.51667630174E-01 -0.14416451476E-01  0.55679858128E-01  0.51100000000E-03 0. -1.
         11    1    4    4    0    0 -0.27583912485E-01 -0.58688620427E-01 -0.35701552588E-01  0.74027618993E-01  0.51100000000E-03 0.  1.
</event>
<event>
 8    1  0.9956970E+004  0.1043930E+01  0.7957747E-01            NaN
         13   -1    0    0    0    0  0.00000000000E+00  0.00000000000E+00  0.74505805969E-08  0.10566000000E+00  0.10566000000E+00 0. -1.
     999900   -1    0    0    0    0 -0.00000000000E+00 -0.00000000000E+00 -0.74505805969E-08  0.93827000000E+00  0.93827000000E+00 0. -1.
     999902    2    1    2    0    0  0.17414907423E-01  0.64929557076E-02  0.13998380948E-01  0.10206621650E+01  0.10203969144E+01 0.  0.
     999903    2    3    3    0    0  0.29796828713E-01 -0.66412396575E-01  0.10908661556E+00  0.13245595322E+00  0.18607321885E-01 0.  0.
         14    1    1    2    0    0 -0.17414907423E-01 -0.64929557076E-02 -0.13998380948E-01  0.23267834956E-01  0.00000000000E+00 0. -1.
     999901    1    3    3    0    0 -0.12381921290E-01  0.72905352282E-01 -0.95088234615E-01  0.88820621183E+00  0.88000000000E+00 0. -1.
        -11    1    4    4    0    0  0.13387729473E-01 -0.20332758821E-01  0.51007822169E-01  0.56521778326E-01  0.51100000000E-03 0.  1.
         11    1    4    4    0    0  0.16409099240E-01 -0.46079637754E-01  0.58078793393E-01  0.75934174891E-01  0.51100000000E-03 0. -1.
</event>
<event>
 8    1  0.9956970E+004  0.1043930E+01  0.7957747E-01            NaN
         13   -1    0    0    0    0  0.00000000000E+00  0.00000000000E+00  0.74505805969E-08  0.10566000000E+00  0.10566000000E+00 0.  1.
     999900   -1    0    0    0    0 -0.00000000000E+00 -0.00000000000E+00 -0.74505805969E-08  0.93827000000E+00  0.93827000000E+00 0.  1.
     999902    2    1    2    0    0 -0.44149305130E-02  0.21612896045E-01  0.90171447402E-02  0.10200989743E+01  0.10198205722E+01 0.  0.
     999903    2    3    3    0    0 -0.28886076468E-01  0.79310728127E-02  0.12669676723E+00  0.13182282195E+00  0.20685217702E-01 0.  0.
         14    1    1    2    0    0  0.44149305130E-02 -0.21612896045E-01 -0.90171447402E-02  0.23831025705E-01  0.00000000000E+00 0. -1.
     999901    1    3    3    0    0  0.24471145955E-01  0.13681823232E-01 -0.11767962249E+00  0.88827615234E+00  0.88000000000E+00 0.  1.
        -11    1    4    4    0    0 -0.16810040703E-01  0.13990413247E-01  0.92465715717E-01  0.95018307895E-01  0.51100000000E-03 0. -1.
         11    1    4    4    0    0 -0.12076035765E-01 -0.60593404347E-02  0.34231051513E-01  0.36804514057E-01  0.51100000000E-03 0.  1.
</event>
<event>
 8    1  0.9956970E+004  0.1043930E+01  0.7957747E-01            NaN
         13   -1    0    0    0    0  0.00000000000E+00  0.00000000000E+00  0.74505805969E-08  0.10566000000E+00  0.10566000000E+00 0.  1.
     999900   -1    0    0    0    0 -0.00000000000E+00 -0.00000000000E+00 -0.74505805969E-08  0.93827000000E+00  0.93827000000E+00 0.  1.
     999902    2    1    2    0    0 -0.21190021189E-01  0.68435061004E-02 -0.12947276268E-01  0.10181718452E+01  0.10178459726E+01 0.  0.
     999903    2    3    3    0    0 -0.37071107820E-01 -0.12005465214E+00  0.17198968390E-01  0.12841673987E+00  0.20190790674E-01 0.  0.
         14    1    1    2    0    0  0.21190021189E-01 -0.68435061004E-02  0.12947276268E-01  0.25758154757E-01  0.00000000000E+00 0.  1.
     999901    1    3    3    0    0  0.15881086631E-01  0.12689815824E+00 -0.30146244657E-01  0.88975510538E+00  0.88000000000E+00 0.  1.
        -11    1    4    4    0    0 -0.24154923714E-04 -0.25680815894E-01  0.62938135829E-02  0.26445757672E-01  0.51100000000E-03 0.  1.
         11    1    4    4    0    0 -0.37046952896E-01 -0.94373836248E-01  0.10905154807E-01  0.10197098219E+00  0.51100000000E-03 0. -1.
</event>
<event>
 7    1  0.1881100E+005  0.1043930E+01  0.7957747E-01            NaN
         13   -1    0    0    0    0  0.00000000000E+00  0.00000000000E+00  0.74505805969E-08  0.10566000000E+00  0.10566000000E+00 0. -1.
     999900   -1    0    0    0    0 -0.00000000000E+00 -0.00000000000E+00 -0.74505805969E-08  0.93827000000E+00  0.93827000000E+00 0. -1.
     999903    2    1    2    0    0  0.30580829529E-01  0.44216065884E-03 -0.99716175946E-01  0.10615506883E+00  0.19753487080E-01 0.  0.
         14    1    1    2    0    0  0.22509939532E-01 -0.39097342676E-01 -0.15795952988E-01  0.47799704108E-01  0.00000000000E+00 0.  1.
     999901    1    1    2    0    0 -0.53090769061E-01  0.38655182017E-01  0.11551212893E+00  0.88997522706E+00  0.88000000000E+00 0.  1.
        -11    1    3    3    0    0  0.10190178578E-01  0.74328588722E-02 -0.56070695829E-01  0.57474091399E-01  0.51100000000E-03 0.  1.
         11    1    3    3    0    0  0.20390650951E-01 -0.69906982134E-02 -0.43645480117E-01  0.48680977429E-01  0.51100000000E-03 0. -1.
</event>
<event>
 8    1  0.9956970E+004  0.1043930E+01  0.7957747E-01            NaN
         13   -1    0    0    0    0  0.00000000000E+00  0.00000000000E+00  0.74505805969E-08  0.10566000000E+00  0.10566000000E+00 0. -1.
     999900   -1    0    0    0    0 -0.00000000000E+00 -0.00000000000E+00 -0.74505805969E-08  0.93827000000E+00  0.93827000000E+00 0.  1.
     999902    2    1    2    0    0  0.18016762054E-01 -0.12899348490E-01 -0.52641454769E-02  0.10211548351E+01  0.10209008224E+01 0.  0.
     999903    2    3    3    0    0  0.63517460657E-02  0.82365403205E-01 -0.99853447361E-01  0.13089724235E+00  0.18411213454E-01 0.  0.
         14    1    1    2    0    0 -0.18016762054E-01  0.12899348490E-01  0.52641454769E-02  0.22775164851E-01  0.00000000000E+00 0.  1.
     999901    1    3    3    0    0  0.11665015988E-01 -0.95264751694E-01  0.94589301884E-01  0.89025759280E+00  0.88000000000E+00 0.  1.
        -11    1    4    4    0    0  0.63031125577E-02  0.23652667117E-01 -0.19088825109E-01  0.31045486865E-01  0.51100000000E-03 0.  1.
         11    1    4    4    0    0  0.48633507995E-04  0.58712736088E-01 -0.80764622252E-01  0.99851755481E-01  0.51100000000E-03 0. -1.
</event>
<event>
 8    1  0.1174282E+005  0.1043930E+01  0.7957747E-01            NaN
         13   -1    0    0    0    0  0.00000000000E+00  0.00000000000E+00  0.74505805969E-08  0.10566000000E+00  0.10566000000E+00 0. -1.
     999900   -1    0    0    0    0 -0.00000000000E+00 -0.00000000000E+00 -0.74505805969E-08  0.93827000000E+00  0.93827000000E+00 0. -1.
     999902    2    1    2    0    0 -0.10275691406E-01 -0.24578101968E-01  0.69425176982E-02  0.10164005343E+01  0.10160276446E+01 0.  0.
     999903    2    3    3    0    0  0.60123523714E-01 -0.55537494901E-01  0.97040782837E-01  0.12846346958E+00  0.19664639339E-01 0.  0.
         14    1    1    2    0    0  0.10275691406E-01  0.24578101968E-01 -0.69425176982E-02  0.27529465708E-01  0.00000000000E+00 0. -1.
     999901    1    3    3    0    0 -0.70399215120E-01  0.30959392933E-01 -0.90098265139E-01  0.88793706471E+00  0.88000000000E+00 0.  1.
        -11    1    4    4    0    0  0.39718740537E-01 -0.25439867991E-01  0.46848604418E-01  0.66481712450E-01  0.51100000000E-03 0.  1.
         11    1    4    4    0    0  0.20404783177E-01 -0.30097626909E-01  0.50192178419E-01  0.61981757135E-01  0.51100000000E-03 0. -1.
</event>
<event>
 8    1  0.9956970E+004  0.1043930E+01  0.7957747E-01            NaN
         13   -1    0    0    0    0  0.00000000000E+00  0.00000000000E+00  0.74505805969E-08  0.10566000000E+00  0.10566000000E+00 0.  1.
     999900   -1    0    0    0    0 -0.00000000000E+00 -0.00000000000E+00 -0.74505805969E-08  0.93827000000E+00  0.93827000000E+00 0. -1.
     999902    2    1    2    0    0  0.72007013791E-02 -0.30707162519E-03  0.22566448053E-01  0.10202405726E+01  0.10199655077E+01 0.  0.
     999903    2    3    3    0    0  0.40185619784E-01  0.68148519146E-01  0.10528694284E+00  0.13310086938E+00  0.19271647541E-01 0.  0.
         14    1    1    2    0    0 -0.72007013791E-02  0.30707162519E-03 -0.22566448053E-01  0.23689427411E-01  0.00000000000E+00 0. -1.
     999901    1    3    3    0    0 -0.32984918405E-01 -0.68455590771E-01 -0.82720494783E-01  0.88713970321E+00  0.88000000000E+00 0. -1.
        -11    1    4    4    0    0  0.24427305855E-02  0.19434933250E-01  0.21476329925E-01  0.29071935457E-01  0.51100000000E-03 0.  1.
         11    1    4    4    0    0  0.37742889199E-01  0.48713585897E-01  0.83810612911E-01  0.10402893392E+00  0.51100000000E-03 0. -1.
</event>
<event>
 8    1  0.9956970E+004  0.1043930E+01  0.7957747E-01            NaN
         13   -1    0    0    0    0  0.00000000000E+00  0.00000000000E+00  0.74505805969E-08  0.10566000000E+00  0.10566000000E+00 0.  1.
     999900   -1    0    0    0    0 -0.00000000000E+00 -0.00000000000E+00 -0.74505805969E-08  0.93827000000E+00  0.93827000000E+00 0.  1.
     999902    2    1    2    0    0  0.23509085415E-02 -0.29877797477E-02  0.23888521026E-01  0.10197408488E+01  0.10194539144E+01 0.  0.
     999903    2    3    3    0    0  0.25582164628E-01 -0.74369544907E-01 -0.99232141470E-01  0.12800448351E+00  0.18784396203E-01 0.  0.
         14    1    1    2    0    0 -0.23509085415E-02  0.29877797477E-02 -0.23888521026E-01  0.24189151196E-01  0.00000000000E+00 0. -1.
     999901    1    3    3    0    0 -0.23231256086E-01  0.71381765160E-01  0.12312066250E+00  0.89173636530E+00  0.88000000000E+00 0. -1.
        -11    1    4    4    0    0  0.19049648384E-01 -0.29803017041E-01 -0.37106502903E-01  0.51266583727E-01  0.51100000000E-03 0. -1.
         11    1    4    4    0    0  0.65325162435E-02 -0.44566527866E-01 -0.62125638567E-01  0.76737899781E-01  0.51100000000E-03 0.  1.
</event>
<event>
 8    1  0.9956970E+004  0.1043930E+01  0.7957747E-01            NaN
         13   -1    0    0    0    0  0.00000000000E+00  0.00000000000E+00  0.74505805969E-08  0.10566000000E+00  0.10566000000E+00 0.  1.
     999900   -1    0    0    0    0 -0.00000000000E+00 -0.00000000000E+00 -0.74505805969E-08  0.93827000000E+00  0.93827000000E+00 0.  1.
     999902    2    1    2    0    0 -0.13411147507E-02  0.22275229332E-01  0.10256169837E-01  0.10193704102E+01  0.10190745114E+01 0.  0.
     999903    2    3    3    0    0  0.44970614118E-02  0.38893972803E-02 -0.12693274269E+00  0.12853208547E+00  0.19319028319E-01 0.  0.
         14    1    1    2    0    0  0.13411147507E-02 -0.22275229332E-01 -0.10256169837E-01  0.24559589783E-01  0.00000000000E+00 0. -1.
     999901    1    3    3    0    0 -0.58381761625E-02  0.18385832052E-01  0.13718891253E+00  0.89083832475E+00  0.88000000000E+00 0. -1.
        -11    1    4    4    0    0  0.10080237290E-01  0.10792611007E-02 -0.36589001306E-01  0.37970937912E-01  0.51100000000E-03 0.  1.
         11    1    4    4    0    0 -0.55831758784E-02  0.28101361795E-02 -0.90343741384E-01  0.90561147556E-01  0.51100000000E-03 0. -1.
</event>
<event>
 8    1  0.9956970E+004  0.1043930E+01  0.7957747E-01            NaN
         13   -1    0    0    0    0  0.00000000000E+00  0.00000000000E+00  0.74505805969E-08  0.10566000000E+00  0.10566000000E+00 0. -1.
     999900   -1    0    0    0    0 -0.00000000000E+00 -0.00000000000E+00 -0.74505805969E-08  0.93827000000E+00  0.93827000000E+00 0. -1.
     999902    2    1    2    0    0 -0.14391694122E-02 -0.16053246620E-01  0.16742855880E-01  0.10206899234E+01  0.10204253126E+01 0.  0.
     999903    2    3    3    0    0  0.29213724118E-01 -0.69287318151E-01 -0.10442025041E+00  0.13026644858E+00  0.20287552756E-01 0.  0.
         14    1    1    2    0    0  0.14391694122E-02  0.16053246620E-01 -0.16742855880E-01  0.23240076563E-01  0.00000000000E+00 0.  1.
     999901    1    3    3    0    0 -0.30652893530E-01  0.53234071531E-01  0.12116310629E+00  0.89042347486E+00  0.88000000000E+00 0.  1.
        -11    1    4    4    0    0  0.13050458224E-02 -0.25886677655E-01 -0.29200032434E-01  0.39047743081E-01  0.51100000000E-03 0.  1.
         11    1    4    4    0    0  0.27908678295E-01 -0.43400640496E-01 -0.75220217974E-01  0.91218705498E-01  0.51100000000E-03 0. -1.
</event>
<event>
 7    1  0.1179614E+005  0.1043930E+01  0.7957747E-01            NaN
         13   -1    0    0    0    0  0.00000000000E+00  0.00000000000E+00  0.74505805969E-08  0.10566000000E+00  0.10566000000E+00 0. -1.
     999900   -1    0    0    0    0 -0.00000000000E+00 -0.00000000000E+00 -0.74505805969E-08  0.93827000000E+00  0.93827000000E+00 0. -1.
     999903    2    1    2    0    0 -0.14979769843E-01  0.53926721227E-01  0.53029400036E-01  0.79688912851E-01  0.20142512166E-01 0.  0.
         14    1    1    2    0    0 -0.58490289032E-01 -0.33935623834E-01 -0.44428619116E-01  0.80911325985E-01  0.00000000000E+00 0.  1.
     999901    1    1    2    0    0  0.73470058875E-01 -0.19991097393E-01 -0.86007809203E-02  0.88332976116E+00  0.88000000000E+00 0. -1.
        -11    1    3    3    0    0 -0.11998233263E-01  0.10641596353E-01  0.15733723590E-01  0.22472479912E-01  0.51100000000E-03 0.  1.
         11    1    3    3    0    0 -0.29815365801E-02  0.43285124874E-01  0.37295676446E-01  0.57216432939E-01  0.51100000000E-03 0. -1.
</event>
<event>
 8    1  0.9956970E+004  0.1043930E+01  0.7957747E-01            NaN
         13   -1    0    0    0    0  0.00000000000E+00  0.00000000000E+00  0.74505805969E-08  0.10566000000E+00  0.10566000000E+00 0.  1.
     999900   -1    0    0    0    0 -0.00000000000E+00 -0.00000000000E+00 -0.74505805969E-08  0.93827000000E+00  0.93827000000E+00 0. -1.
     999902    2    1    2    0    0  0.80788531603E-02 -0.20541480506E-01  0.77738536447E-02  0.10205280110E+01  0.10202596572E+01 0.  0.
     999903    2    3    3    0    0  0.26887778909E-01 -0.12277515428E+00 -0.38399961408E-01  0.13320759481E+00  0.21748910692E-01 0.  0.
         14    1    1    2    0    0 -0.80788531603E-02  0.20541480506E-01 -0.77738536447E-02  0.23401989024E-01  0.00000000000E+00 0. -1.
     999901    1    3    3    0    0 -0.18808925749E-01  0.10223367378E+00  0.46173815052E-01  0.88732041616E+00  0.88000000000E+00 0. -1.
        -11    1    4    4    0    0  0.20653880947E-01 -0.62761238364E-01 -0.28929287092E-01  0.72129887092E-01  0.51100000000E-03 0. -1.
         11    1    4    4    0    0  0.62338979620E-02 -0.60013915918E-01 -0.94706743157E-02  0.61077707723E-01  0.51100000000E-03 0.  1.
</event>
<event>
 8    1  0.9956970E+004  0.1043930E+01  0.7957747E-01            NaN
         13   -1    0    0    0    0  0.00000000000E+00  0.00000000000E+00  0.74505805969E-08  0.10566000000E+00  0.10566000000E+00 0.  1.
     999900   -1    0    0    0    0 -0.00000000000E+00 -0.00000000000E+00 -0.74505805969E-08  0.93827000000E+00  0.93827000000E+00 0. -1.
     999902    2    1    2    0    0  0.15645481979E-01 -0.10654969481E-02  0.17676643300E-01  0.10202999321E+01  0.10200262601E+01 0.  0.
     999903    2    3    3    0    0 -0.12123601361E+00  0.27335341321E-01  0.29266859464E-01  0.12918967824E+00  0.19698528347E-01 0.  0.
         14    1    1    2    0    0 -0.15645481979E-01  0.10654969481E-02 -0.17676643300E-01  0.23630067889E-01  0.00000000000E+00 0. -1.
     999901    1    3    3    0    0  0.13688149559E+00 -0.28400838269E-01 -0.11590216164E-01  0.89111025387E+00  0.88000000000E+00 0. -1.
        -11    1    4    4    0    0 -0.64534441825E-01  0.12295295942E-01  0.56153440618E-02  0.65936800756E-01  0.51100000000E-03 0.  1.
         11    1    4    4    0    0 -0.56701571784E-01  0.15040045379E-01  0.23651515402E-01  0.63252877481E-01  0.51100000000E-03 0. -1.
</event>
<event>
 8    1  0.9956970E+004  0.1043930E+01  0.7957747E-01            NaN
         13   -1    0    0    0    0  0.00000000000E+00  0.00000000000E+00  0.74505805969E-08  0.10566000000E+00  0.10566000000E+00 0. -1.
     999900   -1    0    0    0    0 -0.00000000000E+00 -0.00000000000E+00 -0.74505805969E-08  0.93827000000E+00  0.93827000000E+00 0. -1.
     999902    2    1    2    0    0 -0.13512323109E-01 -0.12781099108E-01  0.15742015826E-01  0.10195630053E+01  0.10192717848E+01 0.  0.
     999903    2    3    3    0    0  0.80755934311E-01  0.96812918283E-01  0.49593029755E-03  0.12763823482E+00  0.19925134088E-01 0.  0.
         14    1    1    2    0    0  0.13512323109E-01  0.12781099108E-01 -0.15742015826E-01  0.24366994737E-01  0.00000000000E+00 0.  1.
     999901    1    3    3    0    0 -0.94268257420E-01 -0.10959401739E+00  0.15246085529E-01  0.89192477044E+00  0.88000000000E+00 0. -1.
        -11    1    4    4    0    0  0.47087023849E-01  0.52449483657E-01  0.98206264826E-02  0.71167703183E-01  0.51100000000E-03 0. -1.
         11    1    4    4    0    0  0.33668910462E-01  0.44363434626E-01 -0.93246961851E-02  0.56470531638E-01  0.51100000000E-03 0.  1.
</event>
<event>
 8    1  0.9956970E+004  0.1043930E+01  0.7957747E-01            NaN
         13   -1    0    0    0    0  0.00000000000E+00  0.00000000000E+00  0.74505805969E-08  0.10566000000E+00  0.10566000000E+00 0.  1.
     999900   -1    0    0    0    0 -0.00000000000E+00 -0.00000000000E+00 -0.74505805969E-08  0.93827000000E+00  0.93827000000E+00 0. -1.
     999902    2    1    2    0    0 -0.14049247745E-01  0.75970054079E-02 -0.19069887256E-01  0.10190551844E+01  0.10187515459E+01 0.  0.
     999903    2    3    3    0    0  0.23079259378E-01  0.10132747184E+00  0.73094709650E-01  0.12851701038E+00  0.19335889357E-01 0.  0.
         14    1    1    2    0    0  0.14049247745E-01 -0.75970054079E-02  0.19069887256E-01  0.24874815644E-01  0.00000000000E+00 0.  1.
     999901    1    3    3    0    0 -0.37128507124E-01 -0.93730466427E-01 -0.92164596906E-01  0.89053817397E+00  0.88000000000E+00 0.  1.
        -11    1    4    4    0    0  0.54710709055E-02  0.33056939477E-01  0.13242890598E-01  0.36032334601E-01  0.51100000000E-03 0. -1.
         11    1    4    4    0    0  0.17608188473E-01  0.68270532358E-01  0.59851819052E-01  0.92484675783E-01  0.51100000000E-03 0.  1.
</event>
<event>
 8    1  0.9956970E+004  0.1043930E+01  0.7957747E-01            NaN
         13   -1    0    0    0    0  0.00000000000E+00  0.00000000000E+00  0.74505805969E-08  0.10566000000E+00  0.10566000000E+00 0. -1.
     999900   -1    0    0    0    0 -0.00000000000E+00 -0.00000000000E+00 -0.74505805969E-08  0.93827000000E+00  0.93827000000E+00 0. -1.
     999902    2    1    2    0    0  0.52415727367E-02  0.14105212197E-01 -0.18000010271E-01  0.10204687241E+01  0.10201989931E+01 0.  0.
     999903    2    3    3    0    0  0.43739092901E-01  0.11136671456E-01 -0.12365728219E+00  0.13330789857E+00  0.21041356506E-01 0.  0.
         14    1    1    2    0    0 -0.52415727367E-02 -0.14105212197E-01  0.18000010271E-01  0.23461275874E-01  0.00000000000E+00 0. -1.
     999901    1    3    3    0    0 -0.38497520164E-01  0.29685407411E-02  0.10565727192E+00  0.88716082556E+00  0.88000000000E+00 0.  1.
        -11    1    4    4    0    0  0.37714527583E-02  0.44221041670E-02 -0.42749572094E-02  0.72329275756E-02  0.51100000000E-03 0.  1.
         11    1    4    4    0    0  0.39967640143E-01  0.67145672887E-02 -0.11938232498E+00  0.12607497099E+00  0.51100000000E-03 0. -1.
</event>
<event>
 8    1  0.9956970E+004  0.1043930E+01  0.7957747E-01            NaN
         13   -1    0    0    0    0  0.00000000000E+00  0.00000000000E+00  0.74505805969E-08  0.10566000000E+00  0.10566000000E+00 0. -1.
     999900   -1    0    0    0    0 -0.00000000000E+00 -0.00000000000E+00 -0.74505805969E-08  0.93827000000E+00  0.93827000000E+00 0.  1.
     999902    2    1    2    0    0 -0.48602772440E-02 -0.72789087633E-02  0.25907012538E-01  0.10165844683E+01  0.10162166122E+01 0.  0.
     999903    2    3    3    0    0  0.11311329566E+00  0.48479561884E-01  0.22035893285E-01  0.12695434483E+00  0.22066705753E-01 0.  0.
         14    1    1    2    0    0  0.48602772440E-02  0.72789087633E-02 -0.25907012538E-01  0.27345531743E-01  0.00000000000E+00 0.  1.
     999901    1    3    3    0    0 -0.11797357290E+00 -0.55758470647E-01  0.38711192538E-02  0.88963012343E+00  0.88000000000E+00 0.  1.
        -11    1    4    4    0    0  0.36862659785E-01  0.52511414047E-02  0.92846337045E-02  0.38378323524E-01  0.51100000000E-03 0.  1.
         11    1    4    4    0    0  0.76250635870E-01  0.43228420479E-01  0.12751259580E-01  0.88576021302E-01  0.51100000000E-03 0. -1.
</event>
<event>
 8    1  0.9956970E+004  0.1043930E+01  0.7957747E-01            NaN
         13   -1    0    0    0    0  0.00000000000E+00  0.00000000000E+00  0.74505805969E-08  0.10566000000E+00  0.10566000000E+00 0. -1.
     999900   -1    0    0    0    0 -0.00000000000E+00 -0.00000000000E+00 -0.74505805969E-08  0.93827000000E+00  0.93827000000E+00 0.  1.
     999902    2    1    2    0    0  0.18344847837E-01 -0.76265791461E-02 -0.16978162206E-01  0.10177965704E+01  0.10174610079E+01 0.  0.
     999903    2    3    3    0    0 -0.68970603953E-01 -0.31729621811E-01 -0.10255423061E+00  0.12901751557E+00  0.19090206871E-01 0.  0.
         14    1    1    2    0    0 -0.18344847837E-01  0.76265791461E-02  0.16978162206E-01  0.26133429616E-01  0.00000000000E+00 0. -1.
     999901    1    3    3    0    0  0.87315451790E-01  0.24103042665E-01  0.85576068406E-01  0.88877905481E+00  0.88000000000E+00 0. -1.
        -11    1    4    4    0    0 -0.38121544196E-01 -0.75860839694E-02 -0.56052985843E-01  0.68212895736E-01  0.51100000000E-03 0.  1.
         11    1    4    4    0    0 -0.30849059758E-01 -0.24143537841E-01 -0.46501244768E-01  0.60804619836E-01  0.51100000000E-03 0. -1.
</event>
<event>
 8    1  0.9956970E+004  0.1043930E+01  0.7957747E-01            NaN
         13   -1    0    0    0    0  0.00000000000E+00  0.00000000000E+00  0.74505805969E-08  0.10566000000E+00  0.10566000000E+00 0.  1.
     999900   -1    0    0    0    0 -0.00000000000E+00 -0.00000000000E+00 -0.74505805969E-08  0.93827000000E+00  0.93827000000E+00 0.  1.
     999902    2    1    2    0    0  0.12013745447E-01  0.19094080164E-01  0.20345033501E-02  0.10212793227E+01  0.10210281102E+01 0.  0.
     999903    2    3    3    0    0  0.10407668450E+00 -0.77221219036E-01  0.29670768095E-02  0.13124949666E+00  0.20556115929E-01 0.  0.
         14    1    1    2    0    0 -0.12013745447E-01 -0.19094080164E-01 -0.20345033501E-02  0.22650677271E-01  0.00000000000E+00 0. -1.
     999901    1    3    3    0    0 -0.92062939051E-01  0.96315299199E-01 -0.93257345948E-03  0.89002982607E+00  0.88000000000E+00 0.  1.
        -11    1    4    4    0    0  0.48085163062E-01 -0.23666435497E-01 -0.17454689030E-02  0.53624535975E-01  0.51100000000E-03 0.  1.
         11    1    4    4    0    0  0.55991521436E-01 -0.53554783538E-01  0.47125457125E-02  0.77624960680E-01  0.51100000000E-03 0. -1.
</event>
<event>
 8    1  0.9956970E+004  0.1043930E+01  0.7957747E-01            NaN
         13   -1    0    0    0    0  0.00000000000E+00  0.00000000000E+00  0.74505805969E-08  0.10566000000E+00  0.10566000000E+00 0.  1.
     999900   -1    0    0    0    0 -0.00000000000E+00 -0.00000000000E+00 -0.74505805969E-08  0.93827000000E+00  0.93827000000E+00 0.  1.
     999902    2    1    2    0    0 -0.14132757177E-02 -0.19591977899E-01 -0.12778380884E-01  0.10204964778E+01  0.10202273919E+01 0.  0.
     999903    2    3    3    0    0 -0.99551406997E-01 -0.37962976349E-01 -0.76344647479E-01  0.13257235001E+00  0.19880960276E-01 0.  0.
         14    1    1    2    0    0  0.14132757177E-02  0.19591977899E-01  0.12778380884E-01  0.23433522233E-01  0.00000000000E+00 0.  1.
     999901    1    3    3    0    0  0.98138131279E-01  0.18370998450E-01  0.63566266595E-01  0.88792412775E+00  0.88000000000E+00 0.  1.
        -11    1    4    4    0    0 -0.50803540113E-01 -0.22893414782E-01 -0.28357526357E-01  0.62526142936E-01  0.51100000000E-03 0. -1.
         11    1    4    4    0    0 -0.48747866884E-01 -0.15069561567E-01 -0.47987121122E-01  0.70046207079E-01  0.51100000000E-03 0.  1.
</event>
<event>
 8    1  0.9956970E+004  0.1043930E+01  0.7957747E-01            NaN
         13   -1    0    0    0    0  0.00000000000E+00  0.00000000000E+00  0.74505805969E-08  0.10566000000E+00  0.10566000000E+00 0.  1.
     999900   -1    0    0    0    0 -0.00000000000E+00 -0.00000000000E+00 -0.74505805969E-08  0.93827000000E+00  0.93827000000E+00 0. -1.
     999902    2    1    2    0    0  0.24356903042E-01 -0.81747805253E-02  0.16343321096E-02  0.10181859365E+01  0.10178604249E+01 0.  0.
     999903    2    3    3    0    0  0.37786679635E-01  0.12119172817E+00  0.27518511324E-02  0.12862576357E+00  0.20536461082E-01 0.  0.
         14    1    1    2    0    0 -0.24356903042E-01  0.81747805253E-02 -0.16343321096E-02  0.25744063468E-01  0.00000000000E+00 0. -1.
     999901    1    3    3    0    0 -0.13429776593E-01 -0.12936650870E+00 -0.11175190228E-02  0.88956017296E+00  0.88000000000E+00 0.  1.
        -11    1    4    4    0    0  0.22340882409E-01  0.97964566520E-01  0.52317163947E-02  0.10061711235E+00  0.51100000000E-03 0. -1.
         11    1    4    4    0    0  0.15445797226E-01  0.23227161653E-01 -0.24798652623E-02  0.28008651219E-01  0.51100000000E-03 0.  1.
</event>
<event>
 8    1  0.9956970E+004  0.1043930E+01  0.7957747E-01            NaN
         13   -1    0    0    0    0  0.00000000000E+00  0.00000000000E+00  0.74505805969E-08  0.10566000000E+00  0.10566000000E+00 0. -1.
     999900   -1    0    0    0    0 -0.00000000000E+00 -0.00000000000E+00 -0.74505805969E-08  0.93827000000E+00  0.93827000000E+00 0.  1.
     999902    2    1    2    0    0  0.19272086874E-01 -0.11872227291E-01  0.70844608295E-02  0.10202118066E+01  0.10199360655E+01 0.  0.
     999903    2    3    3    0    0  0.11928597447E+00 -0.41591431003E-01  0.37732914165E-01  0.13351832152E+00  0.21080287748E-01 0.  0.
         14    1    1    2    0    0 -0.19272086874E-01  0.11872227291E-01 -0.70844608295E-02  0.23718193409E-01  0.00000000000E+00 0.  1.
     999901    1    3    3    0    0 -0.10001388759E+00  0.29719203712E-01 -0.30648453336E-01  0.88669348507E+00  0.88000000000E+00 0.  1.
        -11    1    4    4    0    0  0.17246809518E-01 -0.11788439651E-01  0.12176864725E-01  0.24185882318E-01  0.51100000000E-03 0. -1.
         11    1    4    4    0    0  0.10203916495E+00 -0.29802991352E-01  0.25556049441E-01  0.10933243920E+00  0.51100000000E-03 0.  1.
</event>
<event>
 8    1  0.9956970E+004  0.1043930E+01  0.7957747E-01            NaN
         13   -1    0    0    0    0  0.00000000000E+00  0.00000000000E+00  0.74505805969E-08  0.10566000000E+00  0.10566000000E+00 0.  1.
     999900   -1    0    0    0    0 -0.00000000000E+00 -0.00000000000E+00 -0.74505805969E-08  0.93827000000E+00  0.93827000000E+00 0. -1.
     999902    2    1    2    0    0  0.17077084170E-01 -0.13002303217E-01 -0.10342545489E-01  0.10201044897E+01  0.10198262180E+01 0.  0.
     999903    2    3    3    0    0 -0.90511273269E-01  0.78291264741E-01  0.37967079382E-01  0.12755556106E+00  0.22519087833E-01 0.  0.
         14    1    1    2    0    0 -0.17077084170E-01  0.13002303217E-01  0.10342545489E-01  0.23825510275E-01  0.00000000000E+00 0.  1.
     999901    1    3    3    0    0  0.10758835744E+00 -0.91293567958E-01 -0.48309624871E-01  0.89254892867E+00  0.88000000000E+00 0. -1.
        -11    1    4    4    0    0 -0.13890662136E-01  0.96217828823E-02 -0.23101140540E-02  0.17062442625E-01  0.51100000000E-03 0.  1.
         11    1    4    4    0    0 -0.76620611133E-01  0.68669481859E-01  0.40277193436E-01  0.11049311843E+00  0.51100000000E-03 0. -1.
</event>
<event>
 8    1  0.9956970E+004  0.1043930E+01  0.7957747E-01            NaN
         13   -1    0    0    0    0  0.00000000000E+00  0.00000000000E+00  0.74505805969E-08  0.10566000000E+00  0.10566000000E+00 0.  1.
     999900   -1    0    0    0    0 -0.00000000000E+00 -0.00000000000E+00 -0.74505805969E-08  0.93827000000E+00  0.93827000000E+00 0.  1.
     999902    2    1    2    0    0 -0.49593847108E-02 -0.22850994261E-01  0.20688977777E-02  0.10204556784E+01  0.10201856438E+01 0.  0.
     999903    2    3    3    0    0 -0.44030832395E-01  0.66811821492E-01  0.10009419266E+00  0.12962743629E+00  0.19542035270E-01 0.  0.
         14    1    1    2    0    0  0.49593847108E-02  0.22850994261E-01 -0.20688977777E-02  0.23474321576E-01  0.00000000000E+00 0.  1.
     999901    1    3    3    0    0  0.39071447684E-01 -0.89662815754E-01 -0.98025294878E-01  0.89082824214E+00  0.88000000000E+00 0.  1.
        -11    1    4    4    0    0 -0.21179411300E-01  0.22611350773E-01  0.51323544656E-01  0.59951713935E-01  0.51100000000E-03 0.  1.
         11    1    4    4    0    0 -0.22851421095E-01  0.44200470719E-01  0.48770648000E-01  0.69675722352E-01  0.51100000000E-03 0. -1.
</event>
<event>
 8    1  0.9956970E+004  0.1043930E+01  0.7957747E-01            NaN
         13   -1    0    0    0    0  0.00000000000E+00  0.00000000000E+00  0.74505805969E-08  0.10566000000E+00  0.10566000000E+00 0.  1.
     999900   -1    0    0    0    0 -0.00000000000E+00 -0.00000000000E+00 -0.74505805969E-08  0.93827000000E+00  0.93827000000E+00 0. -1.
     999902    2    1    2    0    0  0.88918567709E-02 -0.16492928962E-01 -0.13290774552E-01  0.10209577012E+01  0.10206992217E+01 0.  0.
     999903    2    3    3    0    0  0.69018298739E-01 -0.10943367910E+00 -0.27795066258E-01  0.13390440715E+00  0.20458955595E-01 0.  0.
         14    1    1    2    0    0 -0.88918567709E-02  0.16492928962E-01  0.13290774552E-01  0.22972298770E-01  0.00000000000E+00 0.  1.
     999901    1    3    3    0    0 -0.60126441968E-01  0.92940750136E-01  0.14504291706E-01  0.88705329408E+00  0.88000000000E+00 0.  1.
        -11    1    4    4    0    0  0.46477637598E-01 -0.62918880205E-01 -0.25058165146E-01  0.82140909688E-01  0.51100000000E-03 0.  1.
         11    1    4    4    0    0  0.22540661142E-01 -0.46514798893E-01 -0.27369011119E-02  0.51763497462E-01  0.51100000000E-03 0. -1.
</event>
<event>
 8    1  0.9956970E+004  0.1043930E+01  0.7957747E-01            NaN
         13   -1    0    0    0    0  0.00000000000E+00  0.00000000000E+00  0.74505805969E-08  0.10566000000E+00  0.10566000000E+00 0.  1.
     999900   -1    0    0    0    0 -0.00000000000E+00 -0.00000000000E+00 -0.74505805969E-08  0.93827000000E+00  0.93827000000E+00 0.  1.
     999902    2    1    2    0    0  0.77155025133E-02  0.19368172497E-01 -0.14238650422E-01  0.10186833319E+01  0.10183704318E+01 0.  0.
     999903    2    3    3    0    0  0.57409698144E-01 -0.58572806216E-02  0.11219245266E+00  0.12790240462E+00  0.21016600462E-01 0.  0.
         14    1    1    2    0    0 -0.77155025133E-02 -0.19368172497E-01  0.14238650422E-01  0.25246668112E-01  0.00000000000E+00 0.  1.
     999901    1    3    3    0    0 -0.49694195630E-01  0.25225453119E-01 -0.12643110308E+00  0.89078092727E+00  0.88000000000E+00 0.  1.
        -11    1    4    4    0    0  0.42760672367E-01  0.18008586179E-02  0.64370676879E-01  0.77301768130E-01  0.51100000000E-03 0. -1.
         11    1    4    4    0    0  0.14649025776E-01 -0.76581392395E-02  0.47821775783E-01  0.50600636486E-01  0.51100000000E-03 0.  1.
</event>
<event>
 8    1  0.9956970E+004  0.1043930E+01  0.7957747E-01            NaN
         13   -1    0    0    0    0  0.00000000000E+00  0.00000000000E+00  0.74505805969E-08  0.10566000000E+00  0.10566000000E+00 0. -1.
     999900   -1    0    0    0    0 -0.00000000000E+00 -0.00000000000E+00 -0.74505805969E-08  0.93827000000E+00  0.93827000000E+00 0.  1.
     999902    2    1    2    0    0 -0.24636366892E-01 -0.69301750147E-02  0.84653371441E-02  0.10169737422E+01  0.10166164235E+01 0.  0.
     999903    2    3    3    0    0  0.98344610527E-01 -0.17539750901E-01  0.73960080282E-01  0.12594824020E+00  0.20336185801E-01 0.  0.
         14    1    1    2    0    0  0.24636366892E-01  0.69301750147E-02 -0.84653371441E-02  0.26956257758E-01  0.00000000000E+00 0.  1.
     999901    1    3    3    0    0 -0.12298097742E+00  0.10609575886E-01 -0.65494743138E-01  0.89102550204E+00  0.88000000000E+00 0.  1.
        -11    1    4    4    0    0  0.48070874853E-01 -0.10622355249E-01  0.48735291756E-01  0.69275054844E-01  0.51100000000E-03 0.  1.
         11    1    4    4    0    0  0.50273735675E-01 -0.69173956517E-02  0.25224788526E-01  0.56673185357E-01  0.51100000000E-03 0. -1.
</event>
<event>
 8    1  0.9956970E+004  0.1043930E+01  0.7957747E-01            NaN
         13   -1    0    0    0    0  0.00000000000E+00  0.00000000000E+00  0.74505805969E-08  0.10566000000E+00  0.10566000000E+00 0.  1.
     999900   -1    0    0    0    0 -0.00000000000E+00 -0.00000000000E+00 -0.74505805969E-08  0.93827000000E+00  0.93827000000E+00 0. -1.
     999902    2    1    2    0    0 -0.13687144446E-01 -0.18631087921E-01 -0.19456445009E-01  0.10137139676E+01  0.10132635390E+01 0.  0.
     999903    2    3    3    0    0 -0.22034188754E-01  0.86521486165E-01  0.80912465135E-01  0.12174947556E+00  0.17453788748E-01 0.  0.
         14    1    1    2    0    0  0.13687144446E-01  0.18631087921E-01  0.19456445009E-01  0.30216032377E-01  0.00000000000E+00 0. -1.
     999901    1    3    3    0    0  0.83470443080E-02 -0.10515257409E+00 -0.10036891014E+00  0.89196449207E+00  0.88000000000E+00 0. -1.
        -11    1    4    4    0    0 -0.20793629409E-01  0.47100155689E-01  0.47610425497E-01  0.70127123333E-01  0.51100000000E-03 0.  1.
         11    1    4    4    0    0 -0.12405593446E-02  0.39421330476E-01  0.33302039638E-01  0.51622352223E-01  0.51100000000E-03 0. -1.
</event>
<event>
 8    1  0.9956970E+004  0.1043930E+01  0.7957747E-01            NaN
         13   -1    0    0    0    0  0.00000000000E+00  0.00000000000E+00  0.74505805969E-08  0.10566000000E+00  0.10566000000E+00 0.  1.
     999900   -1    0    0    0    0 -0.00000000000E+00 -0.00000000000E+00 -0.74505805969E-08  0.93827000000E+00  0.93827000000E+00 0.  1.
     999902    2    1    2    0    0  0.39927607238E-02 -0.57050081802E-02  0.22858247038E-01  0.10200346299E+01  0.10197547045E+01 0.  0.
     999903    2    3    3    0    0 -0.10114185915E+00 -0.67844725030E-01 -0.38817334770E-01  0.12946261699E+00  0.20523190160E-01 0.  0.
         14    1    1    2    0    0 -0.39927607238E-02  0.57050081802E-02 -0.22858247038E-01  0.23895370142E-01  0.00000000000E+00 0. -1.
     999901    1    3    3    0    0  0.10513461987E+00  0.62139716850E-01  0.61675581809E-01  0.89057201286E+00  0.88000000000E+00 0. -1.
        -11    1    4    4    0    0 -0.72084500346E-01 -0.52260323899E-01 -0.19172016545E-01  0.91077681039E-01  0.51100000000E-03 0.  1.
         11    1    4    4    0    0 -0.29057358801E-01 -0.15584401131E-01 -0.19645318226E-01  0.38384935955E-01  0.51100000000E-03 0. -1.
</event>
<event>
 8    1  0.9956970E+004  0.1043930E+01  0.7957747E-01            NaN
         13   -1    0    0    0    0  0.00000000000E+00  0.00000000000E+00  0.74505805969E-08  0.10566000000E+00  0.10566000000E+00 0. -1.
     999900   -1    0    0    0    0 -0.00000000000E+00 -0.00000000000E+00 -0.74505805969E-08  0.93827000000E+00  0.93827000000E+00 0.  1.
     999902    2    1    2    0    0  0.22551081181E-01  0.94801402142E-02  0.47893114399E-02  0.10190028697E+01  0.10186979369E+01 0.  0.
     999903    2    3    3    0    0  0.90021509295E-01 -0.49189196407E-01  0.79514952378E-01  0.13132146788E+00  0.19981268598E-01 0.  0.
         14    1    1    2    0    0 -0.22551081181E-01 -0.94801402142E-02 -0.47893114399E-02  0.24927130300E-01  0.00000000000E+00 0. -1.
     999901    1    3    3    0    0 -0.67470428114E-01  0.58669336621E-01 -0.74725640938E-01  0.88768140182E+00  0.88000000000E+00 0.  1.
        -11    1    4    4    0    0  0.40893765850E-01 -0.15049845927E-01  0.43054392281E-01  0.61259609560E-01  0.51100000000E-03 0. -1.
         11    1    4    4    0    0  0.49127743445E-01 -0.34139350480E-01  0.36460560097E-01  0.70061858317E-01  0.51100000000E-03 0.  1.
</event>
<event>
 8    1  0.9956970E+004  0.1043930E+01  0.7957747E-01            NaN
         13   -1    0    0    0    0  0.00000000000E+00  0.00000000000E+00  0.74505805969E-08  0.10566000000E+00  0.10566000000E+00 0. -1.
     999900   -1    0    0    0    0 -0.00000000000E+00 -0.00000000000E+00 -0.74505805969E-08  0.93827000000E+00  0.93827000000E+00 0.  1.
     999902    2    1    2    0    0  0.16305516497E-02  0.15072335312E-01  0.15784254925E-01  0.10220444638E+01  0.10218101141E+01 0.  0.
     999903    2    3    3    0    0 -0.30315375531E-01 -0.81918559035E-01 -0.93118460900E-01  0.12947089410E+00  0.21494007302E-01 0.  0.
         14    1    1    2    0    0 -0.16305516497E-02 -0.15072335312E-01 -0.15784254925E-01  0.21885536182E-01  0.00000000000E+00 0.  1.
     999901    1    3    3    0    0  0.31945927181E-01  0.96990894347E-01  0.10890271583E+00  0.89257356972E+00  0.88000000000E+00 0. -1.
        -11    1    4    4    0    0 -0.10264746131E-01 -0.53630203565E-01 -0.49105671461E-01  0.73438354000E-01  0.51100000000E-03 0. -1.
         11    1    4    4    0    0 -0.20050629400E-01 -0.28288355470E-01 -0.44012789440E-01  0.56032540098E-01  0.51100000000E-03 0.  1.
</event>
<event>
 8    1  0.9956970E+004  0.1043930E+01  0.7957747E-01            NaN
         13   -1    0    0    0    0  0.00000000000E+00  0.00000000000E+00  0.74505805969E-08  0.10566000000E+00  0.10566000000E+00 0. -1.
     999900   -1    0    0    0    0 -0.00000000000E+00 -0.00000000000E+00 -0.74505805969E-08  0.93827000000E+00  0.93827000000E+00 0. -1.
     999902    2    1    2    0    0  0.20826313131E-01 -0.47820439506E-02 -0.12721680770E-01  0.10190614571E+01  0.10187579737E+01 0.  0.
     999903    2    3    3    0    0  0.35161135829E-01 -0.88732173058E-01 -0.88593140495E-01  0.13170043155E+00  0.19661005020E-01 0.  0.
         14    1    1    2    0    0 -0.20826313131E-01  0.47820439506E-02  0.12721680770E-01  0.24868542873E-01  0.00000000000E+00 0. -1.
     999901    1    3    3    0    0 -0.14334822697E-01  0.83950129107E-01  0.75871459725E-01  0.88736102558E+00  0.88000000000E+00 0.  1.
        -11    1    4    4    0    0  0.20241075372E-01 -0.62024408176E-01 -0.70915427089E-01  0.96363827560E-01  0.51100000000E-03 0.  1.
         11    1    4    4    0    0  0.14920060457E-01 -0.26707764882E-01 -0.17677713406E-01  0.35336603986E-01  0.51100000000E-03 0. -1.
</event>
<event>
 8    1  0.9956970E+004  0.1043930E+01  0.7957747E-01            NaN
         13   -1    0    0    0    0  0.00000000000E+00  0.00000000000E+00  0.74505805969E-08  0.10566000000E+00  0.10566000000E+00 0. -1.
     999900   -1    0    0    0    0 -0.00000000000E+00 -0.00000000000E+00 -0.74505805969E-08  0.93827000000E+00  0.93827000000E+00 0.  1.
     999902    2    1    2    0    0 -0.12042967346E-01 -0.83274596512E-02 -0.18666705897E-01  0.10202060552E+01  0.10199301788E+01 0.  0.
     999903    2    3    3    0    0  0.88732600696E-02  0.10819075585E+00  0.65482682277E-01  0.12830073365E+00  0.19726180091E-01 0.  0.
         14    1    1    2    0    0  0.12042967346E-01  0.83274596512E-02  0.18666705897E-01  0.23723944777E-01  0.00000000000E+00 0. -1.
     999901    1    3    3    0    0 -0.20916227416E-01 -0.11651821551E+00 -0.84149388174E-01  0.89190532157E+00  0.88000000000E+00 0.  1.
        -11    1    4    4    0    0 -0.14381988977E-02  0.62697249068E-01  0.29088486233E-01  0.69133310416E-01  0.51100000000E-03 0. -1.
         11    1    4    4    0    0  0.10311458967E-01  0.45493506787E-01  0.36394196044E-01  0.59167423237E-01  0.51100000000E-03 0.  1.
</event>
<event>
 8    1  0.9956970E+004  0.1043930E+01  0.7957747E-01            NaN
         13   -1    0    0    0    0  0.00000000000E+00  0.00000000000E+00  0.74505805969E-08  0.10566000000E+00  0.10566000000E+00 0.  1.
     999900   -1    0    0    0    0 -0.00000000000E+00 -0.00000000000E+00 -0.74505805969E-08  0.93827000000E+00  0.93827000000E+00 0.  1.
     999902    2    1    2    0    0 -0.18827099789E-01  0.14992635478E-01  0.42492078337E-02  0.10194903893E+01  0.10191974094E+01 0.  0.
     999903    2    3    3    0    0  0.10915810725E+00 -0.53431624303E-02  0.63667153458E-01  0.12801731051E+00  0.19770776389E-01 0.  0.
         14    1    1    2    0    0  0.18827099789E-01 -0.14992635478E-01 -0.42492078337E-02  0.24439610722E-01  0.00000000000E+00 0. -1.
     999901    1    3    3    0    0 -0.12798520704E+00  0.20335797908E-01 -0.59417945624E-01  0.89147307876E+00  0.88000000000E+00 0.  1.
        -11    1    4    4    0    0  0.36431707671E-01  0.60840259396E-02  0.15626769333E-01  0.40109122856E-01  0.51100000000E-03 0. -1.
         11    1    4    4    0    0  0.72726399578E-01 -0.11427188370E-01  0.48040384125E-01  0.87908187659E-01  0.51100000000E-03 0.  1.
</event>
<event>
 8    1  0.9956970E+004  0.1043930E+01  0.7957747E-01            NaN
         13   -1    0    0    0    0  0.00000000000E+00  0.00000000000E+00  0.74505805969E-08  0.10566000000E+00  0.10566000000E+00 0.  1.
     999900   -1    0    0    0    0 -0.00000000000E+00 -0.00000000000E+00 -0.74505805969E-08  0.93827000000E+00  0.93827000000E+00 0. -1.
     999902    2    1    2    0    0  0.30498501859E-02 -0.22579099147E-01 -0.21288036323E-02  0.10210466194E+01  0.10207901595E+01 0.  0.
     999903    2    3    3    0    0  0.19998979501E-01 -0.11408246951E+00 -0.61449746772E-01  0.13415366412E+00  0.28396569963E-01 0.  0.
         14    1    1    2    0    0 -0.30498501859E-02  0.22579099147E-01  0.21288036323E-02  0.22883380636E-01  0.00000000000E+00 0.  1.
     999901    1    3    3    0    0 -0.16949129315E-01  0.91503370368E-01  0.59320943140E-01  0.88689295525E+00  0.88000000000E+00 0.  1.
        -11    1    4    4    0    0  0.19033964115E-01 -0.56816215707E-01 -0.43786936627E-01  0.74215437056E-01  0.51100000000E-03 0. -1.
         11    1    4    4    0    0  0.96501538585E-03 -0.57266253808E-01 -0.17662810145E-01  0.59938227060E-01  0.51100000000E-03 0.  1.
</event>
<event>
 8    1  0.9956970E+004  0.1043930E+01  0.7957747E-01            NaN
         13   -1    0    0    0    0  0.00000000000E+00  0.00000000000E+00  0.74505805969E-08  0.10566000000E+00  0.10566000000E+00 0. -1.
     999900   -1    0    0    0    0 -0.00000000000E+00 -0.00000000000E+00 -0.74505805969E-08  0.93827000000E+00  0.93827000000E+00 0.  1.
     999902    2    1    2    0    0  0.30059428133E-02 -0.23763391391E-01  0.24863114873E-02  0.10198485506E+01  0.10195641960E+01 0.  0.
     999903    2    3    3    0    0 -0.15356366246E-01  0.10555153141E+00 -0.66580490424E-01  0.12753148427E+00  0.21316050451E-01 0.  0.
         14    1    1    2    0    0 -0.30059428133E-02  0.23763391391E-01 -0.24863114873E-02  0.24081449446E-01  0.00000000000E+00 0.  1.
     999901    1    3    3    0    0  0.18362309059E-01 -0.12931492281E+00  0.69066801912E-01  0.89231706628E+00  0.88000000000E+00 0.  1.
        -11    1    4    4    0    0 -0.11606558539E-01  0.79162631633E-01 -0.60175779051E-01  0.10011403475E+00  0.51100000000E-03 0.  1.
         11    1    4    4    0    0 -0.37498077070E-02  0.26388899782E-01 -0.64047113734E-02  0.27417449522E-01  0.51100000000E-03 0. -1.
</event>
<event>
 8    1  0.9956970E+004  0.1043930E+01  0.7957747E-01            NaN
         13   -1    0    0    0    0  0.00000000000E+00  0.00000000000E+00  0.74505805969E-08  0.10566000000E+00  0.10566000000E+00 0. -1.
     999900   -1    0    0    0    0 -0.00000000000E+00 -0.00000000000E+00 -0.74505805969E-08  0.93827000000E+00  0.93827000000E+00 0.  1.
     999902    2    1    2    0    0  0.18668899961E-01 -0.11161434531E-01 -0.11145267323E-01  0.10194898193E+01  0.10191968256E+01 0.  0.
     999903    2    3    3    0    0 -0.74063512585E-01 -0.82888214598E-01  0.62135835005E-01  0.12869570662E+00  0.18597389462E-01 0.  0.
         14    1    1    2    0    0 -0.18668899961E-01  0.11161434531E-01  0.11145267323E-01  0.24440180651E-01  0.00000000000E+00 0. -1.
     999901    1    3    3    0    0  0.92732412545E-01  0.71726780067E-01 -0.73281102329E-01  0.89079411273E+00  0.88000000000E+00 0. -1.
        -11    1    4    4    0    0 -0.93141735023E-02 -0.42148973714E-02  0.96988666502E-02  0.14101358913E-01  0.51100000000E-03 0. -1.
         11    1    4    4    0    0 -0.64749339083E-01 -0.78673317227E-01  0.52436968355E-01  0.11459434771E+00  0.51100000000E-03 0.  1.
</event>
<event>
 8    1  0.9956970E+004  0.1043930E+01  0.7957747E-01            NaN
         13   -1    0    0    0    0  0.00000000000E+00  0.00000000000E+00  0.74505805969E-08  0.10566000000E+00  0.10566000000E+00 0. -1.
     999900   -1    0    0    0    0 -0.00000000000E+00 -0.00000000000E+00 -0.74505805969E-08  0.93827000000E+00  0.93827000000E+00 0.  1.
     999902    2    1    2    0    0 -0.34136075020E-02 -0.12035299727E-01  0.20051076290E-01  0.10202964049E+01  0.10200226503E+01 0.  0.
     999903    2    3    3    0    0  0.79369546577E-01  0.80085246781E-01  0.62919363623E-01  0.13059030978E+00  0.19539984986E-01 0.  0.
         14    1    1    2    0    0  0.34136075020E-02  0.12035299727E-01 -0.20051076290E-01  0.23633595073E-01  0.00000000000E+00 0.  1.
     999901    1    3    3    0    0 -0.82783154079E-01 -0.92120546508E-01 -0.42868287333E-01  0.88970609515E+00  0.88000000000E+00 0.  1.
        -11    1    4    4    0    0  0.18175652283E-01  0.27081358837E-01  0.11048261961E-01  0.34439505597E-01  0.51100000000E-03 0.  1.
         11    1    4    4    0    0  0.61193894293E-01  0.53003887944E-01  0.51871101662E-01  0.96150804181E-01  0.51100000000E-03 0. -1.
</event>
<event>
 8    1  0.9956970E+004  0.1043930E+01  0.7957747E-01            NaN
         13   -1    0    0    0    0  0.00000000000E+00  0.00000000000E+00  0.74505805969E-08  0.10566000000E+00  0.10566000000E+00 0.  1.
     999900   -1    0    0    0    0 -0.00000000000E+00 -0.00000000000E+00 -0.74505805969E-08  0.93827000000E+00  0.93827000000E+00 0.  1.
     999902    2    1    2    0    0  0.22776861277E-01  0.64109983718E-02  0.88473175536E-02  0.10186681446E+01  0.10183548633E+01 0.  0.
     999903    2    3    3    0    0 -0.10737455019E+00 -0.27760553671E-01 -0.56209985272E-01  0.12606546843E+00  0.20808592429E-01 0.  0.
         14    1    1    2    0    0 -0.22776861277E-01 -0.64109983718E-02 -0.88473175536E-02  0.25261855388E-01  0.00000000000E+00 0.  1.
     999901    1    3    3    0    0  0.13015141146E+00  0.34171552043E-01  0.65057302825E-01  0.89260267618E+00  0.88000000000E+00 0.  1.
        -11    1    4    4    0    0 -0.74530339561E-01 -0.17894588912E-01 -0.27821861311E-01  0.81543270202E-01  0.51100000000E-03 0. -1.
         11    1    4    4    0    0 -0.32844210624E-01 -0.98659647593E-02 -0.28388123960E-01  0.44522198229E-01  0.51100000000E-03 0.  1.
</event>
<event>
 8    1  0.9956970E+004  0.1043930E+01  0.7957747E-01            NaN
         13   -1    0    0    0    0  0.00000000000E+00  0.00000000000E+00  0.74505805969E-08  0.10566000000E+00  0.10566000000E+00 0.  1.
     999900   -1    0    0    0    0 -0.00000000000E+00 -0.00000000000E+00 -0.74505805969E-08  0.93827000000E+00  0.93827000000E+00 0. -1.
     999902    2    1    2    0    0 -0.11739904423E-01 -0.12377368536E-01 -0.23797023483E-01  0.10146499226E+01  0.10142273623E+01 0.  0.
     999903    2    3    3    0    0 -0.71882034368E-01  0.98470215570E-02  0.98289778917E-01  0.12391079879E+00  0.20712670493E-01 0.  0.
         14    1    1    2    0    0  0.11739904423E-01  0.12377368536E-01  0.23797023483E-01  0.29280077431E-01  0.00000000000E+00 0.  1.
     999901    1    3    3    0    0  0.60142129945E-01 -0.22224390093E-01 -0.12208680240E+00  0.89073912378E+00  0.88000000000E+00 0. -1.
        -11    1    4    4    0    0 -0.27607001542E-01  0.10277116360E-01  0.26853484504E-01  0.39863973784E-01  0.51100000000E-03 0. -1.
         11    1    4    4    0    0 -0.44275032826E-01 -0.43009480351E-03  0.71436294412E-01  0.84046825006E-01  0.51100000000E-03 0.  1.
</event>
<event>
 8    1  0.9956970E+004  0.1043930E+01  0.7957747E-01            NaN
         13   -1    0    0    0    0  0.00000000000E+00  0.00000000000E+00  0.74505805969E-08  0.10566000000E+00  0.10566000000E+00 0.  1.
     999900   -1    0    0    0    0 -0.00000000000E+00 -0.00000000000E+00 -0.74505805969E-08  0.93827000000E+00  0.93827000000E+00 0.  1.
     999902    2    1    2    0    0 -0.20995168645E-01 -0.13100370459E-01  0.18422868529E-02  0.10191144639E+01  0.10188122887E+01 0.  0.
     999903    2    3    3    0    0  0.12120824184E+00 -0.28007919499E-01 -0.16596116835E-01  0.12738355171E+00  0.21800383179E-01 0.  0.
         14    1    1    2    0    0  0.20995168645E-01  0.13100370459E-01 -0.18422868529E-02  0.24815536131E-01  0.00000000000E+00 0. -1.
     999901    1    3    3    0    0 -0.14220341049E+00  0.14907549039E-01  0.18438403688E-01  0.89173091216E+00  0.88000000000E+00 0. -1.
        -11    1    4    4    0    0  0.77072629290E-01 -0.86930798907E-02 -0.16021816156E-01  0.79200502130E-01  0.51100000000E-03 0.  1.
         11    1    4    4    0    0  0.44135612552E-01 -0.19314839608E-01 -0.57430067862E-03  0.48183049579E-01  0.51100000000E-03 0. -1.
</event>
<event>
 8    1  0.9956970E+004  0.1043930E+01  0.7957747E-01            NaN
         13   -1    0    0    0    0  0.00000000000E+00  0.00000000000E+00  0.74505805969E-08  0.10566000000E+00  0.10566000000E+00 0. -1.
     999900   -1    0    0    0    0 -0.00000000000E+00 -0.00000000000E+00 -0.74505805969E-08  0.93827000000E+00  0.93827000000E+00 0.  1.
     999902    2    1    2    0    0 -0.16843950825E-01 -0.25443910097E-02 -0.15358181406E-01  0.10209938639E+01  0.10207362067E+01 0.  0.
     999903    2    3    3    0    0  0.40642382000E-02  0.12141526487E+00  0.42269841523E-01  0.13019414581E+00  0.20139302976E-01 0.  0.
         14    1    1    2    0    0  0.16843950825E-01  0.25443910097E-02  0.15358181406E-01  0.22936136141E-01  0.00000000000E+00 0. -1.
     999901    1    3    3    0    0 -0.20908189025E-01 -0.12395965588E+00 -0.57628022929E-01  0.89079971805E+00  0.88000000000E+00 0.  1.
        -11    1    4    4    0    0 -0.42735540014E-03  0.49814784039E-01  0.27645628772E-01  0.56975760220E-01  0.51100000000E-03 0.  1.
         11    1    4    4    0    0  0.44915936001E-02  0.71600480831E-01  0.14624212752E-01  0.73218385587E-01  0.51100000000E-03 0. -1.
</event>
<event>
 8    1  0.9956970E+004  0.1043930E+01  0.7957747E-01            NaN
         13   -1    0    0    0    0  0.00000000000E+00  0.00000000000E+00  0.74505805969E-08  0.10566000000E+00  0.10566000000E+00 0.  1.
     999900   -1    0    0    0    0 -0.00000000000E+00 -0.00000000000E+00 -0.74505805969E-08  0.93827000000E+00  0.93827000000E+00 0. -1.
     999902    2    1    2    0    0 -0.13932597433E-01 -0.21204578459E-01  0.21012027370E-02  0.10184708863E+01  0.10181526309E+01 0.  0.
     999903    2    3    3    0    0 -0.12214264640E+00 -0.20867846836E-01  0.37980024398E-01  0.13111705722E+00  0.19872275667E-01 0.  0.
         14    1    1    2    0    0  0.13932597433E-01  0.21204578459E-01 -0.21012027370E-02  0.25459113727E-01  0.00000000000E+00 0. -1.
     999901    1    3    3    0    0  0.10821004897E+00 -0.33673162244E-03 -0.35878821661E-01  0.88735382905E+00  0.88000000000E+00 0. -1.
        -11    1    4    4    0    0 -0.38448721599E-01 -0.15157039575E-01  0.16638297341E-01  0.44554843740E-01  0.51100000000E-03 0. -1.
         11    1    4    4    0    0 -0.83693924802E-01 -0.57108072607E-02  0.21341727057E-01  0.86562213483E-01  0.51100000000E-03 0.  1.
</event>
<event>
 8    1  0.9956970E+004  0.1043930E+01  0.7957747E-01            NaN
         13   -1    0    0    0    0  0.00000000000E+00  0.00000000000E+00  0.74505805969E-08  0.10566000000E+00  0.10566000000E+00 0. -1.
     999900   -1    0    0    0    0 -0.00000000000E+00 -0.00000000000E+00 -0.74505805969E-08  0.93827000000E+00  0.93827000000E+00 0.  1.
     999902    2    1    2    0    0 -0.20857176292E-01 -0.51009316156E-02  0.10792800599E-01  0.10198982325E+01  0.10196150640E+01 0.  0.
     999903    2    3    3    0    0 -0.12381831709E+00  0.16057029809E-01 -0.39051296484E-01  0.13224228005E+00  0.19344586364E-01 0.  0.
         14    1    1    2    0    0  0.20857176292E-01  0.51009316156E-02 -0.10792800599E-01  0.24031767538E-01  0.00000000000E+00 0.  1.
     999901    1    3    3    0    0  0.10296114080E+00 -0.21157961425E-01  0.49844097084E-01  0.88765595242E+00  0.88000000000E+00 0. -1.
        -11    1    4    4    0    0 -0.54760465915E-01  0.16085641155E-01 -0.13895296712E-01  0.58743483641E-01  0.51100000000E-03 0. -1.
         11    1    4    4    0    0 -0.69057851174E-01 -0.28611345915E-04 -0.25155999772E-01  0.73498796405E-01  0.51100000000E-03 0.  1.
</event>
<event>
 8    1  0.9956970E+004  0.1043930E+01  0.7957747E-01            NaN
         13   -1    0    0    0    0  0.00000000000E+00  0.00000000000E+00  0.74505805969E-08  0.10566000000E+00  0.10566000000E+00 0.  1.
     999900   -1    0    0    0    0 -0.00000000000E+00 -0.00000000000E+00 -0.74505805969E-08  0.93827000000E+00  0.93827000000E+00 0. -1.
     999902    2    1    2    0    0 -0.78050359127E-02 -0.12890401991E-01  0.17978501689E-01  0.10204713647E+01  0.10202016950E+01 0.  0.
     999903    2    3    3    0    0 -0.13004482224E+00  0.39736282194E-02  0.13865504971E-02  0.13170691121E+00  0.20428960449E-01 0.  0.
         14    1    1    2    0    0  0.78050359127E-02  0.12890401991E-01 -0.17978501689E-01  0.23458635341E-01  0.00000000000E+00 0. -1.
     999901    1    3    3    0    0  0.12223978633E+00 -0.16864030211E-01  0.16591951192E-01  0.88876445345E+00  0.88000000000E+00 0. -1.
        -11    1    4    4    0    0 -0.69134770955E-01  0.43664944701E-02 -0.91923909059E-02  0.69881642801E-01  0.51100000000E-03 0. -1.
         11    1    4    4    0    0 -0.60910051283E-01 -0.39286625080E-03  0.10578941403E-01  0.61825268406E-01  0.51100000000E-03 0.  1.
</event>
<event>
 8    1  0.9956970E+004  0.1043930E+01  0.7957747E-01            NaN
         13   -1    0    0    0    0  0.00000000000E+00  0.00000000000E+00  0.74505805969E-08  0.10566000000E+00  0.10566000000E+00 0. -1.
     999900   -1    0    0    0    0 -0.00000000000E+00 -0.00000000000E+00 -0.74505805969E-08  0.93827000000E+00  0.93827000000E+00 0.  1.
     999902    2    1    2    0    0 -0.19497981249E-01  0.87487931594E-02 -0.13114033502E-01  0.10188562981E+01  0.10185477238E+01 0.  0.
     999903    2    3    3    0    0 -0.58078280201E-01  0.10278433611E+00  0.52477682041E-01  0.13058078001E+00  0.18966460306E-01 0.  0.
         14    1    1    2    0    0  0.19497981249E-01 -0.87487931594E-02  0.13114033502E-01  0.25073701945E-01  0.00000000000E+00 0. -1.
     999901    1    3    3    0    0  0.38580298951E-01 -0.94035542947E-01 -0.65591715542E-01  0.88827551804E+00  0.88000000000E+00 0.  1.
        -11    1    4    4    0    0 -0.18555697486E-01  0.49957677982E-01  0.18866190240E-01  0.56535632602E-01  0.51100000000E-03 0.  1.
         11    1    4    4    0    0 -0.39522582714E-01  0.52826658124E-01  0.33611491801E-01  0.74045147411E-01  0.51100000000E-03 0. -1.
</event>
<event>
 8    1  0.9956970E+004  0.1043930E+01  0.7957747E-01            NaN
         13   -1    0    0    0    0  0.00000000000E+00  0.00000000000E+00  0.74505805969E-08  0.10566000000E+00  0.10566000000E+00 0.  1.
     999900   -1    0    0    0    0 -0.00000000000E+00 -0.00000000000E+00 -0.74505805969E-08  0.93827000000E+00  0.93827000000E+00 0. -1.
     999902    2    1    2    0    0 -0.24695640718E-01  0.17387927864E-02  0.67707817848E-02  0.10182640389E+01  0.10179405245E+01 0.  0.
     999903    2    3    3    0    0  0.80226621278E-01 -0.52091952021E-02  0.96605313532E-01  0.12746260277E+00  0.21229272857E-01 0.  0.
         14    1    1    2    0    0  0.24695640718E-01 -0.17387927864E-02 -0.67707817848E-02  0.25665961053E-01  0.00000000000E+00 0.  1.
     999901    1    3    3    0    0 -0.10492226200E+00  0.69479879885E-02 -0.89834531747E-01  0.89080143618E+00  0.88000000000E+00 0.  1.
        -11    1    4    4    0    0  0.10444212821E-02 -0.15542020743E-02  0.94670071110E-02  0.96639383557E-02  0.51100000000E-03 0.  1.
         11    1    4    4    0    0  0.79182199996E-01 -0.36549931278E-02  0.87138306421E-01  0.11779866441E+00  0.51100000000E-03 0. -1.
</event>
<event>
 8    1  0.9956970E+004  0.1043930E+01  0.7957747E-01            NaN
         13   -1    0    0    0    0  0.00000000000E+00  0.00000000000E+00  0.74505805969E-08  0.10566000000E+00  0.10566000000E+00 0. -1.
     999900   -1    0    0    0    0 -0.00000000000E+00 -0.00000000000E+00 -0.74505805969E-08  0.93827000000E+00  0.93827000000E+00 0.  1.
     999902    2    1    2    0    0  0.22201913292E-02  0.19064847867E-01 -0.13658984746E-01  0.10203722934E+01  0.10201003145E+01 0.  0.
     999903    2    3    3    0    0 -0.33437147331E-01  0.24445684626E-01 -0.12457379603E+00  0.13267724752E+00  0.19209035182E-01 0.  0.
         14    1    1    2    0    0 -0.22201913292E-02 -0.19064847867E-01  0.13658984746E-01  0.23557706553E-01  0.00000000000E+00 0. -1.
     999901    1    3    3    0    0  0.35657338661E-01 -0.53808367589E-02  0.11091481129E+00  0.88769504593E+00  0.88000000000E+00 0. -1.
        -11    1    4    4    0    0 -0.29752035955E-01  0.13606310111E-01 -0.10516707411E+00  0.11013941127E+00  0.51100000000E-03 0. -1.
         11    1    4    4    0    0 -0.36851113762E-02  0.10839374515E-01 -0.19406721924E-01  0.22537836244E-01  0.51100000000E-03 0.  1.
</event>
<event>
 8    1  0.9956970E+004  0.1043930E+01  0.7957747E-01            NaN
         13   -1    0    0    0    0  0.00000000000E+00  0.00000000000E+00  0.74505805969E-08  0.10566000000E+00  0.10566000000E+00 0. -1.
     999900   -1    0    0    0    0 -0.00000000000E+00 -0.00000000000E+00 -0.74505805969E-08  0.93827000000E+00  0.93827000000E+00 0. -1.
     999902    2    1    2    0    0  0.16284244625E-01  0.70686958326E-02 -0.14964619232E-01  0.10207118409E+01  0.10204477347E+01 0.  0.
     999903    2    3    3    0    0  0.14513906983E-02 -0.61411958845E-01  0.11141738670E+00  0.12892597811E+00  0.20845588243E-01 0.  0.
         14    1    1    2    0    0 -0.16284244625E-01 -0.70686958326E-02  0.14964619232E-01  0.23218159112E-01  0.00000000000E+00 0.  1.
     999901    1    3    3    0    0  0.14832853927E-01  0.68480654677E-01 -0.12638200593E+00  0.89178586277E+00  0.88000000000E+00 0. -1.
        -11    1    4    4    0    0  0.77937103285E-03 -0.23334739029E-01  0.63867755112E-01  0.68003446448E-01  0.51100000000E-03 0. -1.
         11    1    4    4    0    0  0.67201966540E-03 -0.38077219815E-01  0.47549631589E-01  0.60922531666E-01  0.51100000000E-03 0.  1.
</event>
<event>
 8    1  0.9956970E+004  0.1043930E+01  0.7957747E-01            NaN
         13   -1    0    0    0    0  0.00000000000E+00  0.00000000000E+00  0.74505805969E-08  0.10566000000E+00  0.10566000000E+00 0. -1.
     999900   -1    0    0    0    0 -0.00000000000E+00 -0.00000000000E+00 -0.74505805969E-08  0.93827000000E+00  0.93827000000E+00 0. -1.
     999902    2    1    2    0    0  0.42829491409E-02  0.22038900695E-01  0.10420251845E-01  0.10191784658E+01  0.10188778664E+01 0.  0.
     999903    2    3    3    0    0 -0.21003880184E-01  0.55654631548E-01  0.11543542165E+00  0.13193688257E+00  0.23311014895E-01 0.  0.
         14    1    1    2    0    0 -0.42829491409E-02 -0.22038900695E-01 -0.10420251845E-01  0.24751534209E-01  0.00000000000E+00 0.  1.
     999901    1    3    3    0    0  0.25286829325E-01 -0.33615730853E-01 -0.10501516981E+00  0.88724158322E+00  0.88000000000E+00 0. -1.
        -11    1    4    4    0    0 -0.10309852428E-01  0.43693343053E-01  0.64919386954E-01  0.78931547607E-01  0.51100000000E-03 0.  1.
         11    1    4    4    0    0 -0.10694027756E-01  0.11961288495E-01  0.50516034701E-01  0.53005334967E-01  0.51100000000E-03 0. -1.
</event>
<event>
 8    1  0.9956970E+004  0.1043930E+01  0.7957747E-01            NaN
         13   -1    0    0    0    0  0.00000000000E+00  0.00000000000E+00  0.74505805969E-08  0.10566000000E+00  0.10566000000E+00 0. -1.
     999900   -1    0    0    0    0 -0.00000000000E+00 -0.00000000000E+00 -0.74505805969E-08  0.93827000000E+00  0.93827000000E+00 0.  1.
     999902    2    1    2    0    0  0.14944702628E-01 -0.93791483269E-02  0.16387897523E-01  0.10198493907E+01  0.10195650562E+01 0.  0.
     999903    2    3    3    0    0 -0.85941836446E-01  0.89380200678E-01 -0.18581961405E-01  0.12791083124E+00  0.25319398372E-01 0.  0.
         14    1    1    2    0    0 -0.14944702628E-01  0.93791483269E-02 -0.16387897523E-01  0.24080609320E-01  0.00000000000E+00 0.  1.
     999901    1    3    3    0    0  0.10088653907E+00 -0.98759349005E-01  0.34969858928E-01  0.89193855944E+00  0.88000000000E+00 0.  1.
        -11    1    4    4    0    0 -0.19322085700E-01  0.34945930308E-01 -0.11649919444E-01  0.41599793088E-01  0.51100000000E-03 0.  1.
         11    1    4    4    0    0 -0.66619750746E-01  0.54434270370E-01 -0.69320419605E-02  0.86311038153E-01  0.51100000000E-03 0. -1.
</event>
<event>
 8    1  0.9956970E+004  0.1043930E+01  0.7957747E-01            NaN
         13   -1    0    0    0    0  0.00000000000E+00  0.00000000000E+00  0.74505805969E-08  0.10566000000E+00  0.10566000000E+00 0. -1.
     999900   -1    0    0    0    0 -0.00000000000E+00 -0.00000000000E+00 -0.74505805969E-08  0.93827000000E+00  0.93827000000E+00 0. -1.
     999902    2    1    2    0    0  0.16032725981E-02 -0.16894795545E-01 -0.16497455081E-01  0.10202620761E+01  0.10199875162E+01 0.  0.
     999903    2    3    3    0    0 -0.12933104066E-01 -0.13993331588E-01 -0.13002010874E+00  0.13284609827E+00  0.19487910079E-01 0.  0.
         14    1    1    2    0    0 -0.16032725981E-02  0.16894795545E-01  0.16497455081E-01  0.23667923941E-01  0.00000000000E+00 0. -1.
     999901    1    3    3    0    0  0.14536376664E-01 -0.29014639573E-02  0.11352265366E+00  0.88741597779E+00  0.88000000000E+00 0.  1.
        -11    1    4    4    0    0  0.14653254700E-02 -0.12574440225E-01 -0.66620674398E-01  0.67814741052E-01  0.51100000000E-03 0. -1.
         11    1    4    4    0    0 -0.14398429536E-01 -0.14188913628E-02 -0.63399434342E-01  0.65031357219E-01  0.51100000000E-03 0.  1.
</event>
<event>
 8    1  0.9956970E+004  0.1043930E+01  0.7957747E-01            NaN
         13   -1    0    0    0    0  0.00000000000E+00  0.00000000000E+00  0.74505805969E-08  0.10566000000E+00  0.10566000000E+00 0.  1.
     999900   -1    0    0    0    0 -0.00000000000E+00 -0.00000000000E+00 -0.74505805969E-08  0.93827000000E+00  0.93827000000E+00 0.  1.
     999902    2    1    2    0    0  0.16269736587E-01 -0.14127158312E-01 -0.10208173726E-01  0.10200870190E+01  0.10198083343E+01 0.  0.
     999903    2    3    3    0    0 -0.86498072235E-01 -0.51378729726E-01  0.78190754450E-01  0.12892863097E+00  0.19675045995E-01 0.  0.
         14    1    1    2    0    0 -0.16269736587E-01  0.14127158312E-01  0.10208173726E-01  0.23842980967E-01  0.00000000000E+00 0.  1.
     999901    1    3    3    0    0  0.10276780882E+00  0.37251571414E-01 -0.88398928177E-01  0.89115838806E+00  0.88000000000E+00 0.  1.
        -11    1    4    4    0    0 -0.34709853625E-01 -0.99012681511E-02  0.29702800549E-01  0.46747476201E-01  0.51100000000E-03 0. -1.
         11    1    4    4    0    0 -0.51788218610E-01 -0.41477461575E-01  0.48487953902E-01  0.82181154774E-01  0.51100000000E-03 0.  1.
</event>
<event>
 8    1  0.9956970E+004  0.1043930E+01  0.7957747E-01            NaN
         13   -1    0    0    0    0  0.00000000000E+00  0.00000000000E+00  0.74505805969E-08  0.10566000000E+00  0.10566000000E+00 0.  1.
     999900   -1    0    0    0    0 -0.00000000000E+00 -0.00000000000E+00 -0.74505805969E-08  0.93827000000E+00  0.93827000000E+00 0. -1.
     999902    2    1    2    0    0  0.19763869272E-01  0.12474735876E-01 -0.23818344713E-02  0.10204373905E+01  0.10201669301E+01 0.  0.
     999903    2    3    3    0    0  0.21760878724E-01 -0.12429001259E+00 -0.22221958266E-01  0.12964997764E+00  0.19843341455E-01 0.  0.
         14    1    1    2    0    0 -0.19763869272E-01 -0.12474735876E-01  0.23818344713E-02  0.23492609459E-01  0.00000000000E+00 0. -1.
     999901    1    3    3    0    0 -0.19970094527E-02  0.13676474847E+00  0.19840123795E-01  0.89078741290E+00  0.88000000000E+00 0. -1.
        -11    1    4    4    0    0  0.14771564575E-01 -0.10287190228E+00 -0.11099855277E-01  0.10451935374E+00  0.51100000000E-03 0.  1.
         11    1    4    4    0    0  0.69893141489E-02 -0.21418110315E-01 -0.11122102989E-01  0.25130623900E-01  0.51100000000E-03 0. -1.
</event>
<event>
 7    1  0.9956970E+004  0.1043930E+01  0.7957747E-01            NaN
         13   -1    0    0    0    0  0.00000000000E+00  0.00000000000E+00  0.74505805969E-08  0.10566000000E+00  0.10566000000E+00 0. -1.
     999900   -1    0    0    0    0 -0.00000000000E+00 -0.00000000000E+00 -0.74505805969E-08  0.93827000000E+00  0.93827000000E+00 0. -1.
     999902    2    1    2    0    0  0.18678899795E-01 -0.51062319368E-02 -0.13898350215E-01  0.10200943326E+01  0.10198158208E+01 0.  0.
         14    1    1    2    0    0 -0.18678899795E-01  0.51062319368E-02  0.13898350215E-01  0.23835667409E-01  0.00000000000E+00 0.  1.
     999901    1    3    3    0    0  0.11754235623E+00  0.41663859963E-01  0.14805891786E-01  0.88891579869E+00  0.88000000000E+00 0.  1.
        -11    1    3    3    0    0 -0.79299195701E-01 -0.46362243240E-01  0.52248331960E-02  0.92007499912E-01  0.51100000000E-03 0.  1.
         11    1    3    3    0    0 -0.19564260738E-01 -0.40784865943E-03 -0.33929075197E-01  0.39171033985E-01  0.51100000000E-03 0. -1.
</event>
<event>
 8    1  0.9956970E+004  0.1043930E+01  0.7957747E-01            NaN
         13   -1    0    0    0    0  0.00000000000E+00  0.00000000000E+00  0.74505805969E-08  0.10566000000E+00  0.10566000000E+00 0. -1.
     999900   -1    0    0    0    0 -0.00000000000E+00 -0.00000000000E+00 -0.74505805969E-08  0.93827000000E+00  0.93827000000E+00 0.  1.
     999902    2    1    2    0    0 -0.17702949785E-01  0.15801089035E-01  0.22590585027E-02  0.10200936372E+01  0.10198151090E+01 0.  0.
     999903    2    3    3    0    0 -0.11354953556E+00  0.24668364711E-02  0.65156877008E-01  0.13255743746E+00  0.20651229883E-01 0.  0.
         14    1    1    2    0    0  0.17702949785E-01 -0.15801089035E-01 -0.22590585027E-02  0.23836362791E-01  0.00000000000E+00 0. -1.
     999901    1    3    3    0    0  0.95846585775E-01  0.13334252564E-01 -0.62897818506E-01  0.88753619975E+00  0.88000000000E+00 0.  1.
        -11    1    4    4    0    0 -0.86896096697E-01 -0.39650664294E-03  0.39525656839E-01  0.95465320972E-01  0.51100000000E-03 0.  1.
         11    1    4    4    0    0 -0.26653438863E-01  0.28633431141E-02  0.25631220169E-01  0.37092116485E-01  0.51100000000E-03 0. -1.
</event>
<event>
 8    1  0.9956970E+004  0.1043930E+01  0.7957747E-01            NaN
         13   -1    0    0    0    0  0.00000000000E+00  0.00000000000E+00  0.74505805969E-08  0.10566000000E+00  0.10566000000E+00 0. -1.
     999900   -1    0    0    0    0 -0.00000000000E+00 -0.00000000000E+00 -0.74505805969E-08  0.93827000000E+00  0.93827000000E+00 0.  1.
     999902    2    1    2    0    0 -0.14634878654E-01  0.10953085443E-01  0.15012417676E-01  0.10202757733E+01  0.10200015349E+01 0.  0.
     999903    2    3    3    0    0  0.12046257995E+00  0.97583012928E-02  0.41858004058E-01  0.12956064698E+00  0.20673923906E-01 0.  0.
         14    1    1    2    0    0  0.14634878654E-01 -0.10953085443E-01 -0.15012417676E-01  0.23654226650E-01  0.00000000000E+00 0.  1.
     999901    1    3    3    0    0 -0.13509745861E+00  0.11947841501E-02 -0.26845586382E-01  0.89071512637E+00  0.88000000000E+00 0.  1.
        -11    1    4    4    0    0  0.64376839885E-01 -0.46832376296E-02  0.25218125385E-01  0.69300253947E-01  0.51100000000E-03 0. -1.
         11    1    4    4    0    0  0.56085740069E-01  0.14441538922E-01  0.16639878673E-01  0.60260393035E-01  0.51100000000E-03 0.  1.
</event>
<event>
 8    1  0.9956970E+004  0.1043930E+01  0.7957747E-01            NaN
         13   -1    0    0    0    0  0.00000000000E+00  0.00000000000E+00  0.74505805969E-08  0.10566000000E+00  0.10566000000E+00 0. -1.
     999900   -1    0    0    0    0 -0.00000000000E+00 -0.00000000000E+00 -0.74505805969E-08  0.93827000000E+00  0.93827000000E+00 0.  1.
     999902    2    1    2    0    0  0.44222655473E-02  0.72598425557E-02  0.21287655920E-01  0.10210078264E+01  0.10207504865E+01 0.  0.
     999903    2    3    3    0    0 -0.85711485472E-01  0.22361517641E-01  0.97202354741E-01  0.13302404552E+00  0.20015061996E-01 0.  0.
         14    1    1    2    0    0 -0.44222655473E-02 -0.72598425557E-02 -0.21287655920E-01  0.22922173568E-01  0.00000000000E+00 0.  1.
     999901    1    3    3    0    0  0.90133751019E-01 -0.15101675085E-01 -0.75914698821E-01  0.88798378091E+00  0.88000000000E+00 0.  1.
        -11    1    4    4    0    0 -0.15394730891E-01 -0.14800546167E-02  0.25351001535E-01  0.29700550512E-01  0.51100000000E-03 0.  1.
         11    1    4    4    0    0 -0.70316754580E-01  0.23841572258E-01  0.71851353206E-01  0.10332349501E+00  0.51100000000E-03 0. -1.
</event>
<event>
 8    1  0.9956970E+004  0.1043930E+01  0.7957747E-01            NaN
         13   -1    0    0    0    0  0.00000000000E+00  0.00000000000E+00  0.74505805969E-08  0.10566000000E+00  0.10566000000E+00 0. -1.
     999900   -1    0    0    0    0 -0.00000000000E+00 -0.00000000000E+00 -0.74505805969E-08  0.93827000000E+00  0.93827000000E+00 0.  1.
     999902    2    1    2    0    0  0.10937377355E-01  0.19517254758E-01  0.47166576333E-02  0.10210652604E+01  0.10208092230E+01 0.  0.
     999903    2    3    3    0    0 -0.82183196138E-01  0.85928887712E-01 -0.53455441312E-01  0.13175882320E+00  0.19106329140E-01 0.  0.
         14    1    1    2    0    0 -0.10937377355E-01 -0.19517254758E-01 -0.47166576333E-02  0.22864739577E-01  0.00000000000E+00 0. -1.
     999901    1    3    3    0    0  0.93120573493E-01 -0.66411632954E-01  0.58172098945E-01  0.88930643723E+00  0.88000000000E+00 0.  1.
        -11    1    4    4    0    0 -0.32699411167E-01  0.22170122575E-01 -0.21238806267E-01  0.44856591916E-01  0.51100000000E-03 0. -1.
         11    1    4    4    0    0 -0.49483784971E-01  0.63758765136E-01 -0.32216635045E-01  0.86902231280E-01  0.51100000000E-03 0.  1.
</event>
<event>
 8    1  0.9956970E+004  0.1043930E+01  0.7957747E-01            NaN
         13   -1    0    0    0    0  0.00000000000E+00  0.00000000000E+00  0.74505805969E-08  0.10566000000E+00  0.10566000000E+00 0.  1.
     999900   -1    0    0    0    0 -0.00000000000E+00 -0.00000000000E+00 -0.74505805969E-08  0.93827000000E+00  0.93827000000E+00 0.  1.
     999902    2    1    2    0    0  0.30207881878E-02  0.24902791655E-01 -0.38532683788E-02  0.10185504438E+01  0.10182341994E+01 0.  0.
     999903    2    3    3    0    0  0.10750035101E+00  0.20291824870E-01  0.66468359746E-01  0.12957216996E+00  0.20070394982E-01 0.  0.
         14    1    1    2    0    0 -0.30207881878E-02 -0.24902791655E-01  0.38532683788E-02  0.25379556157E-01  0.00000000000E+00 0. -1.
     999901    1    3    3    0    0 -0.10447956283E+00  0.46109667856E-02 -0.70321628125E-01  0.88897827389E+00  0.88000000000E+00 0.  1.
        -11    1    4    4    0    0  0.99318072564E-01  0.12960619020E-01  0.61185140880E-01  0.11737094942E+00  0.51100000000E-03 0. -1.
         11    1    4    4    0    0  0.81822784504E-02  0.73312058503E-02  0.52832188665E-02  0.12201220531E-01  0.51100000000E-03 0.  1.
</event>
<event>
 8    1  0.9956970E+004  0.1043930E+01  0.7957747E-01            NaN
         13   -1    0    0    0    0  0.00000000000E+00  0.00000000000E+00  0.74505805969E-08  0.10566000000E+00  0.10566000000E+00 0. -1.
     999900   -1    0    0    0    0 -0.00000000000E+00 -0.00000000000E+00 -0.74505805969E-08  0.93827000000E+00  0.93827000000E+00 0.  1.
     999902    2    1    2    0    0  0.90137251119E-02  0.85853888561E-02  0.19187038038E-01  0.10210586517E+01  0.10208024646E+01 0.  0.
     999903    2    3    3    0    0 -0.87424549940E-01 -0.78675821659E-01  0.53628853693E-01  0.13083334408E+00  0.20208244049E-01 0.  0.
         14    1    1    2    0    0 -0.90137251119E-02 -0.85853888561E-02 -0.19187038038E-01  0.22871348252E-01  0.00000000000E+00 0.  1.
     999901    1    3    3    0    0  0.96438275052E-01  0.87261210515E-01 -0.34441815656E-01  0.89022530767E+00  0.88000000000E+00 0.  1.
        -11    1    4    4    0    0 -0.14944634863E-01 -0.47382860508E-02  0.51779048247E-02  0.16518634485E-01  0.51100000000E-03 0. -1.
         11    1    4    4    0    0 -0.72479915077E-01 -0.73937535608E-01  0.48450948869E-01  0.11431470959E+00  0.51100000000E-03 0.  1.
</event>
<event>
 8    1  0.9956970E+004  0.1043930E+01  0.7957747E-01            NaN
         13   -1    0    0    0    0  0.00000000000E+00  0.00000000000E+00  0.74505805969E-08  0.10566000000E+00  0.10566000000E+00 0.  1.
     999900   -1    0    0    0    0 -0.00000000000E+00 -0.00000000000E+00 -0.74505805969E-08  0.93827000000E+00  0.93827000000E+00 0.  1.
     999902    2    1    2    0    0 -0.59203928604E-02  0.22607971698E-01 -0.29248339488E-02  0.10203773762E+01  0.10201055160E+01 0.  0.
     999903    2    3    3    0    0  0.11261464149E+00  0.63134891086E-01  0.14157382511E-01  0.13134150080E+00  0.19547030550E-01 0.  0.
         14    1    1    2    0    0  0.59203928604E-02 -0.22607971698E-01  0.29248339488E-02  0.23552623836E-01  0.00000000000E+00 0.  1.
     999901    1    3    3    0    0 -0.11853503435E+00 -0.40526919388E-01 -0.17082216460E-01  0.88903587536E+00  0.88000000000E+00 0.  1.
        -11    1    4    4    0    0  0.77055812369E-01  0.50629755175E-01  0.16087322619E-01  0.93595050077E-01  0.51100000000E-03 0. -1.
         11    1    4    4    0    0  0.35558829119E-01  0.12505135912E-01 -0.19299401079E-02  0.37746450725E-01  0.51100000000E-03 0.  1.
</event>
<event>
 7    1  0.9956970E+004  0.1043930E+01  0.7957747E-01            NaN
         13   -1    0    0    0    0  0.00000000000E+00  0.00000000000E+00  0.74505805969E-08  0.10566000000E+00  0.10566000000E+00 0.  1.
     999900   -1    0    0    0    0 -0.00000000000E+00 -0.00000000000E+00 -0.74505805969E-08  0.93827000000E+00  0.93827000000E+00 0. -1.
     999903    2    1    2    0    0  0.69592718366E-01 -0.90593004794E-01  0.10583139591E-02  0.11597499151E+00  0.19970970417E-01 0.  0.
         14    1    1    2    0    0  0.17970300610E-01  0.30932124980E-01  0.20702923755E-01  0.41332059128E-01  0.00000000000E+00 0. -1.
     999901    1    1    2    0    0 -0.87563018977E-01  0.59660879815E-01 -0.21761237714E-01  0.88662294936E+00  0.88000000000E+00 0. -1.
        -11    1    3    3    0    0  0.21542806371E-01 -0.15426541867E-01  0.34771799540E-02  0.26728684999E-01  0.51100000000E-03 0.  1.
         11    1    3    3    0    0  0.48049911995E-01 -0.75166462927E-01 -0.24188659949E-02  0.89246306509E-01  0.51100000000E-03 0. -1.
</event>
<event>
 8    1  0.9956970E+004  0.1043930E+01  0.7957747E-01            NaN
         13   -1    0    0    0    0  0.00000000000E+00  0.00000000000E+00  0.74505805969E-08  0.10566000000E+00  0.10566000000E+00 0.  1.
     999900   -1    0    0    0    0 -0.00000000000E+00 -0.00000000000E+00 -0.74505805969E-08  0.93827000000E+00  0.93827000000E+00 0.  1.
     999902    2    1    2    0    0  0.22512734900E-02 -0.13005778688E-03  0.23982639496E-01  0.10198415765E+01  0.10195570553E+01 0.  0.
     999903    2    3    3    0    0  0.10444453320E+00  0.63947308178E-01  0.43305095214E-01  0.13140321152E+00  0.19838195165E-01 0.  0.
         14    1    1    2    0    0 -0.22512734900E-02  0.13005778688E-03 -0.23982639496E-01  0.24088423455E-01  0.00000000000E+00 0. -1.
     999901    1    3    3    0    0 -0.10219325971E+00 -0.64077365965E-01 -0.19322455718E-01  0.88843836503E+00  0.88000000000E+00 0. -1.
        -11    1    4    4    0    0  0.32918582847E-01  0.19813860275E-01  0.40422100959E-02  0.38637064317E-01  0.51100000000E-03 0.  1.
         11    1    4    4    0    0  0.71525950351E-01  0.44133447903E-01  0.39262885118E-01  0.92766147200E-01  0.51100000000E-03 0. -1.
</event>
<event>
 8    1  0.9956970E+004  0.1043930E+01  0.7957747E-01            NaN
         13   -1    0    0    0    0  0.00000000000E+00  0.00000000000E+00  0.74505805969E-08  0.10566000000E+00  0.10566000000E+00 0. -1.
     999900   -1    0    0    0    0 -0.00000000000E+00 -0.00000000000E+00 -0.74505805969E-08  0.93827000000E+00  0.93827000000E+00 0. -1.
     999902    2    1    2    0    0 -0.28971014775E-02  0.24078457140E-01  0.78081918649E-02  0.10184519083E+01  0.10181331722E+01 0.  0.
     999903    2    3    3    0    0  0.11304276939E+00 -0.49646460776E-01 -0.23155066196E-01  0.12725263738E+00  0.20338088672E-01 0.  0.
         14    1    1    2    0    0  0.28971014775E-02 -0.24078457140E-01 -0.78081918649E-02  0.25478091675E-01  0.00000000000E+00 0.  1.
     999901    1    3    3    0    0 -0.11593987087E+00  0.73724917915E-01  0.30963258061E-01  0.89119927094E+00  0.88000000000E+00 0.  1.
        -11    1    4    4    0    0  0.82029868635E-01 -0.37283378313E-01 -0.25885099058E-01  0.93750995306E-01  0.51100000000E-03 0. -1.
         11    1    4    4    0    0  0.31012900757E-01 -0.12363082463E-01  0.27300328623E-02  0.33501642076E-01  0.51100000000E-03 0.  1.
</event>
<event>
 8    1  0.9956970E+004  0.1043930E+01  0.7957747E-01            NaN
         13   -1    0    0    0    0  0.00000000000E+00  0.00000000000E+00  0.74505805969E-08  0.10566000000E+00  0.10566000000E+00 0.  1.
     999900   -1    0    0    0    0 -0.00000000000E+00 -0.00000000000E+00 -0.74505805969E-08  0.93827000000E+00  0.93827000000E+00 0. -1.
     999902    2    1    2    0    0  0.10756673948E-01 -0.72764441368E-02  0.19523991211E-01  0.10204813560E+01  0.10202119187E+01 0.  0.
     999903    2    3    3    0    0  0.97423921587E-01  0.81898918131E-01 -0.22901729639E-01  0.13072667134E+00  0.19134264816E-01 0.  0.
         14    1    1    2    0    0 -0.10756673948E-01  0.72764441368E-02 -0.19523991211E-01  0.23448644023E-01  0.00000000000E+00 0. -1.
     999901    1    3    3    0    0 -0.86667247640E-01 -0.89175362268E-01  0.42425720850E-01  0.88975468464E+00  0.88000000000E+00 0.  1.
        -11    1    4    4    0    0  0.26533928741E-01  0.18527370453E-01  0.20150207807E-02  0.32428910868E-01  0.51100000000E-03 0. -1.
         11    1    4    4    0    0  0.70889992846E-01  0.63371547678E-01 -0.24916750419E-01  0.98297760469E-01  0.51100000000E-03 0.  1.
</event>
<event>
 8    1  0.9956970E+004  0.1043930E+01  0.7957747E-01            NaN
         13   -1    0    0    0    0  0.00000000000E+00  0.00000000000E+00  0.74505805969E-08  0.10566000000E+00  0.10566000000E+00 0. -1.
     999900   -1    0    0    0    0 -0.00000000000E+00 -0.00000000000E+00 -0.74505805969E-08  0.93827000000E+00  0.93827000000E+00 0. -1.
     999902    2    1    2    0    0  0.28357662063E-02 -0.21341305107E-01  0.10100563463E-01  0.10201494564E+01  0.10198722464E+01 0.  0.
     999903    2    3    3    0    0 -0.12637097293E+00 -0.26541253543E-01  0.17586317067E-02  0.13066027220E+00  0.19873424642E-01 0.  0.
         14    1    1    2    0    0 -0.28357662063E-02  0.21341305107E-01 -0.10100563463E-01  0.23780543642E-01  0.00000000000E+00 0.  1.
     999901    1    3    3    0    0  0.12920673914E+00  0.51999484362E-02  0.83419317568E-02  0.88948918415E+00  0.88000000000E+00 0.  1.
        -11    1    4    4    0    0 -0.96368851675E-01 -0.14758056645E-01 -0.53807653233E-02  0.97642048143E-01  0.51100000000E-03 0. -1.
         11    1    4    4    0    0 -0.30002121258E-01 -0.11783196898E-01  0.71393970300E-02  0.33018224060E-01  0.51100000000E-03 0.  1.
</event>
<event>
 8    1  0.9956970E+004  0.1043930E+01  0.7957747E-01            NaN
         13   -1    0    0    0    0  0.00000000000E+00  0.00000000000E+00  0.74505805969E-08  0.10566000000E+00  0.10566000000E+00 0.  1.
     999900   -1    0    0    0    0 -0.00000000000E+00 -0.00000000000E+00 -0.74505805969E-08  0.93827000000E+00  0.93827000000E+00 0.  1.
     999902    2    1    2    0    0 -0.22861053475E-02  0.20411548426E-01  0.11992507697E-01  0.10201460174E+01  0.10198687264E+01 0.  0.
     999903    2    3    3    0    0 -0.10288754716E+00 -0.62836552981E-01 -0.40724642344E-01  0.12895019472E+00  0.20865676876E-01 0.  0.
         14    1    1    2    0    0  0.22861053475E-02 -0.20411548426E-01 -0.11992507697E-01  0.23783982586E-01  0.00000000000E+00 0. -1.
     999901    1    3    3    0    0  0.10060144182E+00  0.83248101407E-01  0.52717150041E-01  0.89119582270E+00  0.88000000000E+00 0. -1.
        -11    1    4    4    0    0 -0.81808697789E-01 -0.56807343060E-01 -0.27439343523E-01  0.10330980570E+00  0.51100000000E-03 0. -1.
         11    1    4    4    0    0 -0.21078849375E-01 -0.60292099211E-02 -0.13285298821E-01  0.25640389018E-01  0.51100000000E-03 0.  1.
</event>
<event>
 8    1  0.9956970E+004  0.1043930E+01  0.7957747E-01            NaN
         13   -1    0    0    0    0  0.00000000000E+00  0.00000000000E+00  0.74505805969E-08  0.10566000000E+00  0.10566000000E+00 0. -1.
     999900   -1    0    0    0    0 -0.00000000000E+00 -0.00000000000E+00 -0.74505805969E-08  0.93827000000E+00  0.93827000000E+00 0.  1.
     999902    2    1    2    0    0 -0.19642506762E-01 -0.10729510818E-01 -0.70276587177E-02  0.10204707063E+01  0.10202010213E+01 0.  0.
     999903    2    3    3    0    0 -0.82310524208E-01  0.21371596252E-01 -0.10004102852E+00  0.13277185620E+00  0.19707635331E-01 0.  0.
         14    1    1    2    0    0  0.19642506762E-01  0.10729510818E-01  0.70276587177E-02  0.23459293709E-01  0.00000000000E+00 0.  1.
     999901    1    3    3    0    0  0.62668017446E-01 -0.32101107070E-01  0.93013369803E-01  0.88769885009E+00  0.88000000000E+00 0. -1.
        -11    1    4    4    0    0 -0.11761377710E-01 -0.99758213812E-03 -0.23481467051E-01  0.26286224370E-01  0.51100000000E-03 0. -1.
         11    1    4    4    0    0 -0.70549146497E-01  0.22369178390E-01 -0.76559561469E-01  0.10648563183E+00  0.51100000000E-03 0.  1.
</event>
<event>
 8    1  0.9956970E+004  0.1043930E+01  0.7957747E-01            NaN
         13   -1    0    0    0    0  0.00000000000E+00  0.00000000000E+00  0.74505805969E-08  0.10566000000E+00  0.10566000000E+00 0.  1.
     999900   -1    0    0    0    0 -0.00000000000E+00 -0.00000000000E+00 -0.74505805969E-08  0.93827000000E+00  0.93827000000E+00 0.  1.
     999902    2    1    2    0    0 -0.17661201080E-01  0.11985836702E-01  0.98244334256E-02  0.10204332386E+01  0.10201626814E+01 0.  0.
     999903    2    3    3    0    0 -0.55627497912E-01 -0.10927430606E+00  0.39368360318E-01  0.13081629543E+00  0.22972654803E-01 0.  0.
         14    1    1    2    0    0  0.17661201080E-01 -0.11985836702E-01 -0.98244334256E-02  0.23496761419E-01  0.00000000000E+00 0. -1.
     999901    1    3    3    0    0  0.37966296833E-01  0.12126014276E+00 -0.29543926892E-01  0.88961694315E+00  0.88000000000E+00 0.  1.
        -11    1    4    4    0    0 -0.22736392196E-01 -0.34326302726E-01  0.23606372597E-01  0.47463254599E-01  0.51100000000E-03 0.  1.
         11    1    4    4    0    0 -0.32891105716E-01 -0.74948003332E-01  0.15761987721E-01  0.83353040836E-01  0.51100000000E-03 0. -1.
</event>
<event>
 8    1  0.9956970E+004  0.1043930E+01  0.7957747E-01            NaN
         13   -1    0    0    0    0  0.00000000000E+00  0.00000000000E+00  0.74505805969E-08  0.10566000000E+00  0.10566000000E+00 0. -1.
     999900   -1    0    0    0    0 -0.00000000000E+00 -0.00000000000E+00 -0.74505805969E-08  0.93827000000E+00  0.93827000000E+00 0. -1.
     999902    2    1    2    0    0 -0.13406535767E-01  0.96293279230E-02  0.17349923020E-01  0.10199825787E+01  0.10197014180E+01 0.  0.
     999903    2    3    3    0    0 -0.69256480929E-01 -0.42433537908E-01  0.10277827553E+00  0.13255496939E+00  0.20257855234E-01 0.  0.
         14    1    1    2    0    0  0.13406535767E-01 -0.96293279230E-02 -0.17349923020E-01  0.23947421287E-01  0.00000000000E+00 0.  1.
     999901    1    3    3    0    0  0.55849945162E-01  0.52062865831E-01 -0.85428352513E-01  0.88742760932E+00  0.88000000000E+00 0. -1.
        -11    1    4    4    0    0 -0.61280752017E-01 -0.43524393604E-01  0.88117043651E-01  0.11582131889E+00  0.51100000000E-03 0. -1.
         11    1    4    4    0    0 -0.79757289125E-02  0.10908556966E-02  0.14661231882E-01  0.16733650503E-01  0.51100000000E-03 0.  1.
</event>
<event>
 8    1  0.9956970E+004  0.1043930E+01  0.7957747E-01            NaN
         13   -1    0    0    0    0  0.00000000000E+00  0.00000000000E+00  0.74505805969E-08  0.10566000000E+00  0.10566000000E+00 0.  1.
     999900   -1    0    0    0    0 -0.00000000000E+00 -0.00000000000E+00 -0.74505805969E-08  0.93827000000E+00  0.93827000000E+00 0. -1.
     999902    2    1    2    0    0  0.39434633742E-02 -0.12325426279E-01  0.22664064208E-01  0.10178315931E+01  0.10174969411E+01 0.  0.
     999903    2    3    3    0    0  0.39135718169E-01 -0.41847436034E-01 -0.11103527319E+00  0.12654849740E+00  0.20071820086E-01 0.  0.
         14    1    1    2    0    0 -0.39434633742E-02  0.12325426279E-01 -0.22664064208E-01  0.26098406901E-01  0.00000000000E+00 0. -1.
     999901    1    3    3    0    0 -0.35192254795E-01  0.29522009755E-01  0.13369933740E+00  0.89128309570E+00  0.88000000000E+00 0.  1.
        -11    1    4    4    0    0  0.15355110834E-01 -0.45672385479E-02 -0.23047194409E-01  0.28072644831E-01  0.51100000000E-03 0. -1.
         11    1    4    4    0    0  0.23780607335E-01 -0.37280197486E-01 -0.87988078785E-01  0.98475852569E-01  0.51100000000E-03 0.  1.
</event>
<event>
 8    1  0.9956970E+004  0.1043930E+01  0.7957747E-01            NaN
         13   -1    0    0    0    0  0.00000000000E+00  0.00000000000E+00  0.74505805969E-08  0.10566000000E+00  0.10566000000E+00 0. -1.
     999900   -1    0    0    0    0 -0.00000000000E+00 -0.00000000000E+00 -0.74505805969E-08  0.93827000000E+00  0.93827000000E+00 0. -1.
     999902    2    1    2    0    0 -0.24063244400E-01  0.22685837691E-02  0.27208551911E-02  0.10196073921E+01  0.10193172444E+01 0.  0.
     999903    2    3    3    0    0  0.60353761082E-01 -0.11153280485E+00 -0.65816275827E-04  0.12826865040E+00  0.19253553199E-01 0.  0.
         14    1    1    2    0    0  0.24063244400E-01 -0.22685837691E-02 -0.27208551911E-02  0.24322607926E-01  0.00000000000E+00 0. -1.
     999901    1    3    3    0    0 -0.84417005482E-01  0.11380138862E+00  0.27866714669E-02  0.89133874167E+00  0.88000000000E+00 0.  1.
        -11    1    4    4    0    0  0.40948837843E-01 -0.77999586612E-01  0.87558965444E-02  0.88530614353E-01  0.51100000000E-03 0.  1.
         11    1    4    4    0    0  0.19404923239E-01 -0.33533218234E-01 -0.88217128202E-02  0.39738036051E-01  0.51100000000E-03 0. -1.
</event>
<event>
 8    1  0.9956970E+004  0.1043930E+01  0.7957747E-01            NaN
         13   -1    0    0    0    0  0.00000000000E+00  0.00000000000E+00  0.74505805969E-08  0.10566000000E+00  0.10566000000E+00 0. -1.
     999900   -1    0    0    0    0 -0.00000000000E+00 -0.00000000000E+00 -0.74505805969E-08  0.93827000000E+00  0.93827000000E+00 0.  1.
     999902    2    1    2    0    0 -0.13519471438E-01  0.16948114550E-01  0.85515435101E-02  0.10206245588E+01  0.10203584401E+01 0.  0.
     999903    2    3    3    0    0  0.50023670981E-01 -0.11496881140E+00  0.19589162739E-01  0.12845773841E+00  0.19936399062E-01 0.  0.
         14    1    1    2    0    0  0.13519471438E-01 -0.16948114550E-01 -0.85515435101E-02  0.23305441235E-01  0.00000000000E+00 0.  1.
     999901    1    3    3    0    0 -0.63543142419E-01  0.13191692595E+00 -0.11037619229E-01  0.89216682035E+00  0.88000000000E+00 0.  1.
        -11    1    4    4    0    0  0.25615447992E-01 -0.36458558049E-01  0.36617095822E-02  0.44710701951E-01  0.51100000000E-03 0. -1.
         11    1    4    4    0    0  0.24408222989E-01 -0.78510253352E-01  0.15927453157E-01  0.83747036461E-01  0.51100000000E-03 0.  1.
</event>
<event>
 8    1  0.9956970E+004  0.1043930E+01  0.7957747E-01            NaN
         13   -1    0    0    0    0  0.00000000000E+00  0.00000000000E+00  0.74505805969E-08  0.10566000000E+00  0.10566000000E+00 0. -1.
     999900   -1    0    0    0    0 -0.00000000000E+00 -0.00000000000E+00 -0.74505805969E-08  0.93827000000E+00  0.93827000000E+00 0.  1.
     999902    2    1    2    0    0  0.19075643513E-01 -0.12718971881E-01  0.10190394699E-01  0.10188402299E+01  0.10185312550E+01 0.  0.
     999903    2    3    3    0    0 -0.10949688834E+00 -0.61331145238E-01  0.17254806878E-01  0.12814165837E+00  0.19273772818E-01 0.  0.
         14    1    1    2    0    0 -0.19075643513E-01  0.12718971881E-01 -0.10190394699E-01  0.25089770132E-01  0.00000000000E+00 0.  1.
     999901    1    3    3    0    0  0.12857253185E+00  0.48612173357E-01 -0.70644121785E-02  0.89069857150E+00  0.88000000000E+00 0.  1.
        -11    1    4    4    0    0 -0.47012795772E-01 -0.15813245488E-01  0.47644545229E-02  0.49831946050E-01  0.51100000000E-03 0.  1.
         11    1    4    4    0    0 -0.62484092563E-01 -0.45517899750E-01  0.12490352355E-01  0.78309712323E-01  0.51100000000E-03 0. -1.
</event>
<event>
 8    1  0.9956970E+004  0.1043930E+01  0.7957747E-01            NaN
         13   -1    0    0    0    0  0.00000000000E+00  0.00000000000E+00  0.74505805969E-08  0.10566000000E+00  0.10566000000E+00 0.  1.
     999900   -1    0    0    0    0 -0.00000000000E+00 -0.00000000000E+00 -0.74505805969E-08  0.93827000000E+00  0.93827000000E+00 0.  1.
     999902    2    1    2    0    0 -0.21833312936E-01  0.88398991287E-02  0.30146135916E-02  0.10201828893E+01  0.10199064675E+01 0.  0.
     999903    2    3    3    0    0 -0.12782523551E+00  0.64866148396E-02 -0.31061968486E-01  0.13316482917E+00  0.19663642450E-01 0.  0.
         14    1    1    2    0    0  0.21833312936E-01 -0.88398991287E-02 -0.30146135916E-02  0.23747110676E-01  0.00000000000E+00 0. -1.
     999901    1    3    3    0    0  0.10599192258E+00  0.23532842891E-02  0.34076582078E-01  0.88701806016E+00  0.88000000000E+00 0.  1.
        -11    1    4    4    0    0 -0.87294795984E-01  0.12254625624E-01 -0.16323773491E-01  0.89650900481E-01  0.51100000000E-03 0. -1.
         11    1    4    4    0    0 -0.40530439530E-01 -0.57680107848E-02 -0.14738194996E-01  0.43513928685E-01  0.51100000000E-03 0.  1.
</event>
<event>
 8    1  0.9956970E+004  0.1043930E+01  0.7957747E-01            NaN
         13   -1    0    0    0    0  0.00000000000E+00  0.00000000000E+00  0.74505805969E-08  0.10566000000E+00  0.10566000000E+00 0. -1.
     999900   -1    0    0    0    0 -0.00000000000E+00 -0.00000000000E+00 -0.74505805969E-08  0.93827000000E+00  0.93827000000E+00 0. -1.
     999902    2    1    2    0    0 -0.21202358411E-01 -0.83445540492E-02  0.62875006835E-02  0.10202930745E+01  0.10200192417E+01 0.  0.
     999903    2    3    3    0    0 -0.11575674604E+00 -0.59443591557E-01 -0.15677047910E-01  0.13348188528E+00  0.25268142697E-01 0.  0.
         14    1    1    2    0    0  0.21202358411E-01  0.83445540492E-02 -0.62875006835E-02  0.23636925547E-01  0.00000000000E+00 0.  1.
     999901    1    3    3    0    0  0.94554387627E-01  0.51099037508E-01  0.21964548594E-01  0.88681118918E+00  0.88000000000E+00 0.  1.
        -11    1    4    4    0    0 -0.65559602801E-01 -0.35694522760E-01 -0.21395190380E-01  0.77654206369E-01  0.51100000000E-03 0. -1.
         11    1    4    4    0    0 -0.50197143237E-01 -0.23749068797E-01  0.57181424693E-02  0.55827678907E-01  0.51100000000E-03 0.  1.
</event>
<event>
 8    1  0.9956970E+004  0.1043930E+01  0.7957747E-01            NaN
         13   -1    0    0    0    0  0.00000000000E+00  0.00000000000E+00  0.74505805969E-08  0.10566000000E+00  0.10566000000E+00 0. -1.
     999900   -1    0    0    0    0 -0.00000000000E+00 -0.00000000000E+00 -0.74505805969E-08  0.93827000000E+00  0.93827000000E+00 0. -1.
     999902    2    1    2    0    0 -0.72231795616E-02 -0.41271590345E-02  0.21846025047E-01  0.10205535893E+01  0.10202858287E+01 0.  0.
     999903    2    3    3    0    0  0.57724483073E-01 -0.83440166954E-01  0.82531640059E-01  0.13252684652E+00  0.21389624359E-01 0.  0.
         14    1    1    2    0    0  0.72231795616E-02  0.41271590345E-02 -0.21846025047E-01  0.23376410653E-01  0.00000000000E+00 0.  1.
     999901    1    3    3    0    0 -0.64947662635E-01  0.79313007919E-01 -0.60685615012E-01  0.88802674283E+00  0.88000000000E+00 0. -1.
        -11    1    4    4    0    0  0.53637118258E-01 -0.80414570623E-01  0.71071258791E-01  0.11997845044E+00  0.51100000000E-03 0.  1.
         11    1    4    4    0    0  0.40873648158E-02 -0.30255963308E-02  0.11460381269E-01  0.12548396077E-01  0.51100000000E-03 0. -1.
</event>
<event>
 8    1  0.9956970E+004  0.1043930E+01  0.7957747E-01            NaN
         13   -1    0    0    0    0  0.00000000000E+00  0.00000000000E+00  0.74505805969E-08  0.10566000000E+00  0.10566000000E+00 0. -1.
     999900   -1    0    0    0    0 -0.00000000000E+00 -0.00000000000E+00 -0.74505805969E-08  0.93827000000E+00  0.93827000000E+00 0. -1.
     999902    2    1    2    0    0 -0.12407947843E-02  0.17522897156E-01 -0.15141226706E-01  0.10207384446E+01  0.10204749502E+01 0.  0.
     999903    2    3    3    0    0  0.11423186189E+00  0.36209840845E-02 -0.62575623102E-01  0.13181931464E+00  0.19964801718E-01 0.  0.
         14    1    1    2    0    0  0.12407947843E-02 -0.17522897156E-01  0.15141226706E-01  0.23191555416E-01  0.00000000000E+00 0. -1.
     999901    1    3    3    0    0 -0.11547265668E+00  0.13901913072E-01  0.47434396395E-01  0.88891912995E+00  0.88000000000E+00 0.  1.
        -11    1    4    4    0    0  0.83073933475E-01  0.10107410490E-01 -0.39734655965E-01  0.92642010856E-01  0.51100000000E-03 0.  1.
         11    1    4    4    0    0  0.31157928416E-01 -0.64864264055E-02 -0.22840967137E-01  0.39177303780E-01  0.51100000000E-03 0. -1.
</event>
<event>
 8    1  0.9956970E+004  0.1043930E+01  0.7957747E-01            NaN
         13   -1    0    0    0    0  0.00000000000E+00  0.00000000000E+00  0.74505805969E-08  0.10566000000E+00  0.10566000000E+00 0.  1.
     999900   -1    0    0    0    0 -0.00000000000E+00 -0.00000000000E+00 -0.74505805969E-08  0.93827000000E+00  0.93827000000E+00 0. -1.
     999902    2    1    2    0    0 -0.48204111764E-02 -0.21476830840E-01 -0.71666886886E-02  0.10207815216E+01  0.10205190163E+01 0.  0.
     999903    2    3    3    0    0  0.30392049757E-01  0.29634801610E-01  0.12058366298E+00  0.12939357644E+00  0.20009490046E-01 0.  0.
         14    1    1    2    0    0  0.48204111764E-02  0.21476830840E-01  0.71666886886E-02  0.23148478430E-01  0.00000000000E+00 0.  1.
     999901    1    3    3    0    0 -0.35212460934E-01 -0.51111632450E-01 -0.12775035166E+00  0.89138794513E+00  0.88000000000E+00 0. -1.
        -11    1    4    4    0    0 -0.27463388120E-02  0.13538156434E-02  0.12002581934E-01  0.12397511353E-01  0.51100000000E-03 0.  1.
         11    1    4    4    0    0  0.33138388569E-01  0.28280985967E-01  0.10858108104E+00  0.11699606508E+00  0.51100000000E-03 0. -1.
</event>
<event>
 8    1  0.9956970E+004  0.1043930E+01  0.7957747E-01            NaN
         13   -1    0    0    0    0  0.00000000000E+00  0.00000000000E+00  0.74505805969E-08  0.10566000000E+00  0.10566000000E+00 0. -1.
     999900   -1    0    0    0    0 -0.00000000000E+00 -0.00000000000E+00 -0.74505805969E-08  0.93827000000E+00  0.93827000000E+00 0.  1.
     999902    2    1    2    0    0  0.93066016669E-02  0.10109502133E-01  0.22690331810E-01  0.10174032960E+01  0.10170574225E+01 0.  0.
     999903    2    3    3    0    0  0.10326385197E+00  0.68504633013E-01  0.35239313366E-01  0.13038839582E+00  0.20075275584E-01 0.  0.
         14    1    1    2    0    0 -0.93066016669E-02 -0.10109502133E-01 -0.22690331810E-01  0.26526704010E-01  0.00000000000E+00 0.  1.
     999901    1    3    3    0    0 -0.93957250298E-01 -0.58395130880E-01 -0.12548981556E-01  0.88701490017E+00  0.88000000000E+00 0. -1.
        -11    1    4    4    0    0  0.56438607418E-01  0.48640868554E-01  0.24173893208E-01  0.78331913898E-01  0.51100000000E-03 0. -1.
         11    1    4    4    0    0  0.46825244547E-01  0.19863764459E-01  0.11065420158E-01  0.52056481918E-01  0.51100000000E-03 0.  1.
</event>
<event>
 8    1  0.9956970E+004  0.1043930E+01  0.7957747E-01            NaN
         13   -1    0    0    0    0  0.00000000000E+00  0.00000000000E+00  0.74505805969E-08  0.10566000000E+00  0.10566000000E+00 0. -1.
     999900   -1    0    0    0    0 -0.00000000000E+00 -0.00000000000E+00 -0.74505805969E-08  0.93827000000E+00  0.93827000000E+00 0. -1.
     999902    2    1    2    0    0 -0.56025860879E-02  0.11246995652E-02 -0.23463046641E-01  0.10197811185E+01  0.10194951501E+01 0.  0.
     999903    2    3    3    0    0 -0.70242755070E-03  0.37840039451E-01  0.12000197467E+00  0.12739429650E+00  0.19911576212E-01 0.  0.
         14    1    1    2    0    0  0.56025860879E-02 -0.11246995652E-02  0.23463046641E-01  0.24148881499E-01  0.00000000000E+00 0. -1.
     999901    1    3    3    0    0 -0.49001585372E-02 -0.36715339886E-01 -0.14346502131E+00  0.89238682200E+00  0.88000000000E+00 0. -1.
        -11    1    4    4    0    0  0.87117975418E-02  0.10037166080E-01  0.33363933593E-01  0.35917312053E-01  0.51100000000E-03 0.  1.
         11    1    4    4    0    0 -0.94142250925E-02  0.27802873371E-01  0.86638041075E-01  0.91476984451E-01  0.51100000000E-03 0. -1.
</event>
<event>
 8    1  0.9956970E+004  0.1043930E+01  0.7957747E-01            NaN
         13   -1    0    0    0    0  0.00000000000E+00  0.00000000000E+00  0.74505805969E-08  0.10566000000E+00  0.10566000000E+00 0. -1.
     999900   -1    0    0    0    0 -0.00000000000E+00 -0.00000000000E+00 -0.74505805969E-08  0.93827000000E+00  0.93827000000E+00 0.  1.
     999902    2    1    2    0    0  0.10492419647E-01  0.85777393024E-02 -0.22201533844E-01  0.10179189142E+01  0.10175865266E+01 0.  0.
     999903    2    3    3    0    0 -0.11596928421E+00 -0.27195267595E-01 -0.42168090892E-01  0.12793524354E+00  0.20020519252E-01 0.  0.
         14    1    1    2    0    0 -0.10492419647E-01 -0.85777393024E-02  0.22201533844E-01  0.26011085840E-01  0.00000000000E+00 0. -1.
     999901    1    3    3    0    0  0.12646170386E+00  0.35773006898E-01  0.19966557049E-01  0.88998367062E+00  0.88000000000E+00 0. -1.
        -11    1    4    4    0    0 -0.99872828295E-01 -0.22658332267E-01 -0.43247142651E-01  0.11116905289E+00  0.51100000000E-03 0. -1.
         11    1    4    4    0    0 -0.16096455915E-01 -0.45369353279E-02  0.10790517587E-02  0.16766190649E-01  0.51100000000E-03 0.  1.
</event>
<event>
 8    1  0.9956970E+004  0.1043930E+01  0.7957747E-01            NaN
         13   -1    0    0    0    0  0.00000000000E+00  0.00000000000E+00  0.74505805969E-08  0.10566000000E+00  0.10566000000E+00 0.  1.
     999900   -1    0    0    0    0 -0.00000000000E+00 -0.00000000000E+00 -0.74505805969E-08  0.93827000000E+00  0.93827000000E+00 0. -1.
     999902    2    1    2    0    0  0.18328266128E-01  0.21634761807E-02 -0.17081972626E-01  0.10187824403E+01  0.10184720227E+01 0.  0.
     999903    2    3    3    0    0  0.10453237417E+00  0.48221893521E-01 -0.64034860406E-01  0.13212743430E+00  0.10238519629E-01 0.  0.
         14    1    1    2    0    0 -0.18328266128E-01 -0.21634761807E-02  0.17081972626E-01  0.25147559668E-01  0.00000000000E+00 0.  1.
     999901    1    3    3    0    0 -0.86204108038E-01 -0.46058417340E-01  0.46952887780E-01  0.88665500603E+00  0.88000000000E+00 0.  1.
        -11    1    4    4    0    0  0.26904447537E-01  0.76969863419E-02 -0.16400371805E-01  0.32439577869E-01  0.51100000000E-03 0. -1.
         11    1    4    4    0    0  0.77627926629E-01  0.40524907179E-01 -0.47634488601E-01  0.99687856431E-01  0.51100000000E-03 0.  1.
</event>
<event>
 8    1  0.9956970E+004  0.1043930E+01  0.7957747E-01            NaN
         13   -1    0    0    0    0  0.00000000000E+00  0.00000000000E+00  0.74505805969E-08  0.10566000000E+00  0.10566000000E+00 0. -1.
     999900   -1    0    0    0    0 -0.00000000000E+00 -0.00000000000E+00 -0.74505805969E-08  0.93827000000E+00  0.93827000000E+00 0.  1.
     999902    2    1    2    0    0 -0.13720943736E-01 -0.17431264066E-02 -0.18946729719E-01  0.10204719235E+01  0.10202022668E+01 0.  0.
     999903    2    3    3    0    0 -0.21347437672E-01 -0.47969960832E-01 -0.12086368428E+00  0.13335177984E+00  0.20441056020E-01 0.  0.
         14    1    1    2    0    0  0.13720943736E-01  0.17431264066E-02  0.18946729719E-01  0.23458076514E-01  0.00000000000E+00 0. -1.
     999901    1    3    3    0    0  0.76264939360E-02  0.46226834426E-01  0.10191695456E+00  0.88712014364E+00  0.88000000000E+00 0. -1.
        -11    1    4    4    0    0 -0.19284928511E-01 -0.29203148699E-01 -0.58296616256E-01  0.67996242172E-01  0.51100000000E-03 0. -1.
         11    1    4    4    0    0 -0.20625091617E-02 -0.18766812133E-01 -0.62567068027E-01  0.65355537670E-01  0.51100000000E-03 0.  1.
</event>
<event>
 8    1  0.9956970E+004  0.1043930E+01  0.7957747E-01            NaN
         13   -1    0    0    0    0  0.00000000000E+00  0.00000000000E+00  0.74505805969E-08  0.10566000000E+00  0.10566000000E+00 0. -1.
     999900   -1    0    0    0    0 -0.00000000000E+00 -0.00000000000E+00 -0.74505805969E-08  0.93827000000E+00  0.93827000000E+00 0.  1.
     999902    2    1    2    0    0  0.11972984080E-01 -0.23314680726E-01 -0.83071840466E-03  0.10177075520E+01  0.10173696696E+01 0.  0.
     999903    2    3    3    0    0  0.99356198111E-01 -0.23867005823E-01  0.78040899539E-01  0.12986924282E+00  0.18285244332E-01 0.  0.
         14    1    1    2    0    0 -0.11972984080E-01  0.23314680726E-01  0.83071840466E-03  0.26222447983E-01  0.00000000000E+00 0. -1.
     999901    1    3    3    0    0 -0.87383214031E-01  0.55232509663E-03 -0.78871617944E-01  0.88783830920E+00  0.88000000000E+00 0. -1.
        -11    1    4    4    0    0  0.10279247988E-01  0.10423481023E-02  0.13828780300E-01  0.17269791960E-01  0.51100000000E-03 0.  1.
         11    1    4    4    0    0  0.89076950123E-01 -0.24909353925E-01  0.64212119239E-01  0.11259945086E+00  0.51100000000E-03 0. -1.
</event>
<event>
 8    1  0.9956970E+004  0.1043930E+01  0.7957747E-01            NaN
         13   -1    0    0    0    0  0.00000000000E+00  0.00000000000E+00  0.74505805969E-08  0.10566000000E+00  0.10566000000E+00 0. -1.
     999900   -1    0    0    0    0 -0.00000000000E+00 -0.00000000000E+00 -0.74505805969E-08  0.93827000000E+00  0.93827000000E+00 0. -1.
     999902    2    1    2    0    0 -0.19620493477E-01 -0.48239324913E-02 -0.12666372574E-01  0.10200831746E+01  0.10198043989E+01 0.  0.
     999903    2    3    3    0    0  0.12052006940E+00  0.37615743804E-01  0.35268464931E-02  0.12783728703E+00  0.19745936294E-01 0.  0.
         14    1    1    2    0    0  0.19620493477E-01  0.48239324913E-02  0.12666372574E-01  0.23846825431E-01  0.00000000000E+00 0.  1.
     999901    1    3    3    0    0 -0.14014056287E+00 -0.42439676295E-01 -0.16193219067E-01  0.89224588754E+00  0.88000000000E+00 0.  1.
        -11    1    4    4    0    0  0.80383418587E-01  0.26412275552E-01 -0.68526802494E-02  0.84890062028E-01  0.51100000000E-03 0. -1.
         11    1    4    4    0    0  0.40136650809E-01  0.11203468251E-01  0.10379526743E-01  0.42947225002E-01  0.51100000000E-03 0.  1.
</event>
<event>
 8    1  0.9956970E+004  0.1043930E+01  0.7957747E-01            NaN
         13   -1    0    0    0    0  0.00000000000E+00  0.00000000000E+00  0.74505805969E-08  0.10566000000E+00  0.10566000000E+00 0.  1.
     999900   -1    0    0    0    0 -0.00000000000E+00 -0.00000000000E+00 -0.74505805969E-08  0.93827000000E+00  0.93827000000E+00 0. -1.
     999902    2    1    2    0    0 -0.19632524111E-01  0.20233271459E-02  0.95510454154E-02  0.10220039350E+01  0.10217687072E+01 0.  0.
     999903    2    3    3    0    0  0.43894177366E-01 -0.42858046263E-01  0.11541927529E+00  0.13225224970E+00  0.20137961810E-01 0.  0.
         14    1    1    2    0    0  0.19632524111E-01 -0.20233271459E-02 -0.95510454154E-02  0.21926064951E-01  0.00000000000E+00 0.  1.
     999901    1    3    3    0    0 -0.63526701477E-01  0.44881373409E-01 -0.10586822988E+00  0.88975168535E+00  0.88000000000E+00 0. -1.
        -11    1    4    4    0    0  0.44426655372E-01 -0.41982565903E-01  0.11588307923E+00  0.13101684136E+00  0.51100000000E-03 0. -1.
         11    1    4    4    0    0 -0.53247800603E-03 -0.87548035943E-03 -0.46380393355E-03  0.12354083436E-02  0.51100000000E-03 0.  1.
</event>
<event>
 8    1  0.9956970E+004  0.1043930E+01  0.7957747E-01            NaN
         13   -1    0    0    0    0  0.00000000000E+00  0.00000000000E+00  0.74505805969E-08  0.10566000000E+00  0.10566000000E+00 0. -1.
     999900   -1    0    0    0    0 -0.00000000000E+00 -0.00000000000E+00 -0.74505805969E-08  0.93827000000E+00  0.93827000000E+00 0.  1.
     999902    2    1    2    0    0  0.21291431918E-01 -0.97067123887E-02  0.14562704024E-02  0.10204850419E+01  0.10202156902E+01 0.  0.
     999903    2    3    3    0    0 -0.31927604141E-01  0.35451777863E-01 -0.11920896609E+00  0.12951273346E+00  0.16928380669E-01 0.  0.
         14    1    1    2    0    0 -0.21291431918E-01  0.97067123887E-02 -0.14562704024E-02  0.23444958136E-01  0.00000000000E+00 0. -1.
     999901    1    3    3    0    0  0.53219036059E-01 -0.45158490252E-01  0.12066523650E+00  0.89097230840E+00  0.88000000000E+00 0. -1.
        -11    1    4    4    0    0 -0.12481750525E-01  0.13232844320E-01 -0.68060172372E-01  0.70451050022E-01  0.51100000000E-03 0. -1.
         11    1    4    4    0    0 -0.19445853616E-01  0.22218933542E-01 -0.51148793721E-01  0.59061683440E-01  0.51100000000E-03 0.  1.
</event>
<event>
 8    1  0.9956970E+004  0.1043930E+01  0.7957747E-01            NaN
         13   -1    0    0    0    0  0.00000000000E+00  0.00000000000E+00  0.74505805969E-08  0.10566000000E+00  0.10566000000E+00 0. -1.
     999900   -1    0    0    0    0 -0.00000000000E+00 -0.00000000000E+00 -0.74505805969E-08  0.93827000000E+00  0.93827000000E+00 0. -1.
     999902    2    1    2    0    0  0.11970665789E-01  0.16877167076E-01  0.12392710202E-01  0.10198112340E+01  0.10195259870E+01 0.  0.
     999903    2    3    3    0    0  0.31374144481E-01  0.12312164146E+00 -0.30206261002E-01  0.13218571854E+00  0.20429646192E-01 0.  0.
         14    1    1    2    0    0 -0.11970665789E-01 -0.16877167076E-01 -0.12392710202E-01  0.24118766016E-01  0.00000000000E+00 0.  1.
     999901    1    3    3    0    0 -0.19403478692E-01 -0.10624447439E+00  0.42598971204E-01  0.88762551545E+00  0.88000000000E+00 0. -1.
        -11    1    4    4    0    0  0.52842834709E-02  0.60295583579E-01 -0.17183040106E-01  0.62920577232E-01  0.51100000000E-03 0.  1.
         11    1    4    4    0    0  0.26089861010E-01  0.62826057883E-01 -0.13023220896E-01  0.69265141307E-01  0.51100000000E-03 0. -1.
</event>
<event>
 8    1  0.9956970E+004  0.1043930E+01  0.7957747E-01            NaN
         13   -1    0    0    0    0  0.00000000000E+00  0.00000000000E+00  0.74505805969E-08  0.10566000000E+00  0.10566000000E+00 0.  1.
     999900   -1    0    0    0    0 -0.00000000000E+00 -0.00000000000E+00 -0.74505805969E-08  0.93827000000E+00  0.93827000000E+00 0. -1.
     999902    2    1    2    0    0 -0.21018112766E-01  0.88903942466E-02  0.61727068866E-02  0.10202888815E+01  0.10200149505E+01 0.  0.
     999903    2    3    3    0    0 -0.24035142131E-01  0.68945911969E-01 -0.10622212900E+00  0.13110477974E+00  0.23960295202E-01 0.  0.
         14    1    1    2    0    0  0.21018112766E-01 -0.88903942466E-02 -0.61727068866E-02  0.23641118510E-01  0.00000000000E+00 0. -1.
     999901    1    3    3    0    0  0.30170293656E-02 -0.60055517722E-01  0.11239483589E+00  0.88918410175E+00  0.88000000000E+00 0.  1.
        -11    1    4    4    0    0 -0.18538239678E-01  0.32123325906E-01 -0.36367611354E-01  0.51946498190E-01  0.51100000000E-03 0. -1.
         11    1    4    4    0    0 -0.54969024536E-02  0.36822586063E-01 -0.69854517647E-01  0.79158281548E-01  0.51100000000E-03 0.  1.
</event>
<event>
 8    1  0.9956970E+004  0.1043930E+01  0.7957747E-01            NaN
         13   -1    0    0    0    0  0.00000000000E+00  0.00000000000E+00  0.74505805969E-08  0.10566000000E+00  0.10566000000E+00 0. -1.
     999900   -1    0    0    0    0 -0.00000000000E+00 -0.00000000000E+00 -0.74505805969E-08  0.93827000000E+00  0.93827000000E+00 0. -1.
     999902    2    1    2    0    0 -0.17095734111E-01  0.17636638085E-01 -0.24382930988E-03  0.10193663158E+01  0.10190703171E+01 0.  0.
     999903    2    3    3    0    0  0.10967744315E+00  0.19409367963E-01 -0.59896023870E-01  0.12828104192E+00  0.21508764268E-01 0.  0.
         14    1    1    2    0    0  0.17095734111E-01 -0.17636638085E-01  0.24382930988E-03  0.24563684180E-01  0.00000000000E+00 0. -1.
     999901    1    3    3    0    0 -0.12677317726E+00 -0.17727298785E-02  0.59652194560E-01  0.89108527390E+00  0.88000000000E+00 0. -1.
        -11    1    4    4    0    0  0.77462481952E-01  0.99201004572E-02 -0.31178466646E-01  0.84090441827E-01  0.51100000000E-03 0.  1.
         11    1    4    4    0    0  0.32214961198E-01  0.94892675061E-02 -0.28717557224E-01  0.44190600094E-01  0.51100000000E-03 0. -1.
</event>
<event>
 8    1  0.9956970E+004  0.1043930E+01  0.7957747E-01            NaN
         13   -1    0    0    0    0  0.00000000000E+00  0.00000000000E+00  0.74505805969E-08  0.10566000000E+00  0.10566000000E+00 0. -1.
     999900   -1    0    0    0    0 -0.00000000000E+00 -0.00000000000E+00 -0.74505805969E-08  0.93827000000E+00  0.93827000000E+00 0.  1.
     999902    2    1    2    0    0  0.20504943083E-01  0.86743623330E-02  0.79001248906E-02  0.10203056645E+01  0.10200321269E+01 0.  0.
     999903    2    3    3    0    0 -0.10125224366E+00 -0.44241507435E-01 -0.60684767651E-01  0.12770900911E+00  0.20435805763E-01 0.  0.
         14    1    1    2    0    0 -0.20504943083E-01 -0.86743623330E-02 -0.79001248906E-02  0.23624335462E-01  0.00000000000E+00 0. -1.
     999901    1    3    3    0    0  0.12175718674E+00  0.52915869768E-01  0.68584892542E-01  0.89259665543E+00  0.88000000000E+00 0. -1.
        -11    1    4    4    0    0 -0.48242759571E-01 -0.17217871817E-01 -0.38984999631E-01  0.64373210873E-01  0.51100000000E-03 0. -1.
         11    1    4    4    0    0 -0.53009484087E-01 -0.27023635618E-01 -0.21699768020E-01  0.63335798237E-01  0.51100000000E-03 0.  1.
</event>
<event>
 8    1  0.9956970E+004  0.1043930E+01  0.7957747E-01            NaN
         13   -1    0    0    0    0  0.00000000000E+00  0.00000000000E+00  0.74505805969E-08  0.10566000000E+00  0.10566000000E+00 0. -1.
     999900   -1    0    0    0    0 -0.00000000000E+00 -0.00000000000E+00 -0.74505805969E-08  0.93827000000E+00  0.93827000000E+00 0. -1.
     999902    2    1    2    0    0 -0.10295013594E-01 -0.53593936552E-02  0.19818632769E-01  0.10209628798E+01  0.10207045181E+01 0.  0.
     999903    2    3    3    0    0  0.20818821733E-01  0.39956499578E-01  0.12409965607E+00  0.13310245567E+00  0.16899522809E-01 0.  0.
         14    1    1    2    0    0  0.10295013594E-01  0.53593936552E-02 -0.19818632769E-01  0.22967120196E-01  0.00000000000E+00 0.  1.
     999901    1    3    3    0    0 -0.31113835327E-01 -0.45315893234E-01 -0.10428102330E+00  0.88786042414E+00  0.88000000000E+00 0. -1.
        -11    1    4    4    0    0  0.11317417334E-01  0.29164913539E-01  0.10234426456E+00  0.10702002489E+00  0.51100000000E-03 0.  1.
         11    1    4    4    0    0  0.95014043992E-02  0.10791586040E-01  0.21755391506E-01  0.26082430780E-01  0.51100000000E-03 0. -1.
</event>
<event>
 8    1  0.9956970E+004  0.1043930E+01  0.7957747E-01            NaN
         13   -1    0    0    0    0  0.00000000000E+00  0.00000000000E+00  0.74505805969E-08  0.10566000000E+00  0.10566000000E+00 0.  1.
     999900   -1    0    0    0    0 -0.00000000000E+00 -0.00000000000E+00 -0.74505805969E-08  0.93827000000E+00  0.93827000000E+00 0.  1.
     999902    2    1    2    0    0 -0.11811582361E-01 -0.30485024868E-02  0.21019573252E-01  0.10196271338E+01  0.10193374626E+01 0.  0.
     999903    2    3    3    0    0  0.82139667149E-01 -0.96713239182E-01 -0.13532827502E-01  0.12901285783E+00  0.18994854900E-01 0.  0.
         14    1    1    2    0    0  0.11811582361E-01  0.30485024868E-02 -0.21019573252E-01  0.24302866189E-01  0.00000000000E+00 0.  1.
     999901    1    3    3    0    0 -0.93951249509E-01  0.93664736696E-01  0.34552400754E-01  0.89061427598E+00  0.88000000000E+00 0.  1.
        -11    1    4    4    0    0  0.54095758744E-01 -0.55138474881E-01 -0.15657075001E-01  0.78816290478E-01  0.51100000000E-03 0. -1.
         11    1    4    4    0    0  0.28043908405E-01 -0.41574764302E-01  0.21242474990E-02  0.50196567351E-01  0.51100000000E-03 0.  1.
</event>
<event>
 8    1  0.9956970E+004  0.1043930E+01  0.7957747E-01            NaN
         13   -1    0    0    0    0  0.00000000000E+00  0.00000000000E+00  0.74505805969E-08  0.10566000000E+00  0.10566000000E+00 0.  1.
     999900   -1    0    0    0    0 -0.00000000000E+00 -0.00000000000E+00 -0.74505805969E-08  0.93827000000E+00  0.93827000000E+00 0. -1.
     999902    2    1    2    0    0  0.22871679731E-02 -0.16525837086E-01 -0.16365768481E-01  0.10205596597E+01  0.10202920396E+01 0.  0.
     999903    2    3    3    0    0 -0.79781998355E-01  0.42054799121E-01 -0.93494805765E-01  0.13145003348E+00  0.20101224025E-01 0.  0.
         14    1    1    2    0    0 -0.22871679731E-02  0.16525837086E-01  0.16365768481E-01  0.23370340321E-01  0.00000000000E+00 0.  1.
     999901    1    3    3    0    0  0.82069166328E-01 -0.58580636207E-01  0.77129037284E-01  0.88910962620E+00  0.88000000000E+00 0.  1.
        -11    1    4    4    0    0  0.35647601626E-03  0.10051251421E-02 -0.52299509251E-02  0.53619827845E-02  0.51100000000E-03 0.  1.
         11    1    4    4    0    0 -0.80138474371E-01  0.41049673979E-01 -0.88264854840E-01  0.12608805070E+00  0.51100000000E-03 0. -1.
</event>
<event>
 8    1  0.9956970E+004  0.1043930E+01  0.7957747E-01            NaN
         13   -1    0    0    0    0  0.00000000000E+00  0.00000000000E+00  0.74505805969E-08  0.10566000000E+00  0.10566000000E+00 0.  1.
     999900   -1    0    0    0    0 -0.00000000000E+00 -0.00000000000E+00 -0.74505805969E-08  0.93827000000E+00  0.93827000000E+00 0.  1.
     999902    2    1    2    0    0 -0.23821795184E-01  0.15596515740E-02  0.15243470323E-02  0.10200085855E+01  0.10197280424E+01 0.  0.
     999903    2    3    3    0    0 -0.35768833085E-01 -0.88393743165E-01 -0.86588388811E-01  0.13096516744E+00  0.23695205312E-01 0.  0.
         14    1    1    2    0    0  0.23821795184E-01 -0.15596515740E-02 -0.15243470323E-02  0.23921414522E-01  0.00000000000E+00 0. -1.
     999901    1    3    3    0    0  0.11947037901E-01  0.89953394739E-01  0.88112735843E-01  0.88904341804E+00  0.88000000000E+00 0. -1.
        -11    1    4    4    0    0 -0.26250151151E-01 -0.34686224968E-01 -0.42659941465E-01  0.60928945213E-01  0.51100000000E-03 0. -1.
         11    1    4    4    0    0 -0.95186819344E-02 -0.53707518197E-01 -0.43928447346E-01  0.70036222227E-01  0.51100000000E-03 0.  1.
</event>
<event>
 8    1  0.9956970E+004  0.1043930E+01  0.7957747E-01            NaN
         13   -1    0    0    0    0  0.00000000000E+00  0.00000000000E+00  0.74505805969E-08  0.10566000000E+00  0.10566000000E+00 0.  1.
     999900   -1    0    0    0    0 -0.00000000000E+00 -0.00000000000E+00 -0.74505805969E-08  0.93827000000E+00  0.93827000000E+00 0.  1.
     999902    2    1    2    0    0  0.69436929870E-02 -0.32931628641E-02 -0.22685694569E-01  0.10199779535E+01  0.10196966829E+01 0.  0.
     999903    2    3    3    0    0  0.18846146121E-01 -0.10924646666E+00 -0.69312008654E-01  0.13231710376E+00  0.20339461738E-01 0.  0.
         14    1    1    2    0    0 -0.69436929870E-02  0.32931628641E-02  0.22685694569E-01  0.23952046510E-01  0.00000000000E+00 0.  1.
     999901    1    3    3    0    0 -0.11902453134E-01  0.10595330379E+00  0.46626314084E-01  0.88766084973E+00  0.88000000000E+00 0.  1.
        -11    1    4    4    0    0  0.68049272880E-02 -0.30495794587E-01 -0.93916064707E-02  0.32630720434E-01  0.51100000000E-03 0.  1.
         11    1    4    4    0    0  0.12041218833E-01 -0.78750672069E-01 -0.59920402183E-01  0.99686383328E-01  0.51100000000E-03 0. -1.
</event>
<event>
 8    1  0.9956970E+004  0.1043930E+01  0.7957747E-01            NaN
         13   -1    0    0    0    0  0.00000000000E+00  0.00000000000E+00  0.74505805969E-08  0.10566000000E+00  0.10566000000E+00 0.  1.
     999900   -1    0    0    0    0 -0.00000000000E+00 -0.00000000000E+00 -0.74505805969E-08  0.93827000000E+00  0.93827000000E+00 0.  1.
     999902    2    1    2    0    0  0.58665607378E-02  0.20488361574E-01  0.11085411839E-01  0.10199075969E+01  0.10196246517E+01 0.  0.
     999903    2    3    3    0    0  0.14931416902E-01  0.11561268923E+00  0.61394930802E-01  0.13330630149E+00  0.20297570454E-01 0.  0.
         14    1    1    2    0    0 -0.58665607378E-02 -0.20488361574E-01 -0.11085411839E-01  0.24022403096E-01  0.00000000000E+00 0. -1.
     999901    1    3    3    0    0 -0.90648561638E-02 -0.95124327660E-01 -0.50309518963E-01  0.88660129541E+00  0.88000000000E+00 0.  1.
        -11    1    4    4    0    0  0.19111230927E-01  0.79821648653E-01  0.38966955910E-01  0.90859339174E-01  0.51100000000E-03 0.  1.
         11    1    4    4    0    0 -0.41798140255E-02  0.35791040581E-01  0.22427974892E-01  0.42446962317E-01  0.51100000000E-03 0. -1.
</event>
