<event>
 8    1  0.1123285E+005  0.1043930E+01  0.7957747E-01            NaN
         13   -1    0    0    0    0  0.00000000000E+00  0.00000000000E+00  0.74505805969E-08  0.10566000000E+00  0.10566000000E+00 0. -1.
     999900   -1    0    0    0    0 -0.00000000000E+00 -0.00000000000E+00 -0.74505805969E-08  0.93827000000E+00  0.93827000000E+00 0.  1.
     999902    2    1    2    0    0 -0.69929205806E-02  0.14745531373E-01  0.16099282022E-01  0.10210058094E+01  0.10207484236E+01 0.  0.
     999903    2    3    3    0    0  0.10390536630E-01 -0.99442817896E-01 -0.78047918254E-01  0.12847857786E+00  0.20455565078E-01 0.  0.
         14    1    1    2    0    0  0.69929205806E-02 -0.14745531373E-01 -0.16099282022E-01  0.22924190615E-01  0.00000000000E+00 0.  1.
     999901    1    3    3    0    0 -0.17383457211E-01  0.11418834927E+00  0.94147200276E-01  0.89252723152E+00  0.88000000000E+00 0. -1.
        -11    1    4    4    0    0 -0.22898287780E-03 -0.77966302295E-01 -0.56975604815E-01  0.96567475848E-01  0.51100000000E-03 0. -1.
         11    1    4    4    0    0  0.10619519508E-01 -0.21476515602E-01 -0.21072313439E-01  0.31911102012E-01  0.51100000000E-03 0.  1.
</event>
<event>
 8    1  0.1123285E+005  0.1043930E+01  0.7957747E-01            NaN
         13   -1    0    0    0    0  0.00000000000E+00  0.00000000000E+00  0.74505805969E-08  0.10566000000E+00  0.10566000000E+00 0.  1.
     999900   -1    0    0    0    0 -0.00000000000E+00 -0.00000000000E+00 -0.74505805969E-08  0.93827000000E+00  0.93827000000E+00 0. -1.
     999902    2    1    2    0    0 -0.18873180248E-01 -0.92882078754E-03 -0.90824808924E-02  0.10229645260E+01  0.10227496616E+01 0.  0.
     999903    2    3    3    0    0  0.16613118121E-02  0.12958866660E+00  0.20659785590E-01  0.13260444025E+00  0.19003377762E-01 0.  0.
         14    1    1    2    0    0  0.18873180248E-01  0.92882078754E-03  0.90824808924E-02  0.20965473997E-01  0.00000000000E+00 0. -1.
     999901    1    3    3    0    0 -0.20534492060E-01 -0.13051748739E+00 -0.29742266482E-01  0.89036008575E+00  0.88000000000E+00 0. -1.
        -11    1    4    4    0    0  0.34499810719E-02  0.63825814592E-01  0.95662731187E-03  0.63928188106E-01  0.51100000000E-03 0. -1.
         11    1    4    4    0    0 -0.17886692598E-02  0.65762852009E-01  0.19703158278E-01  0.68676252149E-01  0.51100000000E-03 0.  1.
</event>
<event>
 8    1  0.1123285E+005  0.1043930E+01  0.7957747E-01            NaN
         13   -1    0    0    0    0  0.00000000000E+00  0.00000000000E+00  0.74505805969E-08  0.10566000000E+00  0.10566000000E+00 0. -1.
     999900   -1    0    0    0    0 -0.00000000000E+00 -0.00000000000E+00 -0.74505805969E-08  0.93827000000E+00  0.93827000000E+00 0. -1.
     999902    2    1    2    0    0  0.73404174810E-02  0.17443049340E-01 -0.13161020245E-01  0.10208788796E+01  0.10206186029E+01 0.  0.
     999903    2    3    3    0    0 -0.12311877914E+00  0.12541441804E-01  0.34242026566E-01  0.12998568924E+00  0.20204986568E-01 0.  0.
         14    1    1    2    0    0 -0.73404174810E-02 -0.17443049340E-01  0.13161020245E-01  0.23051120428E-01  0.00000000000E+00 0. -1.
     999901    1    3    3    0    0  0.13045919663E+00  0.49016075362E-02 -0.47403046811E-01  0.89089319034E+00  0.88000000000E+00 0. -1.
        -11    1    4    4    0    0 -0.11039096957E+00  0.48563779132E-02  0.30901755828E-01  0.11473852972E+00  0.51100000000E-03 0. -1.
         11    1    4    4    0    0 -0.12727809576E-01  0.76850638910E-02  0.33402707381E-02  0.15247159513E-01  0.51100000000E-03 0.  1.
</event>
<event>
 8    1  0.1123285E+005  0.1043930E+01  0.7957747E-01            NaN
         13   -1    0    0    0    0  0.00000000000E+00  0.00000000000E+00  0.74505805969E-08  0.10566000000E+00  0.10566000000E+00 0. -1.
     999900   -1    0    0    0    0 -0.00000000000E+00 -0.00000000000E+00 -0.74505805969E-08  0.93827000000E+00  0.93827000000E+00 0. -1.
     999902    2    1    2    0    0  0.14057674627E-01 -0.18230493708E-01  0.52317680251E-02  0.10203219397E+01  0.10200487832E+01 0.  0.
     999903    2    3    3    0    0 -0.93505900050E-01  0.50384269256E-01  0.70158991017E-01  0.12875396547E+00  0.19322827751E-01 0.  0.
         14    1    1    2    0    0 -0.14057674627E-01  0.18230493708E-01 -0.52317680251E-02  0.23608060349E-01  0.00000000000E+00 0.  1.
     999901    1    3    3    0    0  0.10756357468E+00 -0.68614762964E-01 -0.64927222991E-01  0.89156797418E+00  0.88000000000E+00 0. -1.
        -11    1    4    4    0    0 -0.32681354495E-01  0.24081134912E-01  0.17954756177E-01  0.44391512484E-01  0.51100000000E-03 0.  1.
         11    1    4    4    0    0 -0.60824545555E-01  0.26303134343E-01  0.52204234839E-01  0.84362452990E-01  0.51100000000E-03 0. -1.
</event>
<event>
 8    1  0.1123285E+005  0.1043930E+01  0.7957747E-01            NaN
         13   -1    0    0    0    0  0.00000000000E+00  0.00000000000E+00  0.74505805969E-08  0.10566000000E+00  0.10566000000E+00 0.  1.
     999900   -1    0    0    0    0 -0.00000000000E+00 -0.00000000000E+00 -0.74505805969E-08  0.93827000000E+00  0.93827000000E+00 0.  1.
     999902    2    1    2    0    0 -0.79248692961E-02  0.17845952388E-01 -0.13327559382E-01  0.10202888196E+01  0.10200148872E+01 0.  0.
     999903    2    3    3    0    0  0.54751295853E-01 -0.50399948080E-01 -0.10535429347E+00  0.13065140788E+00  0.20794327691E-01 0.  0.
         14    1    1    2    0    0  0.79248692961E-02 -0.17845952388E-01  0.13327559382E-01  0.23641180366E-01  0.00000000000E+00 0.  1.
     999901    1    3    3    0    0 -0.62676165149E-01  0.68245900468E-01  0.92026734087E-01  0.88963741176E+00  0.88000000000E+00 0. -1.
        -11    1    4    4    0    0  0.45620351246E-01 -0.35545693414E-01 -0.92057012768E-01  0.10871737437E+00  0.51100000000E-03 0.  1.
         11    1    4    4    0    0  0.91309446069E-02 -0.14854254666E-01 -0.13297280701E-01  0.21934033513E-01  0.51100000000E-03 0. -1.
</event>
<event>
 8    1  0.1123285E+005  0.1043930E+01  0.7957747E-01            NaN
         13   -1    0    0    0    0  0.00000000000E+00  0.00000000000E+00  0.74505805969E-08  0.10566000000E+00  0.10566000000E+00 0.  1.
     999900   -1    0    0    0    0 -0.00000000000E+00 -0.00000000000E+00 -0.74505805969E-08  0.93827000000E+00  0.93827000000E+00 0. -1.
     999902    2    1    2    0    0  0.13335846492E-01  0.16748897408E-01 -0.43814904140E-02  0.10220766748E+01  0.10218430218E+01 0.  0.
     999903    2    3    3    0    0 -0.69246690365E-01 -0.78849571039E-01  0.73518537438E-01  0.12964888669E+00  0.19786346161E-01 0.  0.
         14    1    1    2    0    0 -0.13335846492E-01 -0.16748897408E-01  0.43814904140E-02  0.21853325246E-01  0.00000000000E+00 0.  1.
     999901    1    3    3    0    0  0.82582536857E-01  0.95598468447E-01 -0.77900027852E-01  0.89242778806E+00  0.88000000000E+00 0. -1.
        -11    1    4    4    0    0 -0.30917575496E-01 -0.21989396432E-01  0.30664131290E-01  0.48785039703E-01  0.51100000000E-03 0.  1.
         11    1    4    4    0    0 -0.38329114869E-01 -0.56860174606E-01  0.42854406148E-01  0.80863846991E-01  0.51100000000E-03 0. -1.
</event>
<event>
 8    1  0.1123285E+005  0.1043930E+01  0.7957747E-01            NaN
         13   -1    0    0    0    0  0.00000000000E+00  0.00000000000E+00  0.74505805969E-08  0.10566000000E+00  0.10566000000E+00 0.  1.
     999900   -1    0    0    0    0 -0.00000000000E+00 -0.00000000000E+00 -0.74505805969E-08  0.93827000000E+00  0.93827000000E+00 0. -1.
     999902    2    1    2    0    0 -0.81245049051E-02  0.16390923242E-01  0.13566897064E-01  0.10211543410E+01  0.10209003172E+01 0.  0.
     999903    2    3    3    0    0 -0.69540343247E-01  0.95121623997E-01  0.61242646860E-01  0.13422514119E+00  0.19538271237E-01 0.  0.
         14    1    1    2    0    0  0.81245049051E-02 -0.16390923242E-01 -0.13566897064E-01  0.22775658950E-01  0.00000000000E+00 0. -1.
     999901    1    3    3    0    0  0.61415838342E-01 -0.78730700755E-01 -0.47675749796E-01  0.88692919986E+00  0.88000000000E+00 0.  1.
        -11    1    4    4    0    0 -0.45071163407E-01  0.61858849011E-01  0.29062203098E-01  0.81870628077E-01  0.51100000000E-03 0. -1.
         11    1    4    4    0    0 -0.24469179840E-01  0.33262774986E-01  0.32180443762E-01  0.52354513115E-01  0.51100000000E-03 0.  1.
</event>
<event>
 8    1  0.1123285E+005  0.1043930E+01  0.7957747E-01            NaN
         13   -1    0    0    0    0  0.00000000000E+00  0.00000000000E+00  0.74505805969E-08  0.10566000000E+00  0.10566000000E+00 0.  1.
     999900   -1    0    0    0    0 -0.00000000000E+00 -0.00000000000E+00 -0.74505805969E-08  0.93827000000E+00  0.93827000000E+00 0. -1.
     999902    2    1    2    0    0 -0.98799622919E-02 -0.21070295356E-01  0.68836710202E-02  0.10196615858E+01  0.10193727452E+01 0.  0.
     999903    2    3    3    0    0 -0.72392889475E-04  0.12563372706E+00  0.67692836692E-02  0.12746302511E+00  0.20424518429E-01 0.  0.
         14    1    1    2    0    0  0.98799622919E-02  0.21070295356E-01 -0.68836710202E-02  0.24268414205E-01  0.00000000000E+00 0.  1.
     999901    1    3    3    0    0 -0.98075694024E-02 -0.14670402241E+00  0.11438735103E-03  0.89219856069E+00  0.88000000000E+00 0. -1.
        -11    1    4    4    0    0  0.42175046074E-02  0.88445436848E-01 -0.35824766883E-02  0.88619850511E-01  0.51100000000E-03 0.  1.
         11    1    4    4    0    0 -0.42898974969E-02  0.37188290209E-01  0.10351760357E-01  0.38843174596E-01  0.51100000000E-03 0. -1.
</event>
<event>
 8    1  0.1123285E+005  0.1043930E+01  0.7957747E-01            NaN
         13   -1    0    0    0    0  0.00000000000E+00  0.00000000000E+00  0.74505805969E-08  0.10566000000E+00  0.10566000000E+00 0. -1.
     999900   -1    0    0    0    0 -0.00000000000E+00 -0.00000000000E+00 -0.74505805969E-08  0.93827000000E+00  0.93827000000E+00 0.  1.
     999902    2    1    2    0    0  0.86237245820E-02 -0.44641824070E-02 -0.21059326680E-01  0.10207396401E+01  0.10204761732E+01 0.  0.
     999903    2    3    3    0    0  0.10382565468E+00 -0.28645165674E-01  0.71309406772E-01  0.13046995608E+00  0.18359353435E-01 0.  0.
         14    1    1    2    0    0 -0.86237245820E-02  0.44641824070E-02  0.21059326680E-01  0.23190359860E-01  0.00000000000E+00 0. -1.
     999901    1    3    3    0    0 -0.95201930095E-01  0.24180983267E-01 -0.92368733452E-01  0.89026968406E+00  0.88000000000E+00 0.  1.
        -11    1    4    4    0    0  0.60813600333E-01 -0.17957754421E-01  0.52487140224E-01  0.82316073395E-01  0.51100000000E-03 0. -1.
         11    1    4    4    0    0  0.43012054344E-01 -0.10687411253E-01  0.18822266548E-01  0.48153882680E-01  0.51100000000E-03 0.  1.
</event>
<event>
 8    1  0.1123285E+005  0.1043930E+01  0.7957747E-01            NaN
         13   -1    0    0    0    0  0.00000000000E+00  0.00000000000E+00  0.74505805969E-08  0.10566000000E+00  0.10566000000E+00 0. -1.
     999900   -1    0    0    0    0 -0.00000000000E+00 -0.00000000000E+00 -0.74505805969E-08  0.93827000000E+00  0.93827000000E+00 0.  1.
     999902    2    1    2    0    0  0.17566402829E-01 -0.35462065285E-02 -0.28668569693E-02  0.10257813648E+01  0.10256208049E+01 0.  0.
     999903    2    3    3    0    0 -0.76058133062E-01 -0.98668004343E-01  0.46477602394E-01  0.13435072491E+00  0.19228496417E-01 0.  0.
         14    1    1    2    0    0 -0.17566402829E-01  0.35462065285E-02  0.28668569693E-02  0.18148635155E-01  0.00000000000E+00 0.  1.
     999901    1    3    3    0    0  0.93624535891E-01  0.95121797814E-01 -0.49344459363E-01  0.89143063993E+00  0.88000000000E+00 0.  1.
        -11    1    4    4    0    0 -0.14689261860E-01 -0.15531976084E-01  0.15705239966E-01  0.26531724001E-01  0.51100000000E-03 0.  1.
         11    1    4    4    0    0 -0.61368871202E-01 -0.83136028259E-01  0.30772362427E-01  0.10781900091E+00  0.51100000000E-03 0. -1.
</event>
<event>
 8    1  0.1123285E+005  0.1043930E+01  0.7957747E-01            NaN
         13   -1    0    0    0    0  0.00000000000E+00  0.00000000000E+00  0.74505805969E-08  0.10566000000E+00  0.10566000000E+00 0.  1.
     999900   -1    0    0    0    0 -0.00000000000E+00 -0.00000000000E+00 -0.74505805969E-08  0.93827000000E+00  0.93827000000E+00 0. -1.
     999902    2    1    2    0    0 -0.11701519278E-01  0.13607921420E-01  0.14063594161E-01  0.10211289965E+01  0.10208744006E+01 0.  0.
     999903    2    3    3    0    0  0.71435125399E-01 -0.17909115677E-01 -0.10366670463E+00  0.12884795976E+00  0.20767703777E-01 0.  0.
         14    1    1    2    0    0  0.11701519278E-01 -0.13607921420E-01 -0.14063594161E-01  0.22801003476E-01  0.00000000000E+00 0. -1.
     999901    1    3    3    0    0 -0.83136644678E-01  0.31517037097E-01  0.11773029879E+00  0.89228103676E+00  0.88000000000E+00 0.  1.
        -11    1    4    4    0    0  0.26192729234E-01 -0.15092905355E-01 -0.51658394514E-01  0.59855707343E-01  0.51100000000E-03 0. -1.
         11    1    4    4    0    0  0.45242396165E-01 -0.28162103219E-02 -0.52008310117E-01  0.68992252417E-01  0.51100000000E-03 0.  1.
</event>
<event>
 8    1  0.1123285E+005  0.1043930E+01  0.7957747E-01            NaN
         13   -1    0    0    0    0  0.00000000000E+00  0.00000000000E+00  0.74505805969E-08  0.10566000000E+00  0.10566000000E+00 0.  1.
     999900   -1    0    0    0    0 -0.00000000000E+00 -0.00000000000E+00 -0.74505805969E-08  0.93827000000E+00  0.93827000000E+00 0.  1.
     999902    2    1    2    0    0 -0.59127587471E-02  0.18914974127E-01 -0.99941800260E-02  0.10217349421E+01  0.10214938430E+01 0.  0.
     999903    2    3    3    0    0 -0.37680082466E-02  0.13190505624E+00  0.13789716683E-01  0.13418943205E+00  0.20087449800E-01 0.  0.
         14    1    1    2    0    0  0.59127587471E-02 -0.18914974127E-01  0.99941800260E-02  0.22195057932E-01  0.00000000000E+00 0.  1.
     999901    1    3    3    0    0 -0.21447505004E-02 -0.11299008211E+00 -0.23783896709E-01  0.88754551002E+00  0.88000000000E+00 0. -1.
        -11    1    4    4    0    0  0.35297607482E-02  0.57491441629E-01  0.14557962223E-01  0.59413133704E-01  0.51100000000E-03 0.  1.
         11    1    4    4    0    0 -0.72977689948E-02  0.74413614613E-01 -0.76824554002E-03  0.74776298345E-01  0.51100000000E-03 0. -1.
</event>
<event>
 8    1  0.1123285E+005  0.1043930E+01  0.7957747E-01            NaN
         13   -1    0    0    0    0  0.00000000000E+00  0.00000000000E+00  0.74505805969E-08  0.10566000000E+00  0.10566000000E+00 0.  1.
     999900   -1    0    0    0    0 -0.00000000000E+00 -0.00000000000E+00 -0.74505805969E-08  0.93827000000E+00  0.93827000000E+00 0.  1.
     999902    2    1    2    0    0 -0.19954792321E-01 -0.17979132123E-01 -0.58046307895E-03  0.10170640389E+01  0.10167091420E+01 0.  0.
     999903    2    3    3    0    0  0.90415674722E-01 -0.77741936598E-01  0.39644080496E-01  0.12724875093E+00  0.20044663981E-01 0.  0.
         14    1    1    2    0    0  0.19954792321E-01  0.17979132123E-01  0.58046307895E-03  0.26865961100E-01  0.00000000000E+00 0. -1.
     999901    1    3    3    0    0 -0.11037046704E+00  0.59762804475E-01 -0.40224543575E-01  0.88981528797E+00  0.88000000000E+00 0. -1.
        -11    1    4    4    0    0  0.36220519454E-01 -0.36788964712E-01  0.77655108870E-02  0.52210326895E-01  0.51100000000E-03 0. -1.
         11    1    4    4    0    0  0.54195155267E-01 -0.40952971887E-01  0.31878569609E-01  0.75038424038E-01  0.51100000000E-03 0.  1.
</event>
<event>
 8    1  0.1123285E+005  0.1043930E+01  0.7957747E-01            NaN
         13   -1    0    0    0    0  0.00000000000E+00  0.00000000000E+00  0.74505805969E-08  0.10566000000E+00  0.10566000000E+00 0.  1.
     999900   -1    0    0    0    0 -0.00000000000E+00 -0.00000000000E+00 -0.74505805969E-08  0.93827000000E+00  0.93827000000E+00 0. -1.
     999902    2    1    2    0    0 -0.21645466130E-01 -0.21577160952E-02 -0.10117470852E-01  0.10199394777E+01  0.10196572920E+01 0.  0.
     999903    2    3    3    0    0  0.80968304041E-01  0.39999804780E-02 -0.99005143130E-01  0.12950782884E+00  0.19959791089E-01 0.  0.
         14    1    1    2    0    0  0.21645466130E-01  0.21577160952E-02  0.10117470852E-01  0.23990522278E-01  0.00000000000E+00 0. -1.
     999901    1    3    3    0    0 -0.10261377017E+00 -0.61576965732E-02  0.88887672279E-01  0.89043164889E+00  0.88000000000E+00 0.  1.
        -11    1    4    4    0    0  0.44284729233E-01 -0.30902151142E-02 -0.40529200459E-01  0.60112926094E-01  0.51100000000E-03 0. -1.
         11    1    4    4    0    0  0.36683574807E-01  0.70901955922E-02 -0.58475942672E-01  0.69394902742E-01  0.51100000000E-03 0.  1.
</event>
<event>
 8    1  0.1123285E+005  0.1043930E+01  0.7957747E-01            NaN
         13   -1    0    0    0    0  0.00000000000E+00  0.00000000000E+00  0.74505805969E-08  0.10566000000E+00  0.10566000000E+00 0. -1.
     999900   -1    0    0    0    0 -0.00000000000E+00 -0.00000000000E+00 -0.74505805969E-08  0.93827000000E+00  0.93827000000E+00 0. -1.
     999902    2    1    2    0    0 -0.42658166433E-03  0.51892870153E-02  0.23542101041E-01  0.10198189819E+01  0.10195339203E+01 0.  0.
     999903    2    3    3    0    0  0.10158461395E+00  0.71110745778E-01 -0.31692028174E-01  0.12976126930E+00  0.21387622712E-01 0.  0.
         14    1    1    2    0    0  0.42658166433E-03 -0.51892870153E-02 -0.23542101041E-01  0.24111018084E-01  0.00000000000E+00 0.  1.
     999901    1    3    3    0    0 -0.10201119561E+00 -0.65921458763E-01  0.55234129215E-01  0.89005771261E+00  0.88000000000E+00 0.  1.
        -11    1    4    4    0    0  0.66213342267E-01  0.35430404932E-01 -0.24565617751E-01  0.79014245452E-01  0.51100000000E-03 0.  1.
         11    1    4    4    0    0  0.35371271678E-01  0.35680340846E-01 -0.71264104238E-02  0.50747023850E-01  0.51100000000E-03 0. -1.
</event>
<event>
 8    1  0.1123285E+005  0.1043930E+01  0.7957747E-01            NaN
         13   -1    0    0    0    0  0.00000000000E+00  0.00000000000E+00  0.74505805969E-08  0.10566000000E+00  0.10566000000E+00 0. -1.
     999900   -1    0    0    0    0 -0.00000000000E+00 -0.00000000000E+00 -0.74505805969E-08  0.93827000000E+00  0.93827000000E+00 0.  1.
     999902    2    1    2    0    0 -0.26392712054E-01  0.61280379935E-02 -0.22424524072E-01  0.10087591686E+01  0.10081458590E+01 0.  0.
     999903    2    3    3    0    0  0.64685573897E-01  0.76460576038E-01  0.58467699221E-01  0.11758832538E+00  0.19444774473E-01 0.  0.
         14    1    1    2    0    0  0.26392712054E-01 -0.61280379935E-02  0.22424524072E-01  0.35170831367E-01  0.00000000000E+00 0. -1.
     999901    1    3    3    0    0 -0.91078285951E-01 -0.70332538045E-01 -0.80892223294E-01  0.89117084326E+00  0.88000000000E+00 0.  1.
        -11    1    4    4    0    0  0.10158039800E-01  0.15131537088E-01  0.28547792636E-02  0.18454269773E-01  0.51100000000E-03 0. -1.
         11    1    4    4    0    0  0.54527534098E-01  0.61329038950E-01  0.55612919958E-01  0.99134055604E-01  0.51100000000E-03 0.  1.
</event>
<event>
 8    1  0.1123285E+005  0.1043930E+01  0.7957747E-01            NaN
         13   -1    0    0    0    0  0.00000000000E+00  0.00000000000E+00  0.74505805969E-08  0.10566000000E+00  0.10566000000E+00 0. -1.
     999900   -1    0    0    0    0 -0.00000000000E+00 -0.00000000000E+00 -0.74505805969E-08  0.93827000000E+00  0.93827000000E+00 0. -1.
     999902    2    1    2    0    0  0.20730969303E-01 -0.93379094222E-02  0.50807045253E-02  0.10206322920E+01  0.10203663520E+01 0.  0.
     999903    2    3    3    0    0 -0.55128961654E-01  0.42926271425E-01 -0.10647506316E+00  0.12881899143E+00  0.19378500674E-01 0.  0.
         14    1    1    2    0    0 -0.20730969303E-01  0.93379094222E-02 -0.50807045253E-02  0.23297708022E-01  0.00000000000E+00 0.  1.
     999901    1    3    3    0    0  0.75859930957E-01 -0.52264180847E-01  0.11155576768E+00  0.89181330054E+00  0.88000000000E+00 0.  1.
        -11    1    4    4    0    0 -0.46512705230E-03  0.69558216311E-02 -0.12145376247E-01  0.14013246695E-01  0.51100000000E-03 0. -1.
         11    1    4    4    0    0 -0.54663834602E-01  0.35970449794E-01 -0.94329686909E-01  0.11480574474E+00  0.51100000000E-03 0.  1.
</event>
<event>
 8    1  0.1123285E+005  0.1043930E+01  0.7957747E-01            NaN
         13   -1    0    0    0    0  0.00000000000E+00  0.00000000000E+00  0.74505805969E-08  0.10566000000E+00  0.10566000000E+00 0. -1.
     999900   -1    0    0    0    0 -0.00000000000E+00 -0.00000000000E+00 -0.74505805969E-08  0.93827000000E+00  0.93827000000E+00 0.  1.
     999902    2    1    2    0    0  0.13578381268E-01 -0.17707438188E-01  0.11215662292E-01  0.10189556755E+01  0.10186495726E+01 0.  0.
     999903    2    3    3    0    0  0.77940997485E-01 -0.48026984637E-01  0.93371593183E-01  0.13227003882E+00  0.19892672359E-01 0.  0.
         14    1    1    2    0    0 -0.13578381268E-01  0.17707438188E-01 -0.11215662292E-01  0.24974324529E-01  0.00000000000E+00 0.  1.
     999901    1    3    3    0    0 -0.64362616217E-01  0.30319546449E-01 -0.82155930891E-01  0.88668563665E+00  0.88000000000E+00 0.  1.
        -11    1    4    4    0    0  0.21918891841E-01 -0.15907593073E-01  0.15888731780E-01  0.31403857335E-01  0.51100000000E-03 0. -1.
         11    1    4    4    0    0  0.56022105644E-01 -0.32119391565E-01  0.77482861402E-01  0.10086618148E+00  0.51100000000E-03 0.  1.
</event>
<event>
 8    1  0.1123285E+005  0.1043930E+01  0.7957747E-01            NaN
         13   -1    0    0    0    0  0.00000000000E+00  0.00000000000E+00  0.74505805969E-08  0.10566000000E+00  0.10566000000E+00 0.  1.
     999900   -1    0    0    0    0 -0.00000000000E+00 -0.00000000000E+00 -0.74505805969E-08  0.93827000000E+00  0.93827000000E+00 0.  1.
     999902    2    1    2    0    0  0.10713476347E-01 -0.10541541919E-01 -0.18181273334E-01  0.10203405663E+01  0.10200678457E+01 0.  0.
     999903    2    3    3    0    0  0.98295738660E-01  0.55925472439E-01 -0.64649273736E-01  0.13228212695E+00  0.23006994794E-01 0.  0.
         14    1    1    2    0    0 -0.10713476347E-01  0.10541541919E-01  0.18181273334E-01  0.23589433684E-01  0.00000000000E+00 0.  1.
     999901    1    3    3    0    0 -0.87582262312E-01 -0.66467014358E-01  0.46468000402E-01  0.88805843937E+00  0.88000000000E+00 0. -1.
        -11    1    4    4    0    0  0.40997182110E-01  0.34810124763E-01 -0.36766553405E-01  0.65150244031E-01  0.51100000000E-03 0. -1.
         11    1    4    4    0    0  0.57298556549E-01  0.21115347676E-01 -0.27882720331E-01  0.67131882919E-01  0.51100000000E-03 0.  1.
</event>
<event>
 8    1  0.1123285E+005  0.1043930E+01  0.7957747E-01            NaN
         13   -1    0    0    0    0  0.00000000000E+00  0.00000000000E+00  0.74505805969E-08  0.10566000000E+00  0.10566000000E+00 0.  1.
     999900   -1    0    0    0    0 -0.00000000000E+00 -0.00000000000E+00 -0.74505805969E-08  0.93827000000E+00  0.93827000000E+00 0. -1.
     999902    2    1    2    0    0  0.20570257899E-01  0.12839682038E-01 -0.98204519513E-02  0.10177683062E+01  0.10174320080E+01 0.  0.
     999903    2    3    3    0    0  0.10328148188E-01 -0.67894684386E-01  0.10467481969E+00  0.12662740493E+00  0.19008497818E-01 0.  0.
         14    1    1    2    0    0 -0.20570257899E-01 -0.12839682038E-01  0.98204519513E-02  0.26161693779E-01  0.00000000000E+00 0. -1.
     999901    1    3    3    0    0  0.10242109711E-01  0.80734366424E-01 -0.11449527164E+00  0.89114090129E+00  0.88000000000E+00 0. -1.
        -11    1    4    4    0    0  0.64702450131E-02 -0.31169254548E-01  0.32182134740E-01  0.45269608095E-01  0.51100000000E-03 0. -1.
         11    1    4    4    0    0  0.38579031751E-02 -0.36725429838E-01  0.72492684946E-01  0.81357796832E-01  0.51100000000E-03 0.  1.
</event>
<event>
 8    1  0.1123285E+005  0.1043930E+01  0.7957747E-01            NaN
         13   -1    0    0    0    0  0.00000000000E+00  0.00000000000E+00  0.74505805969E-08  0.10566000000E+00  0.10566000000E+00 0.  1.
     999900   -1    0    0    0    0 -0.00000000000E+00 -0.00000000000E+00 -0.74505805969E-08  0.93827000000E+00  0.93827000000E+00 0. -1.
     999902    2    1    2    0    0  0.13131326548E-01 -0.20223816371E-01  0.59837534635E-02  0.10190856890E+01  0.10187828040E+01 0.  0.
     999903    2    3    3    0    0 -0.12361469927E+00 -0.79434505534E-02  0.26368153205E-01  0.12820645656E+00  0.19948025440E-01 0.  0.
         14    1    1    2    0    0 -0.13131326548E-01  0.20223816371E-01 -0.59837534635E-02  0.24844311039E-01  0.00000000000E+00 0.  1.
     999901    1    3    3    0    0  0.13674602582E+00 -0.12280365817E-01 -0.20384399741E-01  0.89087923240E+00  0.88000000000E+00 0.  1.
        -11    1    4    4    0    0 -0.67641627129E-01 -0.26100198417E-02  0.24353893752E-01  0.71941470558E-01  0.51100000000E-03 0. -1.
         11    1    4    4    0    0 -0.55973072142E-01 -0.53334307117E-02  0.20142594528E-02  0.56264986007E-01  0.51100000000E-03 0.  1.
</event>
<event>
 8    1  0.1123285E+005  0.1043930E+01  0.7957747E-01            NaN
         13   -1    0    0    0    0  0.00000000000E+00  0.00000000000E+00  0.74505805969E-08  0.10566000000E+00  0.10566000000E+00 0. -1.
     999900   -1    0    0    0    0 -0.00000000000E+00 -0.00000000000E+00 -0.74505805969E-08  0.93827000000E+00  0.93827000000E+00 0. -1.
     999902    2    1    2    0    0  0.20524721480E-01  0.11053418304E-01  0.52270907986E-02  0.10200393172E+01  0.10197595029E+01 0.  0.
     999903    2    3    3    0    0 -0.42622210526E-02 -0.89970025501E-01  0.91029253555E-01  0.12976849329E+00  0.20994399966E-01 0.  0.
         14    1    1    2    0    0 -0.20524721480E-01 -0.11053418304E-01 -0.52270907986E-02  0.23890682834E-01  0.00000000000E+00 0. -1.
     999901    1    3    3    0    0  0.24786942533E-01  0.10102344381E+00 -0.85802162757E-01  0.89027082388E+00  0.88000000000E+00 0. -1.
        -11    1    4    4    0    0 -0.82496816059E-02 -0.16635378999E-01  0.13416923108E-01  0.22914362913E-01  0.51100000000E-03 0.  1.
         11    1    4    4    0    0  0.39874605532E-02 -0.73334646502E-01  0.77612330448E-01  0.10685413037E+00  0.51100000000E-03 0. -1.
</event>
<event>
 8    1  0.1123285E+005  0.1043930E+01  0.7957747E-01            NaN
         13   -1    0    0    0    0  0.00000000000E+00  0.00000000000E+00  0.74505805969E-08  0.10566000000E+00  0.10566000000E+00 0. -1.
     999900   -1    0    0    0    0 -0.00000000000E+00 -0.00000000000E+00 -0.74505805969E-08  0.93827000000E+00  0.93827000000E+00 0.  1.
     999902    2    1    2    0    0  0.15754031125E-01  0.78772828456E-02  0.16191358264E-01  0.10200050932E+01  0.10197244672E+01 0.  0.
     999903    2    3    3    0    0  0.16724639865E-01 -0.40742586611E-01 -0.11876947252E+00  0.12838899892E+00  0.20925474842E-01 0.  0.
         14    1    1    2    0    0 -0.15754031125E-01 -0.78772828456E-02 -0.16191358264E-01  0.23924906774E-01  0.00000000000E+00 0.  1.
     999901    1    3    3    0    0 -0.97060874041E-03  0.48619869456E-01  0.13496083078E+00  0.89161609431E+00  0.88000000000E+00 0. -1.
        -11    1    4    4    0    0  0.12672853176E-01 -0.41050782381E-01 -0.94932128700E-01  0.10420239019E+00  0.51100000000E-03 0.  1.
         11    1    4    4    0    0  0.40517866892E-02  0.30819577035E-03 -0.23837343821E-01  0.24186608722E-01  0.51100000000E-03 0. -1.
</event>
<event>
 8    1  0.1123285E+005  0.1043930E+01  0.7957747E-01            NaN
         13   -1    0    0    0    0  0.00000000000E+00  0.00000000000E+00  0.74505805969E-08  0.10566000000E+00  0.10566000000E+00 0. -1.
     999900   -1    0    0    0    0 -0.00000000000E+00 -0.00000000000E+00 -0.74505805969E-08  0.93827000000E+00  0.93827000000E+00 0.  1.
     999902    2    1    2    0    0  0.74914370523E-02 -0.74213639884E-02 -0.19928288583E-01  0.10213837152E+01  0.10211348387E+01 0.  0.
     999903    2    3    3    0    0 -0.11567206295E+00  0.48587955464E-01  0.26722384780E-01  0.12982184021E+00  0.19970197428E-01 0.  0.
         14    1    1    2    0    0 -0.74914370523E-02  0.74213639884E-02  0.19928288583E-01  0.22546284802E-01  0.00000000000E+00 0. -1.
     999901    1    3    3    0    0  0.12316350000E+00 -0.56009319452E-01 -0.46650673363E-01  0.89156187498E+00  0.88000000000E+00 0.  1.
        -11    1    4    4    0    0 -0.95394718508E-02  0.66091646318E-02  0.81405854909E-02  0.14184950950E-01  0.51100000000E-03 0.  1.
         11    1    4    4    0    0 -0.10613259110E+00  0.41978790832E-01  0.18581799290E-01  0.11563688926E+00  0.51100000000E-03 0. -1.
</event>
<event>
 8    1  0.1123285E+005  0.1043930E+01  0.7957747E-01            NaN
         13   -1    0    0    0    0  0.00000000000E+00  0.00000000000E+00  0.74505805969E-08  0.10566000000E+00  0.10566000000E+00 0. -1.
     999900   -1    0    0    0    0 -0.00000000000E+00 -0.00000000000E+00 -0.74505805969E-08  0.93827000000E+00  0.93827000000E+00 0. -1.
     999902    2    1    2    0    0 -0.13226238093E-02  0.16030614594E-01 -0.12686028761E-01  0.10234442668E+01  0.10232392203E+01 0.  0.
     999903    2    3    3    0    0 -0.86651063764E-01 -0.85480783725E-01 -0.49045607045E-01  0.13276614001E+00  0.20149568854E-01 0.  0.
         14    1    1    2    0    0  0.13226238093E-02 -0.16030614594E-01  0.12686028761E-01  0.20485733175E-01  0.00000000000E+00 0.  1.
     999901    1    3    3    0    0  0.85328439954E-01  0.10151139832E+00  0.36359578284E-01  0.89067812682E+00  0.88000000000E+00 0.  1.
        -11    1    4    4    0    0 -0.40427871272E-01 -0.48186563636E-01 -0.16457853026E-01  0.65019072109E-01  0.51100000000E-03 0.  1.
         11    1    4    4    0    0 -0.46223192492E-01 -0.37294220089E-01 -0.32587754019E-01  0.67747067901E-01  0.51100000000E-03 0. -1.
</event>
<event>
 8    1  0.1123285E+005  0.1043930E+01  0.7957747E-01            NaN
         13   -1    0    0    0    0  0.00000000000E+00  0.00000000000E+00  0.74505805969E-08  0.10566000000E+00  0.10566000000E+00 0. -1.
     999900   -1    0    0    0    0 -0.00000000000E+00 -0.00000000000E+00 -0.74505805969E-08  0.93827000000E+00  0.93827000000E+00 0. -1.
     999902    2    1    2    0    0 -0.21094122094E-02  0.47094029171E-02  0.23124682746E-01  0.10202365611E+01  0.10199614020E+01 0.  0.
     999903    2    3    3    0    0  0.27994137144E-01 -0.95933337842E-01  0.83565514503E-01  0.13193015049E+00  0.20868453956E-01 0.  0.
         14    1    1    2    0    0  0.21094122094E-02 -0.47094029171E-02 -0.23124682746E-01  0.23693438919E-01  0.00000000000E+00 0.  1.
     999901    1    3    3    0    0 -0.30103549353E-01  0.10064274076E+00 -0.60440831757E-01  0.88830641059E+00  0.88000000000E+00 0. -1.
        -11    1    4    4    0    0  0.14919301456E-01 -0.54513832951E-01  0.33725604794E-01  0.65818090816E-01  0.51100000000E-03 0.  1.
         11    1    4    4    0    0  0.13074835688E-01 -0.41419504891E-01  0.49839909709E-01  0.66112059675E-01  0.51100000000E-03 0. -1.
</event>
<event>
 7    1  0.1123285E+005  0.1043930E+01  0.7957747E-01            NaN
         13   -1    0    0    0    0  0.00000000000E+00  0.00000000000E+00  0.74505805969E-08  0.10566000000E+00  0.10566000000E+00 0. -1.
     999900   -1    0    0    0    0 -0.00000000000E+00 -0.00000000000E+00 -0.74505805969E-08  0.93827000000E+00  0.93827000000E+00 0.  1.
     999902    2    1    2    0    0 -0.45883761233E-02 -0.16518798002E-01  0.16997073039E-01  0.10197882442E+01  0.10195024466E+01 0.  0.
         14    1    1    2    0    0  0.45883761233E-02  0.16518798002E-01 -0.16997073039E-01  0.24141755834E-01  0.00000000000E+00 0.  1.
     999901    1    3    3    0    0 -0.21487418182E-01 -0.19708625002E-01  0.13830312743E+00  0.89127879706E+00  0.88000000000E+00 0. -1.
        -11    1    3    3    0    0 -0.87385876604E-02  0.10040084658E-01 -0.22005859040E-01  0.25723241773E-01  0.51100000000E-03 0. -1.
         11    1    3    3    0    0  0.25637629719E-01 -0.68502576583E-02 -0.99300195353E-01  0.10278620533E+00  0.51100000000E-03 0.  1.
</event>
<event>
 8    1  0.1123285E+005  0.1043930E+01  0.7957747E-01            NaN
         13   -1    0    0    0    0  0.00000000000E+00  0.00000000000E+00  0.74505805969E-08  0.10566000000E+00  0.10566000000E+00 0.  1.
     999900   -1    0    0    0    0 -0.00000000000E+00 -0.00000000000E+00 -0.74505805969E-08  0.93827000000E+00  0.93827000000E+00 0.  1.
     999902    2    1    2    0    0  0.96302620648E-02  0.17766095449E-01 -0.11527222807E-01  0.10206651561E+01  0.10203999745E+01 0.  0.
     999903    2    3    3    0    0 -0.68679846271E-02 -0.12332389135E+00 -0.31218966373E-01  0.12905630619E+00  0.20614434603E-01 0.  0.
         14    1    1    2    0    0 -0.96302620648E-02 -0.17766095449E-01  0.11527222807E-01  0.23264843876E-01  0.00000000000E+00 0. -1.
     999901    1    3    3    0    0  0.16498246692E-01  0.14108998680E+00  0.19691743565E-01  0.89160884994E+00  0.88000000000E+00 0.  1.
        -11    1    4    4    0    0 -0.11632265978E-01 -0.76204130226E-01 -0.12341728228E-01  0.78070214883E-01  0.51100000000E-03 0. -1.
         11    1    4    4    0    0  0.47642813512E-02 -0.47119761128E-01 -0.18877238145E-01  0.50986091304E-01  0.51100000000E-03 0.  1.
</event>
<event>
 8    1  0.1123285E+005  0.1043930E+01  0.7957747E-01            NaN
         13   -1    0    0    0    0  0.00000000000E+00  0.00000000000E+00  0.74505805969E-08  0.10566000000E+00  0.10566000000E+00 0. -1.
     999900   -1    0    0    0    0 -0.00000000000E+00 -0.00000000000E+00 -0.74505805969E-08  0.93827000000E+00  0.93827000000E+00 0.  1.
     999902    2    1    2    0    0 -0.13669581575E-01 -0.23719033953E-02 -0.18098305545E-01  0.10211257888E+01  0.10208711204E+01 0.  0.
     999903    2    3    3    0    0 -0.10589739879E-02 -0.98768793516E-01  0.83582268785E-01  0.12995222148E+00  0.12049407158E-01 0.  0.
         14    1    1    2    0    0  0.13669581575E-01  0.23719033953E-02  0.18098305545E-01  0.22804211228E-01  0.00000000000E+00 0. -1.
     999901    1    3    3    0    0 -0.12610607587E-01  0.96396890121E-01 -0.10168057433E+00  0.89117356729E+00  0.88000000000E+00 0. -1.
        -11    1    4    4    0    0  0.54606925882E-02 -0.50485723652E-01  0.42628205154E-01  0.66302733367E-01  0.51100000000E-03 0.  1.
         11    1    4    4    0    0 -0.65196665761E-02 -0.48283069864E-01  0.40954063631E-01  0.63649488110E-01  0.51100000000E-03 0. -1.
</event>
<event>
 8    1  0.1123285E+005  0.1043930E+01  0.7957747E-01            NaN
         13   -1    0    0    0    0  0.00000000000E+00  0.00000000000E+00  0.74505805969E-08  0.10566000000E+00  0.10566000000E+00 0. -1.
     999900   -1    0    0    0    0 -0.00000000000E+00 -0.00000000000E+00 -0.74505805969E-08  0.93827000000E+00  0.93827000000E+00 0.  1.
     999902    2    1    2    0    0  0.19820756130E-01 -0.81861072587E-02  0.10913526100E-01  0.10198680014E+01  0.10195841115E+01 0.  0.
     999903    2    3    3    0    0  0.15580616541E-01 -0.23527080271E-02  0.12962872444E+00  0.13186726622E+00  0.18359707304E-01 0.  0.
         14    1    1    2    0    0 -0.19820756130E-01  0.81861072587E-02 -0.10913526100E-01  0.24061998619E-01  0.00000000000E+00 0.  1.
     999901    1    3    3    0    0  0.42401395888E-02 -0.58333992316E-02 -0.11871519834E+00  0.88800073516E+00  0.88000000000E+00 0.  1.
        -11    1    4    4    0    0  0.14762479002E-01  0.58823866504E-02  0.84126761189E-01  0.85616040133E-01  0.51100000000E-03 0.  1.
         11    1    4    4    0    0  0.81813753920E-03 -0.82350946775E-02  0.45501963255E-01  0.46251226086E-01  0.51100000000E-03 0. -1.
</event>
<event>
 8    1  0.1123285E+005  0.1043930E+01  0.7957747E-01            NaN
         13   -1    0    0    0    0  0.00000000000E+00  0.00000000000E+00  0.74505805969E-08  0.10566000000E+00  0.10566000000E+00 0.  1.
     999900   -1    0    0    0    0 -0.00000000000E+00 -0.00000000000E+00 -0.74505805969E-08  0.93827000000E+00  0.93827000000E+00 0. -1.
     999902    2    1    2    0    0  0.22007860277E-01 -0.89129462721E-02 -0.74406286833E-03  0.10201741554E+01  0.10198975277E+01 0.  0.
     999903    2    3    3    0    0 -0.48473779010E-01 -0.33567536767E-02  0.11855426545E+00  0.12931466930E+00  0.17498422561E-01 0.  0.
         14    1    1    2    0    0 -0.22007860277E-01  0.89129462721E-02  0.74406286833E-03  0.23755844644E-01  0.00000000000E+00 0.  1.
     999901    1    3    3    0    0  0.70481639287E-01 -0.55561925955E-02 -0.11929832832E+00  0.89085948605E+00  0.88000000000E+00 0. -1.
        -11    1    4    4    0    0 -0.25694765103E-01 -0.99270798773E-02  0.71466886026E-01  0.76593373002E-01  0.51100000000E-03 0. -1.
         11    1    4    4    0    0 -0.22779013907E-01  0.65703262007E-02  0.47087379429E-01  0.52721296299E-01  0.51100000000E-03 0.  1.
</event>
<event>
 8    1  0.1123285E+005  0.1043930E+01  0.7957747E-01            NaN
         13   -1    0    0    0    0  0.00000000000E+00  0.00000000000E+00  0.74505805969E-08  0.10566000000E+00  0.10566000000E+00 0.  1.
     999900   -1    0    0    0    0 -0.00000000000E+00 -0.00000000000E+00 -0.74505805969E-08  0.93827000000E+00  0.93827000000E+00 0. -1.
     999902    2    1    2    0    0 -0.22990877531E-01  0.73803914355E-02 -0.12320662372E-01  0.10168218951E+01  0.10164604848E+01 0.  0.
     999903    2    3    3    0    0 -0.49567305350E-01  0.13022310127E-02 -0.11861565801E+00  0.13000631305E+00  0.19322358621E-01 0.  0.
         14    1    1    2    0    0  0.22990877531E-01 -0.73803914355E-02  0.12320662372E-01  0.27108104851E-01  0.00000000000E+00 0.  1.
     999901    1    3    3    0    0  0.26576427820E-01  0.60781604228E-02  0.10629499564E+00  0.88681558210E+00  0.88000000000E+00 0.  1.
        -11    1    4    4    0    0 -0.22809741727E-01 -0.34663859757E-02 -0.76280960093E-01  0.79695333258E-01  0.51100000000E-03 0. -1.
         11    1    4    4    0    0 -0.26757563623E-01  0.47686169884E-02 -0.42334697919E-01  0.50310979794E-01  0.51100000000E-03 0.  1.
</event>
<event>
 8    1  0.1123285E+005  0.1043930E+01  0.7957747E-01            NaN
         13   -1    0    0    0    0  0.00000000000E+00  0.00000000000E+00  0.74505805969E-08  0.10566000000E+00  0.10566000000E+00 0.  1.
     999900   -1    0    0    0    0 -0.00000000000E+00 -0.00000000000E+00 -0.74505805969E-08  0.93827000000E+00  0.93827000000E+00 0.  1.
     999902    2    1    2    0    0  0.76433879752E-02 -0.65795034867E-02  0.21426944728E-01  0.10202482516E+01  0.10199733672E+01 0.  0.
     999903    2    3    3    0    0 -0.10106038631E-01 -0.77599548884E-01  0.10582137550E+00  0.13318494557E+00  0.20402063903E-01 0.  0.
         14    1    1    2    0    0 -0.76433879752E-02  0.65795034867E-02 -0.21426944728E-01  0.23681748378E-01  0.00000000000E+00 0. -1.
     999901    1    3    3    0    0  0.17749426606E-01  0.71020045397E-01 -0.84394430769E-01  0.88706330605E+00  0.88000000000E+00 0.  1.
        -11    1    4    4    0    0 -0.13124719655E-01 -0.52426568935E-01  0.59541767109E-01  0.80413223712E-01  0.51100000000E-03 0. -1.
         11    1    4    4    0    0  0.30186810246E-02 -0.25172979948E-01  0.46279608388E-01  0.52771721861E-01  0.51100000000E-03 0.  1.
</event>
<event>
 8    1  0.1123285E+005  0.1043930E+01  0.7957747E-01            NaN
         13   -1    0    0    0    0  0.00000000000E+00  0.00000000000E+00  0.74505805969E-08  0.10566000000E+00  0.10566000000E+00 0.  1.
     999900   -1    0    0    0    0 -0.00000000000E+00 -0.00000000000E+00 -0.74505805969E-08  0.93827000000E+00  0.93827000000E+00 0.  1.
     999902    2    1    2    0    0  0.67131917413E-02 -0.16756504023E-01 -0.16143291249E-01  0.10197132037E+01  0.10194256052E+01 0.  0.
     999903    2    3    3    0    0 -0.53499316960E-01 -0.14559632417E-01  0.11372148113E+00  0.12814423186E+00  0.20352127126E-01 0.  0.
         14    1    1    2    0    0 -0.67131917413E-02  0.16756504023E-01  0.16143291249E-01  0.24216796294E-01  0.00000000000E+00 0.  1.
     999901    1    3    3    0    0  0.60212508701E-01 -0.21968716055E-02 -0.12986477238E+00  0.89156897184E+00  0.88000000000E+00 0.  1.
        -11    1    4    4    0    0 -0.14236283789E-01 -0.51905934122E-02  0.53782266950E-01  0.55878505665E-01  0.51100000000E-03 0.  1.
         11    1    4    4    0    0 -0.39263033171E-01 -0.93690390048E-02  0.59939214178E-01  0.72265726198E-01  0.51100000000E-03 0. -1.
</event>
<event>
 8    1  0.1123285E+005  0.1043930E+01  0.7957747E-01            NaN
         13   -1    0    0    0    0  0.00000000000E+00  0.00000000000E+00  0.74505805969E-08  0.10566000000E+00  0.10566000000E+00 0. -1.
     999900   -1    0    0    0    0 -0.00000000000E+00 -0.00000000000E+00 -0.74505805969E-08  0.93827000000E+00  0.93827000000E+00 0. -1.
     999902    2    1    2    0    0 -0.38642822515E-02 -0.14113467281E-01  0.18612214740E-01  0.10202543337E+01  0.10199795921E+01 0.  0.
     999903    2    3    3    0    0  0.14819105634E-01  0.46623530502E-01  0.12108679753E+00  0.13203189987E+00  0.19417789742E-01 0.  0.
         14    1    1    2    0    0  0.38642822515E-02  0.14113467281E-01 -0.18612214740E-01  0.23675666274E-01  0.00000000000E+00 0.  1.
     999901    1    3    3    0    0 -0.18683387886E-01 -0.60736997783E-01 -0.10247458279E+00  0.88822243385E+00  0.88000000000E+00 0. -1.
        -11    1    4    4    0    0  0.21123917625E-02  0.26889233398E-01  0.83166956061E-01  0.87432812909E-01  0.51100000000E-03 0.  1.
         11    1    4    4    0    0  0.12706713872E-01  0.19734297104E-01  0.37919841473E-01  0.44599086963E-01  0.51100000000E-03 0. -1.
</event>
<event>
 8    1  0.1123285E+005  0.1043930E+01  0.7957747E-01            NaN
         13   -1    0    0    0    0  0.00000000000E+00  0.00000000000E+00  0.74505805969E-08  0.10566000000E+00  0.10566000000E+00 0. -1.
     999900   -1    0    0    0    0 -0.00000000000E+00 -0.00000000000E+00 -0.74505805969E-08  0.93827000000E+00  0.93827000000E+00 0. -1.
     999902    2    1    2    0    0 -0.20038692333E-01  0.16832009001E-01 -0.51917502025E-02  0.10172500452E+01  0.10169001104E+01 0.  0.
     999903    2    3    3    0    0 -0.97831997238E-01  0.65937031796E-01 -0.53641800958E-01  0.13112899876E+00  0.19964459896E-01 0.  0.
         14    1    1    2    0    0  0.20038692333E-01 -0.16832009001E-01  0.51917502025E-02  0.26679954790E-01  0.00000000000E+00 0. -1.
     999901    1    3    3    0    0  0.77793304904E-01 -0.49105022795E-01  0.48450050755E-01  0.88612104645E+00  0.88000000000E+00 0.  1.
        -11    1    4    4    0    0 -0.36345530059E-01  0.14319348403E-01 -0.13213465831E-01  0.41241945810E-01  0.51100000000E-03 0. -1.
         11    1    4    4    0    0 -0.61486467179E-01  0.51617683393E-01 -0.40428335126E-01  0.89887052945E-01  0.51100000000E-03 0.  1.
</event>
<event>
 8    1  0.1123285E+005  0.1043930E+01  0.7957747E-01            NaN
         13   -1    0    0    0    0  0.00000000000E+00  0.00000000000E+00  0.74505805969E-08  0.10566000000E+00  0.10566000000E+00 0.  1.
     999900   -1    0    0    0    0 -0.00000000000E+00 -0.00000000000E+00 -0.74505805969E-08  0.93827000000E+00  0.93827000000E+00 0.  1.
     999902    2    1    2    0    0  0.23745491361E-01  0.93050531616E-02 -0.22543802246E-01  0.10098909725E+01  0.10093171558E+01 0.  0.
     999903    2    3    3    0    0 -0.21613905703E-01 -0.99508390110E-01  0.54557243588E-01  0.11868818321E+00  0.27227034081E-01 0.  0.
         14    1    1    2    0    0 -0.23745491361E-01 -0.93050531616E-02  0.22543802246E-01  0.34039027513E-01  0.00000000000E+00 0.  1.
     999901    1    3    3    0    0  0.45359397064E-01  0.10881344327E+00 -0.77101045834E-01  0.89120278927E+00  0.88000000000E+00 0.  1.
        -11    1    4    4    0    0 -0.10895568179E-01 -0.47446142876E-01  0.41450816077E-01  0.63939668081E-01  0.51100000000E-03 0.  1.
         11    1    4    4    0    0 -0.10718337524E-01 -0.52062247233E-01  0.13106427511E-01  0.54748515134E-01  0.51100000000E-03 0. -1.
</event>
<event>
 8    1  0.1123285E+005  0.1043930E+01  0.7957747E-01            NaN
         13   -1    0    0    0    0  0.00000000000E+00  0.00000000000E+00  0.74505805969E-08  0.10566000000E+00  0.10566000000E+00 0. -1.
     999900   -1    0    0    0    0 -0.00000000000E+00 -0.00000000000E+00 -0.74505805969E-08  0.93827000000E+00  0.93827000000E+00 0. -1.
     999902    2    1    2    0    0 -0.18853463159E-01 -0.58299245157E-02 -0.12975525641E-01  0.10203120967E+01  0.10200387097E+01 0.  0.
     999903    2    3    3    0    0 -0.19690042001E-01 -0.44391926273E-01  0.11862348737E+00  0.12969094932E+00  0.19745118558E-01 0.  0.
         14    1    1    2    0    0  0.18853463159E-01  0.58299245157E-02  0.12975525641E-01  0.23617903349E-01  0.00000000000E+00 0. -1.
     999901    1    3    3    0    0  0.83657884247E-03  0.38562001757E-01 -0.13159901302E+00  0.89062114733E+00  0.88000000000E+00 0. -1.
        -11    1    4    4    0    0 -0.35540537309E-02 -0.11249469810E-01  0.54143959406E-01  0.55416706237E-01  0.51100000000E-03 0.  1.
         11    1    4    4    0    0 -0.16135988270E-01 -0.33142456463E-01  0.64479527968E-01  0.74274243085E-01  0.51100000000E-03 0. -1.
</event>
<event>
 8    1  0.1123285E+005  0.1043930E+01  0.7957747E-01            NaN
         13   -1    0    0    0    0  0.00000000000E+00  0.00000000000E+00  0.74505805969E-08  0.10566000000E+00  0.10566000000E+00 0. -1.
     999900   -1    0    0    0    0 -0.00000000000E+00 -0.00000000000E+00 -0.74505805969E-08  0.93827000000E+00  0.93827000000E+00 0. -1.
     999902    2    1    2    0    0  0.13890221808E-01 -0.17754448695E-01 -0.68332553343E-02  0.10203747015E+01  0.10201027788E+01 0.  0.
     999903    2    3    3    0    0  0.45641960173E-01  0.11919396669E+00 -0.33690175270E-02  0.12920970984E+00  0.19834530852E-01 0.  0.
         14    1    1    2    0    0 -0.13890221808E-01  0.17754448695E-01  0.68332553343E-02  0.23555298529E-01  0.00000000000E+00 0.  1.
     999901    1    3    3    0    0 -0.31751738365E-01 -0.13694841538E+00 -0.34642378072E-02  0.89116499163E+00  0.88000000000E+00 0.  1.
        -11    1    4    4    0    0  0.14389265395E-01  0.42694115241E-01  0.80988359416E-02  0.45778714480E-01  0.51100000000E-03 0. -1.
         11    1    4    4    0    0  0.31252694778E-01  0.76499851449E-01 -0.11467853469E-01  0.83430995360E-01  0.51100000000E-03 0.  1.
</event>
<event>
 8    1  0.1123285E+005  0.1043930E+01  0.7957747E-01            NaN
         13   -1    0    0    0    0  0.00000000000E+00  0.00000000000E+00  0.74505805969E-08  0.10566000000E+00  0.10566000000E+00 0. -1.
     999900   -1    0    0    0    0 -0.00000000000E+00 -0.00000000000E+00 -0.74505805969E-08  0.93827000000E+00  0.93827000000E+00 0.  1.
     999902    2    1    2    0    0  0.68001522950E-02 -0.19751049257E-01  0.11312878984E-01  0.10201744270E+01  0.10198978058E+01 0.  0.
     999903    2    3    3    0    0  0.10252766209E-02  0.14366542518E-01 -0.12637960771E+00  0.12879539417E+00  0.20223738029E-01 0.  0.
         14    1    1    2    0    0 -0.68001522950E-02  0.19751049257E-01 -0.11312878984E-01  0.23755573007E-01  0.00000000000E+00 0.  1.
     999901    1    3    3    0    0  0.57748756741E-02 -0.34117591775E-01  0.13769248669E+00  0.89137903282E+00  0.88000000000E+00 0. -1.
        -11    1    4    4    0    0 -0.86265847608E-02  0.83406854441E-02 -0.43158225692E-01  0.44798198225E-01  0.51100000000E-03 0. -1.
         11    1    4    4    0    0  0.96518613817E-02  0.60258570737E-02 -0.83221382016E-01  0.83997195949E-01  0.51100000000E-03 0.  1.
</event>
<event>
 8    1  0.1123285E+005  0.1043930E+01  0.7957747E-01            NaN
         13   -1    0    0    0    0  0.00000000000E+00  0.00000000000E+00  0.74505805969E-08  0.10566000000E+00  0.10566000000E+00 0.  1.
     999900   -1    0    0    0    0 -0.00000000000E+00 -0.00000000000E+00 -0.74505805969E-08  0.93827000000E+00  0.93827000000E+00 0.  1.
     999902    2    1    2    0    0  0.13779613432E-01 -0.64419934144E-02 -0.18254983087E-01  0.10201682359E+01  0.10198914688E+01 0.  0.
     999903    2    3    3    0    0  0.46202264150E-01  0.36011451361E-01  0.11298582766E+00  0.12883346509E+00  0.20019756093E-01 0.  0.
         14    1    1    2    0    0 -0.13779613432E-01  0.64419934144E-02  0.18254983087E-01  0.23761764097E-01  0.00000000000E+00 0.  1.
     999901    1    3    3    0    0 -0.32422650718E-01 -0.42453444775E-01 -0.13124081075E+00  0.89133477081E+00  0.88000000000E+00 0.  1.
        -11    1    4    4    0    0  0.28921173588E-01  0.30326708244E-01  0.63270883444E-01  0.75892090018E-01  0.51100000000E-03 0.  1.
         11    1    4    4    0    0  0.17281090562E-01  0.56847431173E-02  0.49714944215E-01  0.52941375073E-01  0.51100000000E-03 0. -1.
</event>
<event>
 8    1  0.1123285E+005  0.1043930E+01  0.7957747E-01            NaN
         13   -1    0    0    0    0  0.00000000000E+00  0.00000000000E+00  0.74505805969E-08  0.10566000000E+00  0.10566000000E+00 0.  1.
     999900   -1    0    0    0    0 -0.00000000000E+00 -0.00000000000E+00 -0.74505805969E-08  0.93827000000E+00  0.93827000000E+00 0.  1.
     999902    2    1    2    0    0  0.86662018582E-02  0.22310985195E-01  0.85004195992E-02  0.10185303888E+01  0.10182136380E+01 0.  0.
     999903    2    3    3    0    0 -0.72932853851E-01 -0.20243265038E-01  0.10228242567E+00  0.12877517823E+00  0.19808103780E-01 0.  0.
         14    1    1    2    0    0 -0.86662018582E-02 -0.22310985195E-01 -0.85004195992E-02  0.25399611186E-01  0.00000000000E+00 0.  1.
     999901    1    3    3    0    0  0.81599055709E-01  0.42554250233E-01 -0.93782006074E-01  0.88975521059E+00  0.88000000000E+00 0.  1.
        -11    1    4    4    0    0 -0.46164412165E-01 -0.31048495267E-02  0.64859327615E-01  0.79672997564E-01  0.51100000000E-03 0.  1.
         11    1    4    4    0    0 -0.26768441685E-01 -0.17138415511E-01  0.37423098058E-01  0.49102180662E-01  0.51100000000E-03 0. -1.
</event>
<event>
 8    1  0.1123285E+005  0.1043930E+01  0.7957747E-01            NaN
         13   -1    0    0    0    0  0.00000000000E+00  0.00000000000E+00  0.74505805969E-08  0.10566000000E+00  0.10566000000E+00 0. -1.
     999900   -1    0    0    0    0 -0.00000000000E+00 -0.00000000000E+00 -0.74505805969E-08  0.93827000000E+00  0.93827000000E+00 0.  1.
     999902    2    1    2    0    0 -0.18418472398E-01 -0.36685272335E-02  0.13337710384E-01  0.10208954013E+01  0.10206355019E+01 0.  0.
     999903    2    3    3    0    0 -0.10719987624E+00  0.49522386335E-01 -0.54269804533E-01  0.13225476135E+00  0.24532223728E-01 0.  0.
         14    1    1    2    0    0  0.18418472398E-01  0.36685272335E-02 -0.13337710384E-01  0.23034598668E-01  0.00000000000E+00 0. -1.
     999901    1    3    3    0    0  0.88781403845E-01 -0.53190913568E-01  0.67607514917E-01  0.88864063998E+00  0.88000000000E+00 0. -1.
        -11    1    4    4    0    0 -0.12753100814E-01  0.15054025476E-01 -0.12632023828E-01  0.23432763609E-01  0.51100000000E-03 0. -1.
         11    1    4    4    0    0 -0.94446775429E-01  0.34468360859E-01 -0.41637780705E-01  0.10882199774E+00  0.51100000000E-03 0.  1.
</event>
<event>
 8    1  0.1123285E+005  0.1043930E+01  0.7957747E-01            NaN
         13   -1    0    0    0    0  0.00000000000E+00  0.00000000000E+00  0.74505805969E-08  0.10566000000E+00  0.10566000000E+00 0.  1.
     999900   -1    0    0    0    0 -0.00000000000E+00 -0.00000000000E+00 -0.74505805969E-08  0.93827000000E+00  0.93827000000E+00 0.  1.
     999902    2    1    2    0    0 -0.20723222612E-01  0.84517667607E-03  0.11408813472E-01  0.10202587663E+01  0.10199841288E+01 0.  0.
     999903    2    3    3    0    0 -0.12941566276E+00 -0.22693825955E-01  0.90691494376E-02  0.13325617037E+00  0.20286300003E-01 0.  0.
         14    1    1    2    0    0  0.20723222612E-01 -0.84517667607E-03 -0.11408813472E-01  0.23671233679E-01  0.00000000000E+00 0. -1.
     999901    1    3    3    0    0  0.10869244015E+00  0.23539002631E-01  0.23396640343E-02  0.88700259595E+00  0.88000000000E+00 0.  1.
        -11    1    4    4    0    0 -0.61890913964E-01 -0.18573856484E-02  0.91127561372E-02  0.62587846729E-01  0.51100000000E-03 0. -1.
         11    1    4    4    0    0 -0.67524748793E-01 -0.20836440307E-01 -0.43606699664E-04  0.70668323645E-01  0.51100000000E-03 0.  1.
</event>
<event>
 8    1  0.1123285E+005  0.1043930E+01  0.7957747E-01            NaN
         13   -1    0    0    0    0  0.00000000000E+00  0.00000000000E+00  0.74505805969E-08  0.10566000000E+00  0.10566000000E+00 0. -1.
     999900   -1    0    0    0    0 -0.00000000000E+00 -0.00000000000E+00 -0.74505805969E-08  0.93827000000E+00  0.93827000000E+00 0. -1.
     999902    2    1    2    0    0  0.11792650270E-01 -0.20592719106E-01 -0.41873159180E-02  0.10198331061E+01  0.10195483824E+01 0.  0.
     999903    2    3    3    0    0  0.65363259171E-01  0.29011017823E-01 -0.10779390728E+00  0.13075230740E+00  0.19043230820E-01 0.  0.
         14    1    1    2    0    0 -0.11792650270E-01  0.20592719106E-01  0.41873159180E-02  0.24096893890E-01  0.00000000000E+00 0. -1.
     999901    1    3    3    0    0 -0.53570608901E-01 -0.49603736929E-01  0.10360659136E+00  0.88908079871E+00  0.88000000000E+00 0.  1.
        -11    1    4    4    0    0  0.28458279170E-01  0.37380934431E-02 -0.50186692713E-01  0.57817058403E-01  0.51100000000E-03 0.  1.
         11    1    4    4    0    0  0.36904980001E-01  0.25272924380E-01 -0.57607214566E-01  0.72935249000E-01  0.51100000000E-03 0. -1.
</event>
<event>
 8    1  0.1123285E+005  0.1043930E+01  0.7957747E-01            NaN
         13   -1    0    0    0    0  0.00000000000E+00  0.00000000000E+00  0.74505805969E-08  0.10566000000E+00  0.10566000000E+00 0.  1.
     999900   -1    0    0    0    0 -0.00000000000E+00 -0.00000000000E+00 -0.74505805969E-08  0.93827000000E+00  0.93827000000E+00 0. -1.
     999902    2    1    2    0    0 -0.32343465260E-02  0.13262941363E-02 -0.22059379823E-01  0.10215953567E+01  0.10213511818E+01 0.  0.
     999903    2    3    3    0    0  0.10784390324E-01 -0.25277151965E-02  0.12696595571E+00  0.12894764958E+00  0.19607396675E-01 0.  0.
         14    1    1    2    0    0  0.32343465260E-02 -0.13262941363E-02  0.22059379823E-01  0.22334643310E-01  0.00000000000E+00 0.  1.
     999901    1    3    3    0    0 -0.14018736850E-01  0.38540093328E-02 -0.14902533554E+00  0.89264770711E+00  0.88000000000E+00 0. -1.
        -11    1    4    4    0    0  0.10772881438E-01 -0.10160948535E-01  0.87788262995E-01  0.89029995453E-01  0.51100000000E-03 0. -1.
         11    1    4    4    0    0  0.11508886530E-04  0.76332333388E-02  0.39177692717E-01  0.39917654131E-01  0.51100000000E-03 0.  1.
</event>
<event>
 8    1  0.1123285E+005  0.1043930E+01  0.7957747E-01            NaN
         13   -1    0    0    0    0  0.00000000000E+00  0.00000000000E+00  0.74505805969E-08  0.10566000000E+00  0.10566000000E+00 0. -1.
     999900   -1    0    0    0    0 -0.00000000000E+00 -0.00000000000E+00 -0.74505805969E-08  0.93827000000E+00  0.93827000000E+00 0. -1.
     999902    2    1    2    0    0 -0.21586503293E-02  0.22777823763E-01  0.24939837407E-02  0.10209145925E+01  0.10206551309E+01 0.  0.
     999903    2    3    3    0    0 -0.89695058543E-01  0.83833966903E-01  0.47829374418E-01  0.13330782541E+00  0.20248202965E-01 0.  0.
         14    1    1    2    0    0  0.21586503293E-02 -0.22777823763E-01 -0.24939837407E-02  0.23015407481E-01  0.00000000000E+00 0.  1.
     999901    1    3    3    0    0  0.87536408214E-01 -0.61056143140E-01 -0.45335390678E-01  0.88760676711E+00  0.88000000000E+00 0.  1.
        -11    1    4    4    0    0 -0.51464668772E-01  0.60277198839E-01  0.26336602986E-01  0.83521438024E-01  0.51100000000E-03 0.  1.
         11    1    4    4    0    0 -0.38230389772E-01  0.23556768064E-01  0.21492771432E-01  0.49786387382E-01  0.51100000000E-03 0. -1.
</event>
<event>
 8    1  0.1123285E+005  0.1043930E+01  0.7957747E-01            NaN
         13   -1    0    0    0    0  0.00000000000E+00  0.00000000000E+00  0.74505805969E-08  0.10566000000E+00  0.10566000000E+00 0. -1.
     999900   -1    0    0    0    0 -0.00000000000E+00 -0.00000000000E+00 -0.74505805969E-08  0.93827000000E+00  0.93827000000E+00 0.  1.
     999902    2    1    2    0    0  0.56295961954E-02  0.22061542164E-01 -0.25828081438E-02  0.10210154873E+01  0.10207583212E+01 0.  0.
     999903    2    3    3    0    0 -0.10116832735E+00  0.23636090043E-01 -0.77056680762E-01  0.13143433112E+00  0.23314290367E-01 0.  0.
         14    1    1    2    0    0 -0.56295961954E-02 -0.22061542164E-01  0.25828081438E-02  0.22914512735E-01  0.00000000000E+00 0.  1.
     999901    1    3    3    0    0  0.10679792354E+00 -0.15745478792E-02  0.74473872619E-01  0.88958115615E+00  0.88000000000E+00 0. -1.
        -11    1    4    4    0    0 -0.24838323106E-01  0.41129760696E-02 -0.31833499572E-01  0.40589305031E-01  0.51100000000E-03 0. -1.
         11    1    4    4    0    0 -0.76330004240E-01  0.19523113973E-01 -0.45223181190E-01  0.90845026085E-01  0.51100000000E-03 0.  1.
</event>
<event>
 8    1  0.1123285E+005  0.1043930E+01  0.7957747E-01            NaN
         13   -1    0    0    0    0  0.00000000000E+00  0.00000000000E+00  0.74505805969E-08  0.10566000000E+00  0.10566000000E+00 0. -1.
     999900   -1    0    0    0    0 -0.00000000000E+00 -0.00000000000E+00 -0.74505805969E-08  0.93827000000E+00  0.93827000000E+00 0. -1.
     999902    2    1    2    0    0  0.18753719393E-01 -0.52048418330E-02  0.13505640621E-01  0.10202404517E+01  0.10199653840E+01 0.  0.
     999903    2    3    3    0    0 -0.35338550494E-01 -0.31492441654E-01  0.12125819483E+00  0.13163051225E+00  0.19556454444E-01 0.  0.
         14    1    1    2    0    0 -0.18753719393E-01  0.52048418330E-02 -0.13505640621E-01  0.23689548290E-01  0.00000000000E+00 0.  1.
     999901    1    3    3    0    0  0.54092269887E-01  0.26287599821E-01 -0.10775255421E+00  0.88860993946E+00  0.88000000000E+00 0. -1.
        -11    1    4    4    0    0 -0.36266114592E-01 -0.24180401102E-01  0.98822281658E-01  0.10800938542E+00  0.51100000000E-03 0. -1.
         11    1    4    4    0    0  0.92756409772E-03 -0.73120405515E-02  0.22435913170E-01  0.23621126835E-01  0.51100000000E-03 0.  1.
</event>
<event>
 8    1  0.1123285E+005  0.1043930E+01  0.7957747E-01            NaN
         13   -1    0    0    0    0  0.00000000000E+00  0.00000000000E+00  0.74505805969E-08  0.10566000000E+00  0.10566000000E+00 0.  1.
     999900   -1    0    0    0    0 -0.00000000000E+00 -0.00000000000E+00 -0.74505805969E-08  0.93827000000E+00  0.93827000000E+00 0.  1.
     999902    2    1    2    0    0  0.23777852467E-01  0.55322857741E-03 -0.37416191554E-02  0.10198532053E+01  0.10195689620E+01 0.  0.
     999903    2    3    3    0    0  0.86794472935E-02  0.12591371429E+00 -0.26937748483E-01  0.13053814658E+00  0.19620631181E-01 0.  0.
         14    1    1    2    0    0 -0.23777852467E-01 -0.55322857741E-03  0.37416191554E-02  0.24076794714E-01  0.00000000000E+00 0. -1.
     999901    1    3    3    0    0  0.15098405174E-01 -0.12536048572E+00  0.23196129327E-01  0.88931505870E+00  0.88000000000E+00 0. -1.
        -11    1    4    4    0    0 -0.53648642482E-02  0.42265187619E-01 -0.48067580008E-02  0.42877661974E-01  0.51100000000E-03 0.  1.
         11    1    4    4    0    0  0.14044311542E-01  0.83648526674E-01 -0.22130990482E-01  0.87660484610E-01  0.51100000000E-03 0. -1.
</event>
<event>
 8    1  0.1123285E+005  0.1043930E+01  0.7957747E-01            NaN
         13   -1    0    0    0    0  0.00000000000E+00  0.00000000000E+00  0.74505805969E-08  0.10566000000E+00  0.10566000000E+00 0. -1.
     999900   -1    0    0    0    0 -0.00000000000E+00 -0.00000000000E+00 -0.74505805969E-08  0.93827000000E+00  0.93827000000E+00 0. -1.
     999902    2    1    2    0    0  0.84699312471E-02 -0.13458471148E-01 -0.16745335466E-01  0.10208372210E+01  0.10205759920E+01 0.  0.
     999903    2    3    3    0    0 -0.17050253597E-01  0.18253283917E-01 -0.12880677901E+00  0.13279742328E+00  0.20495750562E-01 0.  0.
         14    1    1    2    0    0 -0.84699312471E-02  0.13458471148E-01  0.16745335466E-01  0.23092778976E-01  0.00000000000E+00 0. -1.
     999901    1    3    3    0    0  0.25520184844E-01 -0.31711755065E-01  0.11206144354E+00  0.88803979774E+00  0.88000000000E+00 0.  1.
        -11    1    4    4    0    0 -0.72999108194E-02  0.18757664671E-01 -0.59732652113E-01  0.63034827923E-01  0.51100000000E-03 0.  1.
         11    1    4    4    0    0 -0.97503427780E-02 -0.50438075345E-03 -0.69074126894E-01  0.69762595360E-01  0.51100000000E-03 0. -1.
</event>
<event>
 8    1  0.1123285E+005  0.1043930E+01  0.7957747E-01            NaN
         13   -1    0    0    0    0  0.00000000000E+00  0.00000000000E+00  0.74505805969E-08  0.10566000000E+00  0.10566000000E+00 0.  1.
     999900   -1    0    0    0    0 -0.00000000000E+00 -0.00000000000E+00 -0.74505805969E-08  0.93827000000E+00  0.93827000000E+00 0. -1.
     999902    2    1    2    0    0  0.22698971601E-01 -0.26234345240E-02 -0.74117366802E-02  0.10199079360E+01  0.10196249988E+01 0.  0.
     999903    2    3    3    0    0  0.57966789339E-01 -0.79839956536E-01  0.84100838964E-01  0.13109931665E+00  0.19481077658E-01 0.  0.
         14    1    1    2    0    0 -0.22698971601E-01  0.26234345240E-02  0.74117366802E-02  0.24022064047E-01  0.00000000000E+00 0.  1.
     999901    1    3    3    0    0 -0.35267817738E-01  0.77216522012E-01 -0.91512575645E-01  0.88880861930E+00  0.88000000000E+00 0. -1.
        -11    1    4    4    0    0  0.40837114451E-01 -0.39903772130E-01  0.46733825711E-01  0.73785449335E-01  0.51100000000E-03 0.  1.
         11    1    4    4    0    0  0.17129674888E-01 -0.39936184405E-01  0.37367013253E-01  0.57313867319E-01  0.51100000000E-03 0. -1.
</event>
<event>
 8    1  0.1123285E+005  0.1043930E+01  0.7957747E-01            NaN
         13   -1    0    0    0    0  0.00000000000E+00  0.00000000000E+00  0.74505805969E-08  0.10566000000E+00  0.10566000000E+00 0.  1.
     999900   -1    0    0    0    0 -0.00000000000E+00 -0.00000000000E+00 -0.74505805969E-08  0.93827000000E+00  0.93827000000E+00 0. -1.
     999902    2    1    2    0    0  0.15607069743E-01 -0.12643312656E-01 -0.13309327420E-01  0.10198349346E+01  0.10195502546E+01 0.  0.
     999903    2    3    3    0    0 -0.91079110640E-01 -0.90172581833E-01 -0.77340088410E-02  0.12999010944E+00  0.20275964836E-01 0.  0.
         14    1    1    2    0    0 -0.15607069743E-01  0.12643312656E-01  0.13309327420E-01  0.24095065413E-01  0.00000000000E+00 0.  1.
     999901    1    3    3    0    0  0.10668618038E+00  0.77529269177E-01 -0.55753185789E-02  0.88984482515E+00  0.88000000000E+00 0. -1.
        -11    1    4    4    0    0 -0.80391864401E-01 -0.80683067484E-01 -0.13239977554E-01  0.11466545847E+00  0.51100000000E-03 0. -1.
         11    1    4    4    0    0 -0.10687246240E-01 -0.94895143492E-02  0.55059687127E-02  0.15324650966E-01  0.51100000000E-03 0.  1.
</event>
<event>
 8    1  0.1123285E+005  0.1043930E+01  0.7957747E-01            NaN
         13   -1    0    0    0    0  0.00000000000E+00  0.00000000000E+00  0.74505805969E-08  0.10566000000E+00  0.10566000000E+00 0. -1.
     999900   -1    0    0    0    0 -0.00000000000E+00 -0.00000000000E+00 -0.74505805969E-08  0.93827000000E+00  0.93827000000E+00 0. -1.
     999902    2    1    2    0    0  0.19411873300E-01  0.10981306209E-01 -0.93251591740E-02  0.10197562848E+01  0.10194697210E+01 0.  0.
     999903    2    3    3    0    0 -0.18269799241E-01 -0.11174139959E+00 -0.58682840999E-01  0.12907286649E+00  0.19904850916E-01 0.  0.
         14    1    1    2    0    0 -0.19411873300E-01 -0.10981306209E-01  0.93251591740E-02  0.24173715161E-01  0.00000000000E+00 0.  1.
     999901    1    3    3    0    0  0.37681672541E-01  0.12272270580E+00  0.49357681825E-01  0.89068341835E+00  0.88000000000E+00 0. -1.
        -11    1    4    4    0    0 -0.75421684110E-02 -0.38868961103E-01 -0.10201523205E-01  0.40890251140E-01  0.51100000000E-03 0.  1.
         11    1    4    4    0    0 -0.10727630830E-01 -0.72872438488E-01 -0.48481317793E-01  0.88182615352E-01  0.51100000000E-03 0. -1.
</event>
<event>
 8    1  0.1123285E+005  0.1043930E+01  0.7957747E-01            NaN
         13   -1    0    0    0    0  0.00000000000E+00  0.00000000000E+00  0.74505805969E-08  0.10566000000E+00  0.10566000000E+00 0.  1.
     999900   -1    0    0    0    0 -0.00000000000E+00 -0.00000000000E+00 -0.74505805969E-08  0.93827000000E+00  0.93827000000E+00 0.  1.
     999902    2    1    2    0    0  0.23004410520E-02  0.22297694245E-01 -0.40535059064E-02  0.10211504015E+01  0.10208962887E+01 0.  0.
     999903    2    3    3    0    0 -0.79245704841E-01  0.73384249685E-01  0.74153192017E-01  0.13245703613E+00  0.19520263727E-01 0.  0.
         14    1    1    2    0    0 -0.23004410520E-02 -0.22297694245E-01  0.40535059064E-02  0.22779598499E-01  0.00000000000E+00 0.  1.
     999901    1    3    3    0    0  0.81546145893E-01 -0.51086555441E-01 -0.78206697924E-01  0.88869336537E+00  0.88000000000E+00 0.  1.
        -11    1    4    4    0    0 -0.49774925121E-01  0.47418695950E-01  0.58143062012E-01  0.90038617701E-01  0.51100000000E-03 0.  1.
         11    1    4    4    0    0 -0.29470779720E-01  0.25965553735E-01  0.16010130005E-01  0.42418418427E-01  0.51100000000E-03 0. -1.
</event>
<event>
 7    1  0.1123285E+005  0.1043930E+01  0.7957747E-01            NaN
         13   -1    0    0    0    0  0.00000000000E+00  0.00000000000E+00  0.74505805969E-08  0.10566000000E+00  0.10566000000E+00 0. -1.
     999900   -1    0    0    0    0 -0.00000000000E+00 -0.00000000000E+00 -0.74505805969E-08  0.93827000000E+00  0.93827000000E+00 0.  1.
     999902    2    1    2    0    0 -0.94393918495E-02  0.19536122742E-01 -0.93460796161E-02  0.10203056182E+01  0.10200320795E+01 0.  0.
         14    1    1    2    0    0  0.94393918495E-02 -0.19536122742E-01  0.93460796161E-02  0.23624381780E-01  0.00000000000E+00 0. -1.
     999901    1    3    3    0    0  0.82341789183E-01  0.98240624354E-01 -0.41787860700E-01  0.89026828306E+00  0.88000000000E+00 0. -1.
        -11    1    3    3    0    0 -0.48199578698E-01 -0.21993432651E-01  0.23483955662E-01  0.57954014193E-01  0.51100000000E-03 0.  1.
         11    1    3    3    0    0 -0.43581602334E-01 -0.56711068960E-01  0.89578254215E-02  0.72083320969E-01  0.51100000000E-03 0. -1.
</event>
<event>
 8    1  0.1123285E+005  0.1043930E+01  0.7957747E-01            NaN
         13   -1    0    0    0    0  0.00000000000E+00  0.00000000000E+00  0.74505805969E-08  0.10566000000E+00  0.10566000000E+00 0. -1.
     999900   -1    0    0    0    0 -0.00000000000E+00 -0.00000000000E+00 -0.74505805969E-08  0.93827000000E+00  0.93827000000E+00 0. -1.
     999902    2    1    2    0    0  0.11698699621E-01 -0.20301862322E-01 -0.26014337797E-02  0.10203547451E+01  0.10200823561E+01 0.  0.
     999903    2    3    3    0    0  0.85920037713E-01  0.84968061151E-01 -0.43614880066E-01  0.13003308041E+00  0.20112681103E-01 0.  0.
         14    1    1    2    0    0 -0.11698699621E-01  0.20301862322E-01  0.26014337797E-02  0.23575254914E-01  0.00000000000E+00 0. -1.
     999901    1    3    3    0    0 -0.74221338092E-01 -0.10526992347E+00  0.41013446286E-01  0.89032166468E+00  0.88000000000E+00 0.  1.
        -11    1    4    4    0    0  0.38474273070E-01  0.52124801575E-01 -0.23686423672E-01  0.68982406560E-01  0.51100000000E-03 0.  1.
         11    1    4    4    0    0  0.47445764643E-01  0.32843259576E-01 -0.19928456393E-01  0.61050673849E-01  0.51100000000E-03 0. -1.
</event>
<event>
 8    1  0.1123285E+005  0.1043930E+01  0.7957747E-01            NaN
         13   -1    0    0    0    0  0.00000000000E+00  0.00000000000E+00  0.74505805969E-08  0.10566000000E+00  0.10566000000E+00 0. -1.
     999900   -1    0    0    0    0 -0.00000000000E+00 -0.00000000000E+00 -0.74505805969E-08  0.93827000000E+00  0.93827000000E+00 0. -1.
     999902    2    1    2    0    0  0.21353551892E-01 -0.10184120419E-01  0.35456702528E-02  0.10200079962E+01  0.10197274391E+01 0.  0.
     999903    2    3    3    0    0 -0.88727707006E-01 -0.91708020313E-01 -0.68442109568E-02  0.12934982417E+00  0.20039131945E-01 0.  0.
         14    1    1    2    0    0 -0.21353551892E-01  0.10184120419E-01 -0.35456702528E-02  0.23922003776E-01  0.00000000000E+00 0.  1.
     999901    1    3    3    0    0  0.11008125890E+00  0.81523899895E-01  0.10389881210E-01  0.89065817205E+00  0.88000000000E+00 0.  1.
        -11    1    4    4    0    0 -0.37313451680E-01 -0.34961543932E-01  0.67415511882E-02  0.51578220829E-01  0.51100000000E-03 0. -1.
         11    1    4    4    0    0 -0.51414255325E-01 -0.56746476381E-01 -0.13585762145E-01  0.77771603342E-01  0.51100000000E-03 0.  1.
</event>
<event>
 8    1  0.1123285E+005  0.1043930E+01  0.7957747E-01            NaN
         13   -1    0    0    0    0  0.00000000000E+00  0.00000000000E+00  0.74505805969E-08  0.10566000000E+00  0.10566000000E+00 0. -1.
     999900   -1    0    0    0    0 -0.00000000000E+00 -0.00000000000E+00 -0.74505805969E-08  0.93827000000E+00  0.93827000000E+00 0. -1.
     999902    2    1    2    0    0 -0.17068236836E-01 -0.86488680017E-02 -0.15177610998E-01  0.10195069064E+01  0.10192143271E+01 0.  0.
     999903    2    3    3    0    0 -0.40765212387E-01 -0.58568433587E-01 -0.11019335881E+00  0.13266898319E+00  0.19142069388E-01 0.  0.
         14    1    1    2    0    0  0.17068236836E-01  0.86488680017E-02  0.15177610998E-01  0.24423093620E-01  0.00000000000E+00 0. -1.
     999901    1    3    3    0    0  0.23696975551E-01  0.49919565585E-01  0.95015747812E-01  0.88683792319E+00  0.88000000000E+00 0.  1.
        -11    1    4    4    0    0 -0.95024846426E-02 -0.76515951206E-02 -0.32066369039E-01  0.34312640041E-01  0.51100000000E-03 0. -1.
         11    1    4    4    0    0 -0.31262727744E-01 -0.50916838467E-01 -0.78126989771E-01  0.98356343147E-01  0.51100000000E-03 0.  1.
</event>
<event>
 8    1  0.1123285E+005  0.1043930E+01  0.7957747E-01            NaN
         13   -1    0    0    0    0  0.00000000000E+00  0.00000000000E+00  0.74505805969E-08  0.10566000000E+00  0.10566000000E+00 0. -1.
     999900   -1    0    0    0    0 -0.00000000000E+00 -0.00000000000E+00 -0.74505805969E-08  0.93827000000E+00  0.93827000000E+00 0.  1.
     999902    2    1    2    0    0  0.89694065292E-02 -0.29536357079E-02 -0.21720349696E-01  0.10202456632E+01  0.10199707180E+01 0.  0.
     999903    2    3    3    0    0  0.12680229988E+00  0.22713767902E-01 -0.21313030023E-01  0.13202070733E+00  0.19505983912E-01 0.  0.
         14    1    1    2    0    0 -0.89694065292E-02  0.29536357079E-02  0.21720349696E-01  0.23684336771E-01  0.00000000000E+00 0. -1.
     999901    1    3    3    0    0 -0.11783289335E+00 -0.25667403610E-01 -0.40731967294E-03  0.88822495589E+00  0.88000000000E+00 0.  1.
        -11    1    4    4    0    0  0.71349551472E-01  0.10223243867E-01 -0.21352899020E-01  0.75176330238E-01  0.51100000000E-03 0. -1.
         11    1    4    4    0    0  0.55452748411E-01  0.12490524035E-01  0.39868996839E-04  0.56844377097E-01  0.51100000000E-03 0.  1.
</event>
<event>
 8    1  0.1123285E+005  0.1043930E+01  0.7957747E-01            NaN
         13   -1    0    0    0    0  0.00000000000E+00  0.00000000000E+00  0.74505805969E-08  0.10566000000E+00  0.10566000000E+00 0. -1.
     999900   -1    0    0    0    0 -0.00000000000E+00 -0.00000000000E+00 -0.74505805969E-08  0.93827000000E+00  0.93827000000E+00 0.  1.
     999902    2    1    2    0    0  0.15300089243E-01 -0.20695184300E-01 -0.76712882722E-02  0.10170742362E+01  0.10167196123E+01 0.  0.
     999903    2    3    3    0    0 -0.74716451848E-01 -0.10238155103E+00  0.68361019038E-02  0.12860020478E+00  0.20657933402E-01 0.  0.
         14    1    1    2    0    0 -0.15300089243E-01  0.20695184300E-01  0.76712882722E-02  0.26855763773E-01  0.00000000000E+00 0. -1.
     999901    1    3    3    0    0  0.90016541091E-01  0.81686366732E-01 -0.14507390176E-01  0.88847403144E+00  0.88000000000E+00 0.  1.
        -11    1    4    4    0    0 -0.69707569356E-01 -0.83772920442E-01  0.80814267551E-02  0.10928228587E+00  0.51100000000E-03 0.  1.
         11    1    4    4    0    0 -0.50088824923E-02 -0.18608630590E-01 -0.12453248513E-02  0.19317918916E-01  0.51100000000E-03 0. -1.
</event>
<event>
 8    1  0.1123285E+005  0.1043930E+01  0.7957747E-01            NaN
         13   -1    0    0    0    0  0.00000000000E+00  0.00000000000E+00  0.74505805969E-08  0.10566000000E+00  0.10566000000E+00 0. -1.
     999900   -1    0    0    0    0 -0.00000000000E+00 -0.00000000000E+00 -0.74505805969E-08  0.93827000000E+00  0.93827000000E+00 0. -1.
     999902    2    1    2    0    0 -0.86366606545E-02  0.19400111393E-01  0.11397556748E-01  0.10198289517E+01  0.10195441286E+01 0.  0.
     999903    2    3    3    0    0  0.18209725224E-01 -0.10843606762E+00 -0.61334741705E-01  0.12721884402E+00  0.18240309193E-01 0.  0.
         14    1    1    2    0    0  0.86366606545E-02 -0.19400111393E-01 -0.11397556748E-01  0.24101048299E-01  0.00000000000E+00 0. -1.
     999901    1    3    3    0    0 -0.26846385878E-01  0.12783617901E+00  0.72732298453E-01  0.89261010768E+00  0.88000000000E+00 0. -1.
        -11    1    4    4    0    0  0.96831776251E-02 -0.42506510968E-01 -0.14690087071E-01  0.46006816698E-01  0.51100000000E-03 0.  1.
         11    1    4    4    0    0  0.85265475989E-02 -0.65929556653E-01 -0.46644654634E-01  0.81212027319E-01  0.51100000000E-03 0. -1.
</event>
<event>
 8    1  0.1123285E+005  0.1043930E+01  0.7957747E-01            NaN
         13   -1    0    0    0    0  0.00000000000E+00  0.00000000000E+00  0.74505805969E-08  0.10566000000E+00  0.10566000000E+00 0.  1.
     999900   -1    0    0    0    0 -0.00000000000E+00 -0.00000000000E+00 -0.74505805969E-08  0.93827000000E+00  0.93827000000E+00 0.  1.
     999902    2    1    2    0    0 -0.22625802154E-01  0.62255565338E-02 -0.53796066517E-02  0.10198546050E+01  0.10195703952E+01 0.  0.
     999903    2    3    3    0    0  0.58358709449E-01 -0.53781264060E-01  0.98230904985E-01  0.12806177716E+00  0.21268397763E-01 0.  0.
         14    1    1    2    0    0  0.22625802154E-01 -0.62255565338E-02  0.53796066517E-02  0.24075395013E-01  0.00000000000E+00 0.  1.
     999901    1    3    3    0    0 -0.80984511603E-01  0.60006820594E-01 -0.10361051164E+00  0.89179282782E+00  0.88000000000E+00 0.  1.
        -11    1    4    4    0    0  0.17070272287E-01 -0.25964885114E-01  0.49140868319E-01  0.58143404743E-01  0.51100000000E-03 0. -1.
         11    1    4    4    0    0  0.41288437162E-01 -0.27816378946E-01  0.49090036667E-01  0.69918372420E-01  0.51100000000E-03 0.  1.
</event>
<event>
 8    1  0.1123285E+005  0.1043930E+01  0.7957747E-01            NaN
         13   -1    0    0    0    0  0.00000000000E+00  0.00000000000E+00  0.74505805969E-08  0.10566000000E+00  0.10566000000E+00 0. -1.
     999900   -1    0    0    0    0 -0.00000000000E+00 -0.00000000000E+00 -0.74505805969E-08  0.93827000000E+00  0.93827000000E+00 0. -1.
     999902    2    1    2    0    0  0.13168272292E-02 -0.92036098198E-02 -0.21371248337E-01  0.10206239767E+01  0.10203578446E+01 0.  0.
     999903    2    3    3    0    0  0.49309026178E-01 -0.10888087777E+00 -0.54965555738E-01  0.13306136683E+00  0.19942151801E-01 0.  0.
         14    1    1    2    0    0 -0.13168272292E-02  0.92036098198E-02  0.21371248337E-01  0.23306023323E-01  0.00000000000E+00 0. -1.
     999901    1    3    3    0    0 -0.47992198948E-01  0.99677267952E-01  0.33594307401E-01  0.88756260985E+00  0.88000000000E+00 0.  1.
        -11    1    4    4    0    0  0.37909568052E-01 -0.78672840304E-01 -0.49270530417E-01  0.10027161832E+00  0.51100000000E-03 0.  1.
         11    1    4    4    0    0  0.11399458125E-01 -0.30208037467E-01 -0.56950253213E-02  0.32789748513E-01  0.51100000000E-03 0. -1.
</event>
<event>
 8    1  0.1123285E+005  0.1043930E+01  0.7957747E-01            NaN
         13   -1    0    0    0    0  0.00000000000E+00  0.00000000000E+00  0.74505805969E-08  0.10566000000E+00  0.10566000000E+00 0. -1.
     999900   -1    0    0    0    0 -0.00000000000E+00 -0.00000000000E+00 -0.74505805969E-08  0.93827000000E+00  0.93827000000E+00 0.  1.
     999902    2    1    2    0    0  0.22844497132E-02  0.22235863369E-01 -0.78894081703E-02  0.10202256736E+01  0.10199502586E+01 0.  0.
     999903    2    3    3    0    0 -0.63281209795E-01  0.10445305298E+00 -0.49193064955E-01  0.13300275117E+00  0.18836729784E-01 0.  0.
         14    1    1    2    0    0 -0.22844497132E-02 -0.22235863369E-01  0.78894081703E-02  0.23704326430E-01  0.00000000000E+00 0.  1.
     999901    1    3    3    0    0  0.65565659508E-01 -0.82217189608E-01  0.41303656785E-01  0.88722292240E+00  0.88000000000E+00 0. -1.
        -11    1    4    4    0    0 -0.15637123727E-01  0.31184665656E-01 -0.22906264292E-01  0.41736807201E-01  0.51100000000E-03 0. -1.
         11    1    4    4    0    0 -0.47644086068E-01  0.73268387320E-01 -0.26286800663E-01  0.91265943965E-01  0.51100000000E-03 0.  1.
</event>
<event>
 8    1  0.1123285E+005  0.1043930E+01  0.7957747E-01            NaN
         13   -1    0    0    0    0  0.00000000000E+00  0.00000000000E+00  0.74505805969E-08  0.10566000000E+00  0.10566000000E+00 0. -1.
     999900   -1    0    0    0    0 -0.00000000000E+00 -0.00000000000E+00 -0.74505805969E-08  0.93827000000E+00  0.93827000000E+00 0.  1.
     999902    2    1    2    0    0  0.75841460872E-02 -0.15525917420E-01  0.15565290840E-01  0.10206737823E+01  0.10204087995E+01 0.  0.
     999903    2    3    3    0    0  0.75270014461E-01  0.92359352455E-01 -0.46191937135E-01  0.12936319475E+00  0.20132462285E-01 0.  0.
         14    1    1    2    0    0 -0.75841460872E-02  0.15525917420E-01 -0.15565290840E-01  0.23256217718E-01  0.00000000000E+00 0.  1.
     999901    1    3    3    0    0 -0.67685868374E-01 -0.10788526987E+00  0.61757227976E-01  0.89131058753E+00  0.88000000000E+00 0. -1.
        -11    1    4    4    0    0  0.29970845065E-01  0.22950211215E-01 -0.11048960971E-01  0.39335790424E-01  0.51100000000E-03 0.  1.
         11    1    4    4    0    0  0.45299169395E-01  0.69409141240E-01 -0.35142976164E-01  0.90027404329E-01  0.51100000000E-03 0. -1.
</event>
<event>
 8    1  0.1123285E+005  0.1043930E+01  0.7957747E-01            NaN
         13   -1    0    0    0    0  0.00000000000E+00  0.00000000000E+00  0.74505805969E-08  0.10566000000E+00  0.10566000000E+00 0. -1.
     999900   -1    0    0    0    0 -0.00000000000E+00 -0.00000000000E+00 -0.74505805969E-08  0.93827000000E+00  0.93827000000E+00 0.  1.
     999902    2    1    2    0    0  0.19858263023E-01  0.83416614265E-02  0.94972834416E-02  0.10203899847E+01  0.10201184189E+01 0.  0.
     999903    2    3    3    0    0 -0.20886790774E-02  0.11156704951E+00  0.67776162335E-01  0.13217065556E+00  0.20588950763E-01 0.  0.
         14    1    1    2    0    0 -0.19858263023E-01 -0.83416614265E-02 -0.94972834416E-02  0.23540015259E-01  0.00000000000E+00 0. -1.
     999901    1    3    3    0    0  0.21946942100E-01 -0.10322538808E+00 -0.58278878894E-01  0.88821932918E+00  0.88000000000E+00 0. -1.
        -11    1    4    4    0    0 -0.36206778961E-03  0.31974210180E-01  0.30761156091E-01  0.44373314670E-01  0.51100000000E-03 0. -1.
         11    1    4    4    0    0 -0.17266112878E-02  0.79592839326E-01  0.37015006245E-01  0.87797340887E-01  0.51100000000E-03 0.  1.
</event>
<event>
 8    1  0.1123285E+005  0.1043930E+01  0.7957747E-01            NaN
         13   -1    0    0    0    0  0.00000000000E+00  0.00000000000E+00  0.74505805969E-08  0.10566000000E+00  0.10566000000E+00 0. -1.
     999900   -1    0    0    0    0 -0.00000000000E+00 -0.00000000000E+00 -0.74505805969E-08  0.93827000000E+00  0.93827000000E+00 0. -1.
     999902    2    1    2    0    0  0.24970979520E-01  0.30831640344E-02  0.81306543843E-03  0.10187562678E+01  0.10184451956E+01 0.  0.
     999903    2    3    3    0    0  0.54489446332E-01 -0.72801409491E-01  0.91230155541E-01  0.13038412809E+00  0.20197390754E-01 0.  0.
         14    1    1    2    0    0 -0.24970979520E-01 -0.30831640344E-02 -0.81306543843E-03  0.25173732224E-01  0.00000000000E+00 0.  1.
     999901    1    3    3    0    0 -0.29518466812E-01  0.75884573525E-01 -0.90417090102E-01  0.88837213968E+00  0.88000000000E+00 0.  1.
        -11    1    4    4    0    0  0.70315163665E-02 -0.11102766981E-01  0.24709018510E-01  0.27991255309E-01  0.51100000000E-03 0.  1.
         11    1    4    4    0    0  0.47457929966E-01 -0.61698642510E-01  0.66521137030E-01  0.10239287278E+00  0.51100000000E-03 0. -1.
</event>
<event>
 8    1  0.1123285E+005  0.1043930E+01  0.7957747E-01            NaN
         13   -1    0    0    0    0  0.00000000000E+00  0.00000000000E+00  0.74505805969E-08  0.10566000000E+00  0.10566000000E+00 0. -1.
     999900   -1    0    0    0    0 -0.00000000000E+00 -0.00000000000E+00 -0.74505805969E-08  0.93827000000E+00  0.93827000000E+00 0.  1.
     999902    2    1    2    0    0  0.18937146228E-01 -0.12879979761E-01  0.57635810240E-02  0.10203137291E+01  0.10200403803E+01 0.  0.
     999903    2    3    3    0    0  0.52672768006E-01  0.90229345476E-01  0.76114821033E-01  0.13086506721E+00  0.20406973351E-01 0.  0.
         14    1    1    2    0    0 -0.18937146228E-01  0.12879979761E-01 -0.57635810240E-02  0.23616270919E-01  0.00000000000E+00 0. -1.
     999901    1    3    3    0    0 -0.33735621777E-01 -0.10310932524E+00 -0.70351240009E-01  0.88944866187E+00  0.88000000000E+00 0.  1.
        -11    1    4    4    0    0  0.19573288962E-01  0.40494894838E-01  0.21234575382E-01  0.49740511270E-01  0.51100000000E-03 0.  1.
         11    1    4    4    0    0  0.33099479044E-01  0.49734450638E-01  0.54880245651E-01  0.81124555943E-01  0.51100000000E-03 0. -1.
</event>
<event>
 8    1  0.1123285E+005  0.1043930E+01  0.7957747E-01            NaN
         13   -1    0    0    0    0  0.00000000000E+00  0.00000000000E+00  0.74505805969E-08  0.10566000000E+00  0.10566000000E+00 0.  1.
     999900   -1    0    0    0    0 -0.00000000000E+00 -0.00000000000E+00 -0.74505805969E-08  0.93827000000E+00  0.93827000000E+00 0.  1.
     999902    2    1    2    0    0 -0.18731432533E-01 -0.18403571213E-01  0.67501112042E-02  0.10168168667E+01  0.10164553204E+01 0.  0.
     999903    2    3    3    0    0 -0.75660329733E-01 -0.35113133242E-01  0.97739228621E-01  0.13013816032E+00  0.20629259256E-01 0.  0.
         14    1    1    2    0    0  0.18731432533E-01  0.18403571213E-01 -0.67501112042E-02  0.27113133338E-01  0.00000000000E+00 0. -1.
     999901    1    3    3    0    0  0.56928897200E-01  0.16709562029E-01 -0.90989117417E-01  0.88667870635E+00  0.88000000000E+00 0.  1.
        -11    1    4    4    0    0 -0.26830139815E-01 -0.19249332343E-01  0.26601671979E-01  0.42406406016E-01  0.51100000000E-03 0. -1.
         11    1    4    4    0    0 -0.48830189918E-01 -0.15863800899E-01  0.71137556642E-01  0.87731754299E-01  0.51100000000E-03 0.  1.
</event>
<event>
 8    1  0.1123285E+005  0.1043930E+01  0.7957747E-01            NaN
         13   -1    0    0    0    0  0.00000000000E+00  0.00000000000E+00  0.74505805969E-08  0.10566000000E+00  0.10566000000E+00 0. -1.
     999900   -1    0    0    0    0 -0.00000000000E+00 -0.00000000000E+00 -0.74505805969E-08  0.93827000000E+00  0.93827000000E+00 0. -1.
     999902    2    1    2    0    0  0.21958701861E-01 -0.11344989591E-01  0.20734520706E-02  0.10191269240E+01  0.10188250559E+01 0.  0.
     999903    2    3    3    0    0  0.12741749830E+00  0.18613312651E-01 -0.21033064125E-01  0.13202322728E+00  0.20151140754E-01 0.  0.
         14    1    1    2    0    0 -0.21958701861E-01  0.11344989591E-01 -0.20734520706E-02  0.24803076013E-01  0.00000000000E+00 0. -1.
     999901    1    3    3    0    0 -0.10545879644E+00 -0.29958302242E-01  0.23106516195E-01  0.88710369671E+00  0.88000000000E+00 0.  1.
        -11    1    4    4    0    0  0.23810099653E-01  0.11414915782E-03  0.31785904663E-02  0.24027035479E-01  0.51100000000E-03 0.  1.
         11    1    4    4    0    0  0.10360739865E+00  0.18499163493E-01 -0.24211654591E-01  0.10799619180E+00  0.51100000000E-03 0. -1.
</event>
<event>
 8    1  0.1123285E+005  0.1043930E+01  0.7957747E-01            NaN
         13   -1    0    0    0    0  0.00000000000E+00  0.00000000000E+00  0.74505805969E-08  0.10566000000E+00  0.10566000000E+00 0.  1.
     999900   -1    0    0    0    0 -0.00000000000E+00 -0.00000000000E+00 -0.74505805969E-08  0.93827000000E+00  0.93827000000E+00 0. -1.
     999902    2    1    2    0    0 -0.84831491000E-02 -0.20537972154E-01 -0.80006513740E-02  0.10203125797E+01  0.10200392040E+01 0.  0.
     999903    2    3    3    0    0 -0.74613998006E-01  0.88984629278E-01 -0.55630117701E-01  0.12978629966E+00  0.16256095372E-01 0.  0.
         14    1    1    2    0    0  0.84831491000E-02  0.20537972154E-01  0.80006513740E-02  0.23617420292E-01  0.00000000000E+00 0. -1.
     999901    1    3    3    0    0  0.66130848906E-01 -0.10952260143E+00  0.47629466327E-01  0.89052628005E+00  0.88000000000E+00 0. -1.
        -11    1    4    4    0    0 -0.59682760891E-01  0.61682104251E-01 -0.44899162010E-01  0.96865421088E-01  0.51100000000E-03 0. -1.
         11    1    4    4    0    0 -0.14931237115E-01  0.27302525027E-01 -0.10730955691E-01  0.32920878568E-01  0.51100000000E-03 0.  1.
</event>
<event>
 8    1  0.1123285E+005  0.1043930E+01  0.7957747E-01            NaN
         13   -1    0    0    0    0  0.00000000000E+00  0.00000000000E+00  0.74505805969E-08  0.10566000000E+00  0.10566000000E+00 0.  1.
     999900   -1    0    0    0    0 -0.00000000000E+00 -0.00000000000E+00 -0.74505805969E-08  0.93827000000E+00  0.93827000000E+00 0.  1.
     999902    2    1    2    0    0 -0.32650267836E-01 -0.30633006933E-02 -0.55743114011E-02  0.10106659541E+01  0.10101183961E+01 0.  0.
     999903    2    3    3    0    0 -0.76698579066E-01  0.43454833429E-01  0.84574173802E-01  0.12374378171E+00  0.19716441315E-01 0.  0.
         14    1    1    2    0    0  0.32650267836E-01  0.30633006933E-02  0.55743114011E-02  0.33264045883E-01  0.00000000000E+00 0.  1.
     999901    1    3    3    0    0  0.44048311230E-01 -0.46518134123E-01 -0.90148485204E-01  0.88692217241E+00  0.88000000000E+00 0.  1.
        -11    1    4    4    0    0 -0.36802167080E-01  0.31890073695E-01  0.42883586720E-01  0.64889440073E-01  0.51100000000E-03 0.  1.
         11    1    4    4    0    0 -0.39896411987E-01  0.11564759734E-01  0.41690587082E-01  0.58854341636E-01  0.51100000000E-03 0. -1.
</event>
<event>
 8    1  0.1123285E+005  0.1043930E+01  0.7957747E-01            NaN
         13   -1    0    0    0    0  0.00000000000E+00  0.00000000000E+00  0.74505805969E-08  0.10566000000E+00  0.10566000000E+00 0. -1.
     999900   -1    0    0    0    0 -0.00000000000E+00 -0.00000000000E+00 -0.74505805969E-08  0.93827000000E+00  0.93827000000E+00 0.  1.
     999902    2    1    2    0    0  0.19997480792E-01 -0.10833641747E-01  0.60925542929E-02  0.10203845918E+01  0.10201129000E+01 0.  0.
     999903    2    3    3    0    0  0.45618369810E-01 -0.12307662391E+00  0.65753365254E-02  0.13288521143E+00  0.19655873126E-01 0.  0.
         14    1    1    2    0    0 -0.19997480792E-01  0.10833641747E-01 -0.60925542929E-02  0.23545408243E-01  0.00000000000E+00 0. -1.
     999901    1    3    3    0    0 -0.25620889018E-01  0.11224298217E+00 -0.48278223251E-03  0.88749938033E+00  0.88000000000E+00 0.  1.
        -11    1    4    4    0    0  0.22814762710E-01 -0.71511480665E-01 -0.53443192990E-02  0.75254422688E-01  0.51100000000E-03 0. -1.
         11    1    4    4    0    0  0.22803607100E-01 -0.51565143250E-01  0.11919655824E-01  0.57630788743E-01  0.51100000000E-03 0.  1.
</event>
<event>
 8    1  0.1123285E+005  0.1043930E+01  0.7957747E-01            NaN
         13   -1    0    0    0    0  0.00000000000E+00  0.00000000000E+00  0.74505805969E-08  0.10566000000E+00  0.10566000000E+00 0. -1.
     999900   -1    0    0    0    0 -0.00000000000E+00 -0.00000000000E+00 -0.74505805969E-08  0.93827000000E+00  0.93827000000E+00 0. -1.
     999902    2    1    2    0    0 -0.19404647187E-01 -0.11639705415E-01 -0.33980327519E-02  0.10210483545E+01  0.10207919340E+01 0.  0.
     999903    2    3    3    0    0  0.28259382051E-01 -0.12749604761E+00 -0.22765969768E-02  0.13217501744E+00  0.20278498741E-01 0.  0.
         14    1    1    2    0    0  0.19404647187E-01  0.11639705415E-01  0.33980327519E-02  0.22881645508E-01  0.00000000000E+00 0. -1.
     999901    1    3    3    0    0 -0.47664029238E-01  0.11585634219E+00 -0.11214357751E-02  0.88887333706E+00  0.88000000000E+00 0. -1.
        -11    1    4    4    0    0  0.82767017944E-02 -0.53894479214E-01 -0.10277548514E-01  0.55488807942E-01  0.51100000000E-03 0.  1.
         11    1    4    4    0    0  0.19982680257E-01 -0.73601568393E-01  0.80009515371E-02  0.76686209494E-01  0.51100000000E-03 0. -1.
</event>
<event>
 8    1  0.1123285E+005  0.1043930E+01  0.7957747E-01            NaN
         13   -1    0    0    0    0  0.00000000000E+00  0.00000000000E+00  0.74505805969E-08  0.10566000000E+00  0.10566000000E+00 0. -1.
     999900   -1    0    0    0    0 -0.00000000000E+00 -0.00000000000E+00 -0.74505805969E-08  0.93827000000E+00  0.93827000000E+00 0. -1.
     999902    2    1    2    0    0  0.11523849761E-01  0.38341723221E-02 -0.20343270621E-01  0.10202372026E+01  0.10199620585E+01 0.  0.
     999903    2    3    3    0    0  0.46631578563E-01 -0.11869717373E+00 -0.23424184413E-01  0.13104882240E+00  0.19015211435E-01 0.  0.
         14    1    1    2    0    0 -0.11523849761E-01 -0.38341723221E-02  0.20343270621E-01  0.23692797434E-01  0.00000000000E+00 0. -1.
     999901    1    3    3    0    0 -0.35107728802E-01  0.12253134606E+00  0.30809137922E-02  0.88918838016E+00  0.88000000000E+00 0.  1.
        -11    1    4    4    0    0  0.15975404245E-01 -0.52362116332E-01 -0.15577508871E-02  0.54769448385E-01  0.51100000000E-03 0.  1.
         11    1    4    4    0    0  0.30656174318E-01 -0.66335057402E-01 -0.21866433526E-01  0.76279374017E-01  0.51100000000E-03 0. -1.
</event>
<event>
 8    1  0.1123285E+005  0.1043930E+01  0.7957747E-01            NaN
         13   -1    0    0    0    0  0.00000000000E+00  0.00000000000E+00  0.74505805969E-08  0.10566000000E+00  0.10566000000E+00 0. -1.
     999900   -1    0    0    0    0 -0.00000000000E+00 -0.00000000000E+00 -0.74505805969E-08  0.93827000000E+00  0.93827000000E+00 0. -1.
     999902    2    1    2    0    0 -0.12965364497E-01 -0.19167188124E-01 -0.32728446911E-02  0.10205592215E+01  0.10202915913E+01 0.  0.
     999903    2    3    3    0    0 -0.85705555641E-01  0.82348996430E-01  0.49056448473E-01  0.13020253672E+00  0.20478426496E-01 0.  0.
         14    1    1    2    0    0  0.12965364497E-01  0.19167188124E-01  0.32728446911E-02  0.23370778539E-01  0.00000000000E+00 0.  1.
     999901    1    3    3    0    0  0.72740191145E-01 -0.10151618455E+00 -0.52329293164E-01  0.89035668474E+00  0.88000000000E+00 0. -1.
        -11    1    4    4    0    0 -0.32910070326E-01  0.18525563844E-01  0.14734394631E-01  0.40541740845E-01  0.51100000000E-03 0. -1.
         11    1    4    4    0    0 -0.52795485316E-01  0.63823432585E-01  0.34322053842E-01  0.89660795879E-01  0.51100000000E-03 0.  1.
</event>
<event>
 8    1  0.1123285E+005  0.1043930E+01  0.7957747E-01            NaN
         13   -1    0    0    0    0  0.00000000000E+00  0.00000000000E+00  0.74505805969E-08  0.10566000000E+00  0.10566000000E+00 0.  1.
     999900   -1    0    0    0    0 -0.00000000000E+00 -0.00000000000E+00 -0.74505805969E-08  0.93827000000E+00  0.93827000000E+00 0. -1.
     999902    2    1    2    0    0  0.11176597608E-01 -0.15726279749E-01  0.18418455328E-02  0.10245489628E+01  0.10243656342E+01 0.  0.
     999903    2    3    3    0    0  0.68340157370E-01 -0.21225283117E-01 -0.11288168837E+00  0.13524620172E+00  0.20697095335E-01 0.  0.
         14    1    1    2    0    0 -0.11176597608E-01  0.15726279749E-01 -0.18418455328E-02  0.19381037222E-01  0.00000000000E+00 0. -1.
     999901    1    3    3    0    0 -0.57163559763E-01  0.54990033683E-02  0.11472353391E+00  0.88930276106E+00  0.88000000000E+00 0.  1.
        -11    1    4    4    0    0  0.17843426259E-01 -0.17560229390E-02 -0.44906713878E-01  0.48356442689E-01  0.51100000000E-03 0.  1.
         11    1    4    4    0    0  0.50496731111E-01 -0.19469260178E-01 -0.67974974496E-01  0.86889759026E-01  0.51100000000E-03 0. -1.
</event>
<event>
 8    1  0.1123285E+005  0.1043930E+01  0.7957747E-01            NaN
         13   -1    0    0    0    0  0.00000000000E+00  0.00000000000E+00  0.74505805969E-08  0.10566000000E+00  0.10566000000E+00 0. -1.
     999900   -1    0    0    0    0 -0.00000000000E+00 -0.00000000000E+00 -0.74505805969E-08  0.93827000000E+00  0.93827000000E+00 0. -1.
     999902    2    1    2    0    0 -0.92470619648E-02 -0.20622794351E-01 -0.45511596124E-02  0.10208752639E+01  0.10206149047E+01 0.  0.
     999903    2    3    3    0    0 -0.36404300552E-01  0.56887088742E-01  0.10904212295E+00  0.12978114351E+00  0.19787538237E-01 0.  0.
         14    1    1    2    0    0  0.92470619648E-02  0.20622794351E-01  0.45511596124E-02  0.23054736078E-01  0.00000000000E+00 0.  1.
     999901    1    3    3    0    0  0.27157238587E-01 -0.77509883093E-01 -0.11359328256E+00  0.89109412041E+00  0.88000000000E+00 0. -1.
        -11    1    4    4    0    0 -0.73811337077E-02  0.26973488972E-01  0.53119354915E-01  0.60033134432E-01  0.51100000000E-03 0.  1.
         11    1    4    4    0    0 -0.29023166844E-01  0.29913599770E-01  0.55922768036E-01  0.69748009080E-01  0.51100000000E-03 0. -1.
</event>
<event>
 8    1  0.1123285E+005  0.1043930E+01  0.7957747E-01            NaN
         13   -1    0    0    0    0  0.00000000000E+00  0.00000000000E+00  0.74505805969E-08  0.10566000000E+00  0.10566000000E+00 0.  1.
     999900   -1    0    0    0    0 -0.00000000000E+00 -0.00000000000E+00 -0.74505805969E-08  0.93827000000E+00  0.93827000000E+00 0.  1.
     999902    2    1    2    0    0 -0.17733724076E-01 -0.16577774576E-01  0.43377012465E-02  0.10192698453E+01  0.10189714884E+01 0.  0.
     999903    2    3    3    0    0 -0.14039472884E-01  0.47781756620E-01  0.11797640863E+00  0.12962409972E+00  0.20094058102E-01 0.  0.
         14    1    1    2    0    0  0.17733724076E-01  0.16577774576E-01 -0.43377012465E-02  0.24660154736E-01  0.00000000000E+00 0.  1.
     999901    1    3    3    0    0 -0.36942511918E-02 -0.64359531197E-01 -0.11363870738E+00  0.88964574554E+00  0.88000000000E+00 0.  1.
        -11    1    4    4    0    0  0.35394351061E-02  0.14984572937E-01  0.47347277037E-01  0.49790468875E-01  0.51100000000E-03 0. -1.
         11    1    4    4    0    0 -0.17578907990E-01  0.32797183683E-01  0.70629131591E-01  0.79833630846E-01  0.51100000000E-03 0.  1.
</event>
<event>
 8    1  0.1123285E+005  0.1043930E+01  0.7957747E-01            NaN
         13   -1    0    0    0    0  0.00000000000E+00  0.00000000000E+00  0.74505805969E-08  0.10566000000E+00  0.10566000000E+00 0. -1.
     999900   -1    0    0    0    0 -0.00000000000E+00 -0.00000000000E+00 -0.74505805969E-08  0.93827000000E+00  0.93827000000E+00 0.  1.
     999902    2    1    2    0    0 -0.20691047867E-02  0.16814388983E-01  0.16765459187E-01  0.10200954559E+01  0.10198169706E+01 0.  0.
     999903    2    3    3    0    0  0.72015631571E-01  0.84547154030E-01  0.69998311082E-01  0.13279054091E+00  0.19977280962E-01 0.  0.
         14    1    1    2    0    0  0.20691047867E-02 -0.16814388983E-01 -0.16765459187E-01  0.23834544117E-01  0.00000000000E+00 0.  1.
     999901    1    3    3    0    0 -0.74084736358E-01 -0.67732765046E-01 -0.53232851895E-01  0.88730491498E+00  0.88000000000E+00 0.  1.
        -11    1    4    4    0    0  0.53615174051E-01  0.56447447758E-01  0.58139318586E-01  0.97166572099E-01  0.51100000000E-03 0.  1.
         11    1    4    4    0    0  0.18400457521E-01  0.28099706272E-01  0.11858992497E-01  0.35623968807E-01  0.51100000000E-03 0. -1.
</event>
<event>
 8    1  0.1123285E+005  0.1043930E+01  0.7957747E-01            NaN
         13   -1    0    0    0    0  0.00000000000E+00  0.00000000000E+00  0.74505805969E-08  0.10566000000E+00  0.10566000000E+00 0.  1.
     999900   -1    0    0    0    0 -0.00000000000E+00 -0.00000000000E+00 -0.74505805969E-08  0.93827000000E+00  0.93827000000E+00 0.  1.
     999902    2    1    2    0    0 -0.36630570697E-02 -0.14827915074E-01 -0.17520306008E-01  0.10206868037E+01  0.10204221210E+01 0.  0.
     999903    2    3    3    0    0 -0.20833735660E-01 -0.98186541631E-01 -0.86398282259E-01  0.13390178552E+00  0.19758124619E-01 0.  0.
         14    1    1    2    0    0  0.36630570697E-02  0.14827915074E-01  0.17520306008E-01  0.23243196320E-01  0.00000000000E+00 0.  1.
     999901    1    3    3    0    0  0.17170678591E-01  0.83358626557E-01  0.68877976251E-01  0.88678501816E+00  0.88000000000E+00 0. -1.
        -11    1    4    4    0    0 -0.28008156091E-02 -0.51880338894E-01 -0.36649032873E-01  0.63583227847E-01  0.51100000000E-03 0.  1.
         11    1    4    4    0    0 -0.18032920051E-01 -0.46306202737E-01 -0.49749249386E-01  0.70318557671E-01  0.51100000000E-03 0. -1.
</event>
<event>
 8    1  0.1123285E+005  0.1043930E+01  0.7957747E-01            NaN
         13   -1    0    0    0    0  0.00000000000E+00  0.00000000000E+00  0.74505805969E-08  0.10566000000E+00  0.10566000000E+00 0.  1.
     999900   -1    0    0    0    0 -0.00000000000E+00 -0.00000000000E+00 -0.74505805969E-08  0.93827000000E+00  0.93827000000E+00 0.  1.
     999902    2    1    2    0    0  0.18815752327E-01  0.45166266691E-02 -0.14151592425E-01  0.10199570982E+01  0.10196753317E+01 0.  0.
     999903    2    3    3    0    0  0.66056619353E-01 -0.57097964393E-01  0.94117475778E-01  0.12992886918E+00  0.19993931580E-01 0.  0.
         14    1    1    2    0    0 -0.18815752327E-01 -0.45166266691E-02  0.14151592425E-01  0.23972901790E-01  0.00000000000E+00 0.  1.
     999901    1    3    3    0    0 -0.47240867027E-01  0.61614591063E-01 -0.10826906820E+00  0.89002822903E+00  0.88000000000E+00 0.  1.
        -11    1    4    4    0    0  0.55638082800E-01 -0.36675358682E-01  0.70266494867E-01  0.96841724551E-01  0.51100000000E-03 0.  1.
         11    1    4    4    0    0  0.10418536553E-01 -0.20422605711E-01  0.23850980911E-01  0.33087144624E-01  0.51100000000E-03 0. -1.
</event>
<event>
 8    1  0.1123285E+005  0.1043930E+01  0.7957747E-01            NaN
         13   -1    0    0    0    0  0.00000000000E+00  0.00000000000E+00  0.74505805969E-08  0.10566000000E+00  0.10566000000E+00 0. -1.
     999900   -1    0    0    0    0 -0.00000000000E+00 -0.00000000000E+00 -0.74505805969E-08  0.93827000000E+00  0.93827000000E+00 0. -1.
     999902    2    1    2    0    0  0.21614107196E-01 -0.28739796990E-02 -0.91858341432E-02  0.10202697181E+01  0.10199953376E+01 0.  0.
     999903    2    3    3    0    0  0.12476892294E+00  0.24881842415E-01 -0.34893679243E-01  0.13343704227E+00  0.20037095216E-01 0.  0.
         14    1    1    2    0    0 -0.21614107196E-01  0.28739796990E-02  0.91858341432E-02  0.23660281868E-01  0.00000000000E+00 0. -1.
     999901    1    3    3    0    0 -0.10315481575E+00 -0.27755822114E-01  0.25707845099E-01  0.88683267586E+00  0.88000000000E+00 0.  1.
        -11    1    4    4    0    0  0.47866049049E-01 -0.25132221191E-03 -0.11918080532E-01  0.49330756927E-01  0.51100000000E-03 0. -1.
         11    1    4    4    0    0  0.76902873894E-01  0.25133164626E-01 -0.22975598710E-01  0.84106285345E-01  0.51100000000E-03 0.  1.
</event>
<event>
 8    1  0.1123285E+005  0.1043930E+01  0.7957747E-01            NaN
         13   -1    0    0    0    0  0.00000000000E+00  0.00000000000E+00  0.74505805969E-08  0.10566000000E+00  0.10566000000E+00 0. -1.
     999900   -1    0    0    0    0 -0.00000000000E+00 -0.00000000000E+00 -0.74505805969E-08  0.93827000000E+00  0.93827000000E+00 0. -1.
     999902    2    1    2    0    0 -0.22077272684E-01 -0.27999424818E-02  0.10081691352E-02  0.10216530601E+01  0.10214101591E+01 0.  0.
     999903    2    3    3    0    0 -0.10212467713E+00  0.83191629144E-01 -0.11140297508E-01  0.13376245725E+00  0.20444850302E-01 0.  0.
         14    1    1    2    0    0  0.22077272684E-01  0.27999424818E-02 -0.10081691352E-02  0.22276939918E-01  0.00000000000E+00 0. -1.
     999901    1    3    3    0    0  0.80047404445E-01 -0.85991571625E-01  0.12148466643E-01  0.88789060283E+00  0.88000000000E+00 0.  1.
        -11    1    4    4    0    0 -0.15883700970E-01  0.49904562285E-02  0.11535961139E-02  0.16696961246E-01  0.51100000000E-03 0. -1.
         11    1    4    4    0    0 -0.86240976159E-01  0.78201172915E-01 -0.12293893622E-01  0.11706549601E+00  0.51100000000E-03 0.  1.
</event>
<event>
 8    1  0.1123285E+005  0.1043930E+01  0.7957747E-01            NaN
         13   -1    0    0    0    0  0.00000000000E+00  0.00000000000E+00  0.74505805969E-08  0.10566000000E+00  0.10566000000E+00 0. -1.
     999900   -1    0    0    0    0 -0.00000000000E+00 -0.00000000000E+00 -0.74505805969E-08  0.93827000000E+00  0.93827000000E+00 0. -1.
     999902    2    1    2    0    0 -0.20196070611E-01  0.69887035219E-03  0.12457331324E-01  0.10201906910E+01  0.10199144529E+01 0.  0.
     999903    2    3    3    0    0  0.10155106448E+00  0.72249302817E-01 -0.23074461456E-01  0.12822413469E+00  0.19401481623E-01 0.  0.
         14    1    1    2    0    0  0.20196070611E-01 -0.69887035219E-03 -0.12457331324E-01  0.23739308996E-01  0.00000000000E+00 0. -1.
     999901    1    3    3    0    0 -0.12174713510E+00 -0.71550432464E-01  0.35531792781E-01  0.89196655632E+00  0.88000000000E+00 0. -1.
        -11    1    4    4    0    0  0.50635370433E-01  0.46707309176E-01 -0.16844347929E-01  0.70919014711E-01  0.51100000000E-03 0. -1.
         11    1    4    4    0    0  0.50915694052E-01  0.25541993640E-01 -0.62301135272E-02  0.57305119976E-01  0.51100000000E-03 0.  1.
</event>
<event>
 8    1  0.1123285E+005  0.1043930E+01  0.7957747E-01            NaN
         13   -1    0    0    0    0  0.00000000000E+00  0.00000000000E+00  0.74505805969E-08  0.10566000000E+00  0.10566000000E+00 0. -1.
     999900   -1    0    0    0    0 -0.00000000000E+00 -0.00000000000E+00 -0.74505805969E-08  0.93827000000E+00  0.93827000000E+00 0. -1.
     999902    2    1    2    0    0  0.66498082577E-02  0.17368957411E-01  0.14156816909E-01  0.10205565942E+01  0.10202889032E+01 0.  0.
     999903    2    3    3    0    0  0.43391133361E-01  0.11446691110E+00 -0.46300721683E-01  0.13239385491E+00  0.19972776447E-01 0.  0.
         14    1    1    2    0    0 -0.66498082577E-02 -0.17368957411E-01 -0.14156816909E-01  0.23373405751E-01  0.00000000000E+00 0.  1.
     999901    1    3    3    0    0 -0.36741325103E-01 -0.97097953685E-01  0.60457538591E-01  0.88816273934E+00  0.88000000000E+00 0.  1.
        -11    1    4    4    0    0  0.13210913037E-01  0.48843360286E-01 -0.28197407377E-01  0.57927169541E-01  0.51100000000E-03 0.  1.
         11    1    4    4    0    0  0.30180220324E-01  0.65623550810E-01 -0.18103314306E-01  0.74466685367E-01  0.51100000000E-03 0. -1.
</event>
<event>
 8    1  0.1123285E+005  0.1043930E+01  0.7957747E-01            NaN
         13   -1    0    0    0    0  0.00000000000E+00  0.00000000000E+00  0.74505805969E-08  0.10566000000E+00  0.10566000000E+00 0. -1.
     999900   -1    0    0    0    0 -0.00000000000E+00 -0.00000000000E+00 -0.74505805969E-08  0.93827000000E+00  0.93827000000E+00 0. -1.
     999902    2    1    2    0    0  0.20309690243E-01  0.10860590406E-01 -0.71971850710E-02  0.10198004452E+01  0.10195149399E+01 0.  0.
     999903    2    3    3    0    0 -0.16501670891E-01  0.12111721399E+00 -0.44347586090E-01  0.13137951364E+00  0.18766553894E-01 0.  0.
         14    1    1    2    0    0 -0.20309690243E-01 -0.10860590406E-01  0.71971850710E-02  0.24129554797E-01  0.00000000000E+00 0.  1.
     999901    1    3    3    0    0  0.36811361134E-01 -0.11025662358E+00  0.37150401019E-01  0.88842093157E+00  0.88000000000E+00 0.  1.
        -11    1    4    4    0    0 -0.15743126671E-01  0.56181486029E-01 -0.15867478144E-01  0.60466878483E-01  0.51100000000E-03 0. -1.
         11    1    4    4    0    0 -0.75854422030E-03  0.64935727957E-01 -0.28480107946E-01  0.70912635153E-01  0.51100000000E-03 0.  1.
</event>
<event>
 8    1  0.1123285E+005  0.1043930E+01  0.7957747E-01            NaN
         13   -1    0    0    0    0  0.00000000000E+00  0.00000000000E+00  0.74505805969E-08  0.10566000000E+00  0.10566000000E+00 0. -1.
     999900   -1    0    0    0    0 -0.00000000000E+00 -0.00000000000E+00 -0.74505805969E-08  0.93827000000E+00  0.93827000000E+00 0. -1.
     999902    2    1    2    0    0 -0.11873421210E-01 -0.62127755056E-03  0.16135030315E-01  0.10238874622E+01  0.10236912777E+01 0.  0.
     999903    2    3    3    0    0  0.57291804299E-01 -0.11090963676E+00 -0.39565296762E-01  0.13256828425E+00  0.20631018256E-01 0.  0.
         14    1    1    2    0    0  0.11873421210E-01  0.62127755056E-03 -0.16135030315E-01  0.20042537770E-01  0.00000000000E+00 0. -1.
     999901    1    3    3    0    0 -0.69165225509E-01  0.11028835921E+00  0.55700327077E-01  0.89131917798E+00  0.88000000000E+00 0. -1.
        -11    1    4    4    0    0  0.14761191921E-01 -0.27446914230E-01 -0.77365493387E-03  0.31178286525E-01  0.51100000000E-03 0. -1.
         11    1    4    4    0    0  0.42530612379E-01 -0.83462722534E-01 -0.38791641828E-01  0.10138999773E+00  0.51100000000E-03 0.  1.
</event>
<event>
 8    1  0.1123285E+005  0.1043930E+01  0.7957747E-01            NaN
         13   -1    0    0    0    0  0.00000000000E+00  0.00000000000E+00  0.74505805969E-08  0.10566000000E+00  0.10566000000E+00 0. -1.
     999900   -1    0    0    0    0 -0.00000000000E+00 -0.00000000000E+00 -0.74505805969E-08  0.93827000000E+00  0.93827000000E+00 0.  1.
     999902    2    1    2    0    0  0.11497115191E-01 -0.58578161138E-02 -0.23701395921E-01  0.10169438214E+01  0.10165856983E+01 0.  0.
     999903    2    3    3    0    0  0.11532998650E+00 -0.77666074004E-02  0.50711732736E-01  0.12771819065E+00  0.19466134927E-01 0.  0.
         14    1    1    2    0    0 -0.11497115191E-01  0.58578161138E-02  0.23701395921E-01  0.26986178609E-01  0.00000000000E+00 0.  1.
     999901    1    3    3    0    0 -0.10383287131E+00  0.19087912865E-02 -0.74413128657E-01  0.88922563074E+00  0.88000000000E+00 0. -1.
        -11    1    4    4    0    0  0.60647344899E-01 -0.13782321723E-01  0.27660687939E-01  0.68069285391E-01  0.51100000000E-03 0.  1.
         11    1    4    4    0    0  0.54682641602E-01  0.60157143222E-02  0.23051044797E-01  0.59648905259E-01  0.51100000000E-03 0. -1.
</event>
<event>
 8    1  0.1123285E+005  0.1043930E+01  0.7957747E-01            NaN
         13   -1    0    0    0    0  0.00000000000E+00  0.00000000000E+00  0.74505805969E-08  0.10566000000E+00  0.10566000000E+00 0. -1.
     999900   -1    0    0    0    0 -0.00000000000E+00 -0.00000000000E+00 -0.74505805969E-08  0.93827000000E+00  0.93827000000E+00 0.  1.
     999902    2    1    2    0    0  0.45974440465E-02 -0.21694594681E-01  0.31530434008E-02  0.10215305890E+01  0.10212849801E+01 0.  0.
     999903    2    3    3    0    0 -0.93999728769E-01  0.28781720308E-01  0.83983587840E-01  0.13091123273E+00  0.20498082733E-01 0.  0.
         14    1    1    2    0    0 -0.45974440465E-02  0.21694594681E-01 -0.31530434008E-02  0.22399410993E-01  0.00000000000E+00 0.  1.
     999901    1    3    3    0    0  0.98597172815E-01 -0.50476314989E-01 -0.80830544439E-01  0.89061935628E+00  0.88000000000E+00 0.  1.
        -11    1    4    4    0    0 -0.50555997848E-01  0.85932346820E-02  0.33179219391E-01  0.61080883434E-01  0.51100000000E-03 0. -1.
         11    1    4    4    0    0 -0.43443730921E-01  0.20188485626E-01  0.50804368449E-01  0.69830349295E-01  0.51100000000E-03 0.  1.
</event>
<event>
 8    1  0.1123285E+005  0.1043930E+01  0.7957747E-01            NaN
         13   -1    0    0    0    0  0.00000000000E+00  0.00000000000E+00  0.74505805969E-08  0.10566000000E+00  0.10566000000E+00 0. -1.
     999900   -1    0    0    0    0 -0.00000000000E+00 -0.00000000000E+00 -0.74505805969E-08  0.93827000000E+00  0.93827000000E+00 0.  1.
     999902    2    1    2    0    0  0.22677876153E-02  0.23690864987E-01  0.15135140214E-02  0.10200827639E+01  0.10198039785E+01 0.  0.
     999903    2    3    3    0    0  0.11182036324E+00  0.54784689693E-01  0.39187451821E-01  0.13194543311E+00  0.19203777759E-01 0.  0.
         14    1    1    2    0    0 -0.22677876153E-02 -0.23690864987E-01 -0.15135140214E-02  0.23847236091E-01  0.00000000000E+00 0.  1.
     999901    1    3    3    0    0 -0.10955257562E+00 -0.31093824705E-01 -0.37673937799E-01  0.88813733079E+00  0.88000000000E+00 0.  1.
        -11    1    4    4    0    0  0.27331376717E-01  0.15794155432E-01  0.16743345193E-02  0.31615249740E-01  0.51100000000E-03 0. -1.
         11    1    4    4    0    0  0.84488986521E-01  0.38990534261E-01  0.37513117301E-01  0.10033018337E+00  0.51100000000E-03 0.  1.
</event>
<event>
 8    1  0.1123285E+005  0.1043930E+01  0.7957747E-01            NaN
         13   -1    0    0    0    0  0.00000000000E+00  0.00000000000E+00  0.74505805969E-08  0.10566000000E+00  0.10566000000E+00 0.  1.
     999900   -1    0    0    0    0 -0.00000000000E+00 -0.00000000000E+00 -0.74505805969E-08  0.93827000000E+00  0.93827000000E+00 0. -1.
     999902    2    1    2    0    0 -0.20734351636E-01 -0.99890375822E-02  0.42149127630E-02  0.10205321433E+01  0.10202638854E+01 0.  0.
     999903    2    3    3    0    0  0.39877929131E-02 -0.68858887240E-02 -0.12846235940E+00  0.13023776920E+00  0.19899266006E-01 0.  0.
         14    1    1    2    0    0  0.20734351636E-01  0.99890375822E-02 -0.42149127630E-02  0.23397856722E-01  0.00000000000E+00 0.  1.
     999901    1    3    3    0    0 -0.24722144549E-01 -0.31031488582E-02  0.13267727216E+00  0.89029437408E+00  0.88000000000E+00 0.  1.
        -11    1    4    4    0    0 -0.74346429568E-02 -0.10004122914E-02 -0.68531425816E-01  0.68942673186E-01  0.51100000000E-03 0.  1.
         11    1    4    4    0    0  0.11422435870E-01 -0.58854764326E-02 -0.59930933586E-01  0.61295096015E-01  0.51100000000E-03 0. -1.
</event>
<event>
 8    1  0.1123285E+005  0.1043930E+01  0.7957747E-01            NaN
         13   -1    0    0    0    0  0.00000000000E+00  0.00000000000E+00  0.74505805969E-08  0.10566000000E+00  0.10566000000E+00 0.  1.
     999900   -1    0    0    0    0 -0.00000000000E+00 -0.00000000000E+00 -0.74505805969E-08  0.93827000000E+00  0.93827000000E+00 0.  1.
     999902    2    1    2    0    0 -0.79521361217E-02 -0.44035348923E-02 -0.20722715452E-01  0.10213012898E+01  0.10210505698E+01 0.  0.
     999903    2    3    3    0    0 -0.42450149074E-01 -0.34454699468E-01  0.11601791107E+00  0.12956636041E+00  0.18388708207E-01 0.  0.
         14    1    1    2    0    0  0.79521361217E-02  0.44035348923E-02  0.20722715452E-01  0.22628710174E-01  0.00000000000E+00 0.  1.
     999901    1    3    3    0    0  0.34498012953E-01  0.30051164576E-01 -0.13674062652E+00  0.89173492941E+00  0.88000000000E+00 0.  1.
        -11    1    4    4    0    0 -0.25251112726E-01 -0.30575947221E-01  0.73088718266E-01  0.83154850136E-01  0.51100000000E-03 0.  1.
         11    1    4    4    0    0 -0.17199036348E-01 -0.38787522469E-02  0.42929192807E-01  0.46411510279E-01  0.51100000000E-03 0. -1.
</event>
<event>
 8    1  0.1123285E+005  0.1043930E+01  0.7957747E-01            NaN
         13   -1    0    0    0    0  0.00000000000E+00  0.00000000000E+00  0.74505805969E-08  0.10566000000E+00  0.10566000000E+00 0.  1.
     999900   -1    0    0    0    0 -0.00000000000E+00 -0.00000000000E+00 -0.74505805969E-08  0.93827000000E+00  0.93827000000E+00 0. -1.
     999902    2    1    2    0    0  0.19285861471E-01 -0.11714472667E-01 -0.21388715064E-03  0.10213641171E+01  0.10211148029E+01 0.  0.
     999903    2    3    3    0    0 -0.99854575185E-01  0.42514626074E-01 -0.67133096368E-01  0.12916827575E+00  0.19979019394E-01 0.  0.
         14    1    1    2    0    0 -0.19285861471E-01  0.11714472667E-01  0.21388715064E-03  0.22565882882E-01  0.00000000000E+00 0. -1.
     999901    1    3    3    0    0  0.11914043666E+00 -0.54229098741E-01  0.66919209217E-01  0.89219584137E+00  0.88000000000E+00 0.  1.
        -11    1    4    4    0    0 -0.36704655318E-01  0.18483598883E-01 -0.14728169889E-01  0.43658392766E-01  0.51100000000E-03 0. -1.
         11    1    4    4    0    0 -0.63149919868E-01  0.24031027191E-01 -0.52404926479E-01  0.85509882981E-01  0.51100000000E-03 0.  1.
</event>
<event>
 8    1  0.1123285E+005  0.1043930E+01  0.7957747E-01            NaN
         13   -1    0    0    0    0  0.00000000000E+00  0.00000000000E+00  0.74505805969E-08  0.10566000000E+00  0.10566000000E+00 0. -1.
     999900   -1    0    0    0    0 -0.00000000000E+00 -0.00000000000E+00 -0.74505805969E-08  0.93827000000E+00  0.93827000000E+00 0. -1.
     999902    2    1    2    0    0 -0.16075943149E-02 -0.16976927412E-02 -0.23833261574E-01  0.10199823304E+01  0.10197011638E+01 0.  0.
     999903    2    3    3    0    0  0.77545015944E-01 -0.26852552109E-01  0.96527856323E-01  0.12791467529E+00  0.17613859767E-01 0.  0.
         14    1    1    2    0    0  0.16075943149E-02  0.16976927412E-02  0.23833261574E-01  0.23947669561E-01  0.00000000000E+00 0. -1.
     999901    1    3    3    0    0 -0.79152610259E-01  0.25154859368E-01 -0.12036111790E+00  0.89206765515E+00  0.88000000000E+00 0. -1.
        -11    1    4    4    0    0  0.73848398579E-01 -0.21182268549E-01  0.91441783204E-01  0.11943255549E+00  0.51100000000E-03 0. -1.
         11    1    4    4    0    0  0.36966173651E-02 -0.56702835603E-02  0.50860731186E-02  0.84821198038E-02  0.51100000000E-03 0.  1.
</event>
<event>
 8    1  0.1123285E+005  0.1043930E+01  0.7957747E-01            NaN
         13   -1    0    0    0    0  0.00000000000E+00  0.00000000000E+00  0.74505805969E-08  0.10566000000E+00  0.10566000000E+00 0. -1.
     999900   -1    0    0    0    0 -0.00000000000E+00 -0.00000000000E+00 -0.74505805969E-08  0.93827000000E+00  0.93827000000E+00 0. -1.
     999902    2    1    2    0    0 -0.12435614869E-01 -0.99367692361E-02  0.17682164984E-01  0.10201383448E+01  0.10198608727E+01 0.  0.
     999903    2    3    3    0    0  0.37296318726E-01 -0.12369102883E+00  0.13770915508E-01  0.13141533130E+00  0.19745004050E-01 0.  0.
         14    1    1    2    0    0  0.12435614869E-01  0.99367692361E-02 -0.17682164984E-01  0.23791655229E-01  0.00000000000E+00 0.  1.
     999901    1    3    3    0    0 -0.49731933596E-01  0.11375425959E+00  0.39112494757E-02  0.88872301347E+00  0.88000000000E+00 0. -1.
        -11    1    4    4    0    0  0.27579891571E-01 -0.64314900859E-01  0.13366484856E-01  0.71245918690E-01  0.51100000000E-03 0. -1.
         11    1    4    4    0    0  0.97164271549E-02 -0.59376127967E-01  0.40443065238E-03  0.60169412613E-01  0.51100000000E-03 0.  1.
</event>
<event>
 8    1  0.1123285E+005  0.1043930E+01  0.7957747E-01            NaN
         13   -1    0    0    0    0  0.00000000000E+00  0.00000000000E+00  0.74505805969E-08  0.10566000000E+00  0.10566000000E+00 0. -1.
     999900   -1    0    0    0    0 -0.00000000000E+00 -0.00000000000E+00 -0.74505805969E-08  0.93827000000E+00  0.93827000000E+00 0.  1.
     999902    2    1    2    0    0  0.24435509953E-01  0.95284445510E-02  0.75170243918E-02  0.10166464691E+01  0.10162803019E+01 0.  0.
     999903    2    3    3    0    0 -0.11439223656E+00  0.29136658304E-01  0.35982552441E-01  0.12509281871E+00  0.20468037794E-01 0.  0.
         14    1    1    2    0    0 -0.24435509953E-01 -0.95284445510E-02 -0.75170243918E-02  0.27283530892E-01  0.00000000000E+00 0. -1.
     999901    1    3    3    0    0  0.13882774651E+00 -0.19608213753E-01 -0.28465528050E-01  0.89155365040E+00  0.88000000000E+00 0.  1.
        -11    1    4    4    0    0 -0.95369360926E-01  0.16336028727E-01  0.26939229713E-01  0.10043985293E+00  0.51100000000E-03 0. -1.
         11    1    4    4    0    0 -0.19022875632E-01  0.12800629577E-01  0.90433227288E-02  0.24652965782E-01  0.51100000000E-03 0.  1.
</event>
<event>
 8    1  0.1123285E+005  0.1043930E+01  0.7957747E-01            NaN
         13   -1    0    0    0    0  0.00000000000E+00  0.00000000000E+00  0.74505805969E-08  0.10566000000E+00  0.10566000000E+00 0.  1.
     999900   -1    0    0    0    0 -0.00000000000E+00 -0.00000000000E+00 -0.74505805969E-08  0.93827000000E+00  0.93827000000E+00 0. -1.
     999902    2    1    2    0    0  0.20099994553E-01  0.50312031551E-02 -0.19639757030E-02  0.10231170236E+01  0.10229053055E+01 0.  0.
     999903    2    3    3    0    0 -0.95199752089E-01 -0.85168933106E-01 -0.19828651945E-01  0.13084506796E+00  0.20261204493E-01 0.  0.
         14    1    1    2    0    0 -0.20099994553E-01 -0.50312031551E-02  0.19639757030E-02  0.20812976403E-01  0.00000000000E+00 0. -1.
     999901    1    3    3    0    0  0.11529974664E+00  0.90200136261E-01  0.17864676242E-01  0.89227195564E+00  0.88000000000E+00 0.  1.
        -11    1    4    4    0    0 -0.15356227383E-01 -0.17956196226E-01 -0.11107440013E-01  0.26112737256E-01  0.51100000000E-03 0.  1.
         11    1    4    4    0    0 -0.79843524706E-01 -0.67212736880E-01 -0.87212119319E-02  0.10473233071E+00  0.51100000000E-03 0. -1.
</event>
<event>
 8    1  0.1123285E+005  0.1043930E+01  0.7957747E-01            NaN
         13   -1    0    0    0    0  0.00000000000E+00  0.00000000000E+00  0.74505805969E-08  0.10566000000E+00  0.10566000000E+00 0.  1.
     999900   -1    0    0    0    0 -0.00000000000E+00 -0.00000000000E+00 -0.74505805969E-08  0.93827000000E+00  0.93827000000E+00 0. -1.
     999902    2    1    2    0    0 -0.13027451155E-01 -0.24201757580E-01  0.19508431837E-01  0.10102251270E+01  0.10096627104E+01 0.  0.
     999903    2    3    3    0    0 -0.42978967800E-01 -0.34750183652E-01  0.11020974701E+00  0.12499346733E+00  0.20552654370E-01 0.  0.
         14    1    1    2    0    0  0.13027451155E-01  0.24201757580E-01 -0.19508431837E-01  0.33704873035E-01  0.00000000000E+00 0. -1.
     999901    1    3    3    0    0  0.29951516645E-01  0.10548426073E-01 -0.90701315177E-01  0.88523165963E+00  0.88000000000E+00 0. -1.
        -11    1    4    4    0    0 -0.34710033490E-01 -0.36563803840E-01  0.96371621276E-01  0.10876326900E+00  0.51100000000E-03 0. -1.
         11    1    4    4    0    0 -0.82689343093E-02  0.18136201875E-02  0.13838125739E-01  0.16230198328E-01  0.51100000000E-03 0.  1.
</event>
<event>
 8    1  0.1123285E+005  0.1043930E+01  0.7957747E-01            NaN
         13   -1    0    0    0    0  0.00000000000E+00  0.00000000000E+00  0.74505805969E-08  0.10566000000E+00  0.10566000000E+00 0.  1.
     999900   -1    0    0    0    0 -0.00000000000E+00 -0.00000000000E+00 -0.74505805969E-08  0.93827000000E+00  0.93827000000E+00 0. -1.
     999902    2    1    2    0    0  0.16664054703E-01  0.16455630225E-01 -0.47578227810E-02  0.10200319799E+01  0.10197519918E+01 0.  0.
     999903    2    3    3    0    0 -0.10135947299E+00  0.79158880469E-02 -0.77293215764E-01  0.12915383815E+00  0.19237168647E-01 0.  0.
         14    1    1    2    0    0 -0.16664054703E-01 -0.16455630225E-01  0.47578227810E-02  0.23898020062E-01  0.00000000000E+00 0. -1.
     999901    1    3    3    0    0  0.11802352769E+00  0.85397421779E-02  0.72535392983E-01  0.89087814179E+00  0.88000000000E+00 0.  1.
        -11    1    4    4    0    0 -0.69332401502E-01  0.91633037775E-02 -0.62718817445E-01  0.93940721824E-01  0.51100000000E-03 0. -1.
         11    1    4    4    0    0 -0.32027071485E-01 -0.12474157306E-02 -0.14574398319E-01  0.35213116324E-01  0.51100000000E-03 0.  1.
</event>
<event>
 8    1  0.1123285E+005  0.1043930E+01  0.7957747E-01            NaN
         13   -1    0    0    0    0  0.00000000000E+00  0.00000000000E+00  0.74505805969E-08  0.10566000000E+00  0.10566000000E+00 0. -1.
     999900   -1    0    0    0    0 -0.00000000000E+00 -0.00000000000E+00 -0.74505805969E-08  0.93827000000E+00  0.93827000000E+00 0. -1.
     999902    2    1    2    0    0  0.67775513979E-02  0.20048787080E-01  0.10316682390E-01  0.10203859349E+01  0.10201142745E+01 0.  0.
     999903    2    3    3    0    0 -0.68021029273E-01 -0.40273438076E-01 -0.99248185410E-01  0.12840047606E+00  0.19689329757E-01 0.  0.
         14    1    1    2    0    0 -0.67775513979E-02 -0.20048787080E-01 -0.10316682390E-01  0.23544065109E-01  0.00000000000E+00 0.  1.
     999901    1    3    3    0    0  0.74798580671E-01  0.60322225156E-01  0.10956486780E+00  0.89198545884E+00  0.88000000000E+00 0.  1.
        -11    1    4    4    0    0 -0.54800108009E-01 -0.40096675491E-01 -0.78528197351E-01  0.10381586643E+00  0.51100000000E-03 0.  1.
         11    1    4    4    0    0 -0.13220921263E-01 -0.17676258508E-03 -0.20719988059E-01  0.24584609621E-01  0.51100000000E-03 0. -1.
</event>
<event>
 8    1  0.1123285E+005  0.1043930E+01  0.7957747E-01            NaN
         13   -1    0    0    0    0  0.00000000000E+00  0.00000000000E+00  0.74505805969E-08  0.10566000000E+00  0.10566000000E+00 0.  1.
     999900   -1    0    0    0    0 -0.00000000000E+00 -0.00000000000E+00 -0.74505805969E-08  0.93827000000E+00  0.93827000000E+00 0. -1.
     999902    2    1    2    0    0  0.12439643723E-01 -0.26965074118E-02  0.19551709118E-01  0.10206000789E+01  0.10203333945E+01 0.  0.
     999903    2    3    3    0    0 -0.32877106877E-01 -0.10429385290E+00  0.71305836418E-01  0.13208777276E+00  0.20113316415E-01 0.  0.
         14    1    1    2    0    0 -0.12439643723E-01  0.26965074118E-02 -0.19551709118E-01  0.23329921081E-01  0.00000000000E+00 0. -1.
     999901    1    3    3    0    0  0.45316750600E-01  0.10159734549E+00 -0.51754127300E-01  0.88851230615E+00  0.88000000000E+00 0. -1.
        -11    1    4    4    0    0 -0.45397539331E-02 -0.46544244699E-01  0.32650904874E-01  0.57037871546E-01  0.51100000000E-03 0. -1.
         11    1    4    4    0    0 -0.28337352944E-01 -0.57749608202E-01  0.38654931544E-01  0.75049901219E-01  0.51100000000E-03 0.  1.
</event>
<event>
 8    1  0.1123285E+005  0.1043930E+01  0.7957747E-01            NaN
         13   -1    0    0    0    0  0.00000000000E+00  0.00000000000E+00  0.74505805969E-08  0.10566000000E+00  0.10566000000E+00 0. -1.
     999900   -1    0    0    0    0 -0.00000000000E+00 -0.00000000000E+00 -0.74505805969E-08  0.93827000000E+00  0.93827000000E+00 0. -1.
     999902    2    1    2    0    0  0.10546006805E-01  0.14906955647E-01  0.15403958770E-01  0.10200403049E+01  0.10197605141E+01 0.  0.
     999903    2    3    3    0    0  0.68265065947E-01  0.85575076009E-01 -0.69144413151E-01  0.13129180267E+00  0.21757176179E-01 0.  0.
         14    1    1    2    0    0 -0.10546006805E-01 -0.14906955647E-01 -0.15403958770E-01  0.23889695101E-01  0.00000000000E+00 0.  1.
     999901    1    3    3    0    0 -0.57719059142E-01 -0.70668120362E-01  0.84548371921E-01  0.88874850223E+00  0.88000000000E+00 0.  1.
        -11    1    4    4    0    0  0.19618129534E-01  0.27074702204E-01 -0.33276940620E-01  0.47175485200E-01  0.51100000000E-03 0.  1.
         11    1    4    4    0    0  0.48646936412E-01  0.58500373805E-01 -0.35867472531E-01  0.84116317468E-01  0.51100000000E-03 0. -1.
</event>
<event>
 8    1  0.1123285E+005  0.1043930E+01  0.7957747E-01            NaN
         13   -1    0    0    0    0  0.00000000000E+00  0.00000000000E+00  0.74505805969E-08  0.10566000000E+00  0.10566000000E+00 0. -1.
     999900   -1    0    0    0    0 -0.00000000000E+00 -0.00000000000E+00 -0.74505805969E-08  0.93827000000E+00  0.93827000000E+00 0. -1.
     999902    2    1    2    0    0 -0.22479972108E-01  0.19957200965E-02  0.11818150867E-01  0.10184545072E+01  0.10181358369E+01 0.  0.
     999903    2    3    3    0    0  0.58488589957E-01 -0.87690525760E-01  0.70431075253E-01  0.12826632165E+00  0.19523561309E-01 0.  0.
         14    1    1    2    0    0  0.22479972108E-01 -0.19957200965E-02 -0.11818150867E-01  0.25475492823E-01  0.00000000000E+00 0.  1.
     999901    1    3    3    0    0 -0.80968562065E-01  0.89686245857E-01 -0.58612924386E-01  0.89018818552E+00  0.88000000000E+00 0. -1.
        -11    1    4    4    0    0  0.19313414470E-01 -0.40966737450E-01  0.38445060720E-01  0.59410145351E-01  0.51100000000E-03 0.  1.
         11    1    4    4    0    0  0.39175175487E-01 -0.46723788310E-01  0.31986014532E-01  0.68856176303E-01  0.51100000000E-03 0. -1.
</event>
<event>
 8    1  0.1123285E+005  0.1043930E+01  0.7957747E-01            NaN
         13   -1    0    0    0    0  0.00000000000E+00  0.00000000000E+00  0.74505805969E-08  0.10566000000E+00  0.10566000000E+00 0.  1.
     999900   -1    0    0    0    0 -0.00000000000E+00 -0.00000000000E+00 -0.74505805969E-08  0.93827000000E+00  0.93827000000E+00 0.  1.
     999902    2    1    2    0    0  0.21166948086E-01 -0.97931128692E-02  0.31413660574E-02  0.10203967696E+01  0.10201253622E+01 0.  0.
     999903    2    3    3    0    0 -0.44589599593E-01  0.66402358218E-02 -0.11938601769E+00  0.12932610000E+00  0.20973645267E-01 0.  0.
         14    1    1    2    0    0 -0.21166948086E-01  0.97931128692E-02 -0.31413660574E-02  0.23533230370E-01  0.00000000000E+00 0.  1.
     999901    1    3    3    0    0  0.65756547679E-01 -0.16433348691E-01  0.12252738375E+00  0.89107066963E+00  0.88000000000E+00 0. -1.
        -11    1    4    4    0    0 -0.14557121204E-01  0.41782373777E-02 -0.17865006763E-01  0.23426203981E-01  0.51100000000E-03 0. -1.
         11    1    4    4    0    0 -0.30032478389E-01  0.24619984440E-02 -0.10152101093E+00  0.10589989601E+00  0.51100000000E-03 0.  1.
</event>
<event>
 8    1  0.1123285E+005  0.1043930E+01  0.7957747E-01            NaN
         13   -1    0    0    0    0  0.00000000000E+00  0.00000000000E+00  0.74505805969E-08  0.10566000000E+00  0.10566000000E+00 0. -1.
     999900   -1    0    0    0    0 -0.00000000000E+00 -0.00000000000E+00 -0.74505805969E-08  0.93827000000E+00  0.93827000000E+00 0.  1.
     999902    2    1    2    0    0  0.10170754932E-01  0.81722811940E-02 -0.21392647170E-01  0.10188725502E+01  0.10185643808E+01 0.  0.
     999903    2    3    3    0    0 -0.56125036157E-01 -0.30858229983E-01 -0.11231881534E+00  0.13084885642E+00  0.20091214624E-01 0.  0.
         14    1    1    2    0    0 -0.10170754932E-01 -0.81722811940E-02  0.21392647170E-01  0.25057449765E-01  0.00000000000E+00 0. -1.
     999901    1    3    3    0    0  0.66295791089E-01  0.39030511177E-01  0.90926168173E-01  0.88802369382E+00  0.88000000000E+00 0. -1.
        -11    1    4    4    0    0 -0.89939170364E-02 -0.13735950425E-01 -0.20939168858E-01  0.26613470108E-01  0.51100000000E-03 0. -1.
         11    1    4    4    0    0 -0.47131119121E-01 -0.17122279558E-01 -0.91379646485E-01  0.10423538631E+00  0.51100000000E-03 0.  1.
</event>
<event>
 8    1  0.1123285E+005  0.1043930E+01  0.7957747E-01            NaN
         13   -1    0    0    0    0  0.00000000000E+00  0.00000000000E+00  0.74505805969E-08  0.10566000000E+00  0.10566000000E+00 0. -1.
     999900   -1    0    0    0    0 -0.00000000000E+00 -0.00000000000E+00 -0.74505805969E-08  0.93827000000E+00  0.93827000000E+00 0. -1.
     999902    2    1    2    0    0  0.24599392615E-01 -0.82290093218E-03  0.15639190153E-01  0.10147685262E+01  0.10143494321E+01 0.  0.
     999903    2    3    3    0    0 -0.10244319123E+00  0.15029855136E-01 -0.58958915029E-01  0.12238071521E+00  0.27935314926E-01 0.  0.
         14    1    1    2    0    0 -0.24599392615E-01  0.82290093218E-03 -0.15639190153E-01  0.29161473756E-01  0.00000000000E+00 0.  1.
     999901    1    3    3    0    0  0.12704258384E+00 -0.15852756068E-01  0.74598105182E-01  0.89238781103E+00  0.88000000000E+00 0.  1.
        -11    1    4    4    0    0 -0.72793458120E-01  0.94373060218E-02 -0.55463153612E-01  0.92002026171E-01  0.51100000000E-03 0. -1.
         11    1    4    4    0    0 -0.29649733106E-01  0.55925491138E-02 -0.34957614171E-02  0.30378689039E-01  0.51100000000E-03 0.  1.
</event>
<event>
 7    1  0.1123285E+005  0.1043930E+01  0.7957747E-01            NaN
         13   -1    0    0    0    0  0.00000000000E+00  0.00000000000E+00  0.74505805969E-08  0.10566000000E+00  0.10566000000E+00 0.  1.
     999900   -1    0    0    0    0 -0.00000000000E+00 -0.00000000000E+00 -0.74505805969E-08  0.93827000000E+00  0.93827000000E+00 0. -1.
     999903    2    1    2    0    0  0.83139214117E-01 -0.62567302064E-02  0.44495578875E-01  0.96556350074E-01  0.19798904092E-01 0.  0.
         14    1    1    2    0    0 -0.41048562451E-01 -0.36141230301E-01  0.29695238994E-01  0.62233272659E-01  0.00000000000E+00 0.  1.
     999901    1    1    2    0    0 -0.42090651666E-01  0.42397960507E-01 -0.74190817869E-01  0.88514037727E+00  0.88000000000E+00 0. -1.
        -11    1    3    3    0    0  0.10558937029E-01  0.18568335218E-02 -0.55117353881E-03  0.10747273848E-01  0.51100000000E-03 0. -1.
         11    1    3    3    0    0  0.72580277089E-01 -0.81135637282E-02  0.45046752414E-01  0.85809076225E-01  0.51100000000E-03 0.  1.
</event>
<event>
 8    1  0.1123285E+005  0.1043930E+01  0.7957747E-01            NaN
         13   -1    0    0    0    0  0.00000000000E+00  0.00000000000E+00  0.74505805969E-08  0.10566000000E+00  0.10566000000E+00 0. -1.
     999900   -1    0    0    0    0 -0.00000000000E+00 -0.00000000000E+00 -0.74505805969E-08  0.93827000000E+00  0.93827000000E+00 0.  1.
     999902    2    1    2    0    0 -0.18654989830E-01 -0.11286464163E-01 -0.80876909970E-02  0.10206748142E+01  0.10204098553E+01 0.  0.
     999903    2    3    3    0    0  0.18042239010E-01  0.12444752573E+00  0.20141582350E-01  0.12906542977E+00  0.20964082897E-01 0.  0.
         14    1    1    2    0    0  0.18654989830E-01  0.11286464163E-01  0.80876909970E-02  0.23255185755E-01  0.00000000000E+00 0. -1.
     999901    1    3    3    0    0 -0.36697228840E-01 -0.13573398990E+00 -0.28229273347E-01  0.89160938448E+00  0.88000000000E+00 0. -1.
        -11    1    4    4    0    0  0.21919686024E-01  0.90626118430E-01  0.11566364819E-01  0.93955350530E-01  0.51100000000E-03 0. -1.
         11    1    4    4    0    0 -0.38774470137E-02  0.33821407302E-01  0.85752175312E-02  0.35110079236E-01  0.51100000000E-03 0.  1.
</event>
<event>
 8    1  0.1123285E+005  0.1043930E+01  0.7957747E-01            NaN
         13   -1    0    0    0    0  0.00000000000E+00  0.00000000000E+00  0.74505805969E-08  0.10566000000E+00  0.10566000000E+00 0. -1.
     999900   -1    0    0    0    0 -0.00000000000E+00 -0.00000000000E+00 -0.74505805969E-08  0.93827000000E+00  0.93827000000E+00 0.  1.
     999902    2    1    2    0    0 -0.14691725636E-01 -0.15358465679E-01 -0.66230611660E-02  0.10216680547E+01  0.10214254842E+01 0.  0.
     999903    2    3    3    0    0 -0.49526750357E-01  0.86106148520E-01 -0.84159661094E-01  0.13176891927E+00  0.20323181728E-01 0.  0.
         14    1    1    2    0    0  0.14691725636E-01  0.15358465679E-01  0.66230611660E-02  0.22261945319E-01  0.00000000000E+00 0. -1.
     999901    1    3    3    0    0  0.34835024722E-01 -0.10146461420E+00  0.77536599928E-01  0.88989913541E+00  0.88000000000E+00 0. -1.
        -11    1    4    4    0    0 -0.30438186442E-01  0.57779475660E-01 -0.42615040750E-01  0.77982394299E-01  0.51100000000E-03 0. -1.
         11    1    4    4    0    0 -0.19088563915E-01  0.28326672859E-01 -0.41544620344E-01  0.53786524968E-01  0.51100000000E-03 0.  1.
</event>
<event>
 8    1  0.1123285E+005  0.1043930E+01  0.7957747E-01            NaN
         13   -1    0    0    0    0  0.00000000000E+00  0.00000000000E+00  0.74505805969E-08  0.10566000000E+00  0.10566000000E+00 0. -1.
     999900   -1    0    0    0    0 -0.00000000000E+00 -0.00000000000E+00 -0.74505805969E-08  0.93827000000E+00  0.93827000000E+00 0. -1.
     999902    2    1    2    0    0 -0.91927831407E-02  0.20033536390E-01 -0.11294809653E-01  0.10191626310E+01  0.10188616422E+01 0.  0.
     999903    2    3    3    0    0 -0.10182891449E+00  0.11927109059E-01  0.77135264486E-01  0.12985557210E+00  0.20030896653E-01 0.  0.
         14    1    1    2    0    0  0.91927831407E-02 -0.20033536390E-01  0.11294809653E-01  0.24767369001E-01  0.00000000000E+00 0. -1.
     999901    1    3    3    0    0  0.92636131352E-01  0.81064273308E-02 -0.88430074139E-01  0.88930705890E+00  0.88000000000E+00 0. -1.
        -11    1    4    4    0    0 -0.73075109617E-01  0.15568987705E-01  0.48306152178E-01  0.88972526563E-01  0.51100000000E-03 0.  1.
         11    1    4    4    0    0 -0.28753804875E-01 -0.36418786460E-02  0.28829112309E-01  0.40883045537E-01  0.51100000000E-03 0. -1.
</event>
<event>
 8    1  0.1123285E+005  0.1043930E+01  0.7957747E-01            NaN
         13   -1    0    0    0    0  0.00000000000E+00  0.00000000000E+00  0.74505805969E-08  0.10566000000E+00  0.10566000000E+00 0.  1.
     999900   -1    0    0    0    0 -0.00000000000E+00 -0.00000000000E+00 -0.74505805969E-08  0.93827000000E+00  0.93827000000E+00 0. -1.
     999902    2    1    2    0    0 -0.89419201187E-02 -0.20669360855E-01  0.79405367332E-02  0.10200504578E+01  0.10197709075E+01 0.  0.
     999903    2    3    3    0    0  0.64946913178E-01 -0.17927599496E-01  0.11066568791E+00  0.13099504126E+00  0.19321128308E-01 0.  0.
         14    1    1    2    0    0  0.89419201187E-02  0.20669360855E-01 -0.79405367332E-02  0.23879542232E-01  0.00000000000E+00 0. -1.
     999901    1    3    3    0    0 -0.73888833297E-01 -0.27417613597E-02 -0.10272515118E+00  0.88905541651E+00  0.88000000000E+00 0.  1.
        -11    1    4    4    0    0  0.14618213883E-01  0.59146431301E-04  0.12583560575E-01  0.19295149473E-01  0.51100000000E-03 0. -1.
         11    1    4    4    0    0  0.50328699296E-01 -0.17986745927E-01  0.98082127333E-01  0.11169989179E+00  0.51100000000E-03 0.  1.
</event>
<event>
 7    1  0.1123285E+005  0.1043930E+01  0.7957747E-01            NaN
         13   -1    0    0    0    0  0.00000000000E+00  0.00000000000E+00  0.74505805969E-08  0.10566000000E+00  0.10566000000E+00 0.  1.
     999900   -1    0    0    0    0 -0.00000000000E+00 -0.00000000000E+00 -0.74505805969E-08  0.93827000000E+00  0.93827000000E+00 0.  1.
     999902    2    1    2    0    0  0.66191604731E-02 -0.16132439043E-01 -0.16698495077E-01  0.10197864996E+01  0.10195006602E+01 0.  0.
         14    1    1    2    0    0 -0.66191604731E-02  0.16132439043E-01  0.16698495077E-01  0.24143500423E-01  0.00000000000E+00 0.  1.
     999901    1    3    3    0    0 -0.77572936062E-02  0.25714755037E-02  0.10901138993E+00  0.88676393207E+00  0.88000000000E+00 0. -1.
        -11    1    3    3    0    0 -0.52035063516E-02  0.67182131058E-02 -0.51087008641E-01  0.51791451405E-01  0.51100000000E-03 0. -1.
         11    1    3    3    0    0  0.19579960431E-01 -0.25422127652E-01 -0.74622876365E-01  0.81231116100E-01  0.51100000000E-03 0.  1.
</event>
<event>
 8    1  0.1123285E+005  0.1043930E+01  0.7957747E-01            NaN
         13   -1    0    0    0    0  0.00000000000E+00  0.00000000000E+00  0.74505805969E-08  0.10566000000E+00  0.10566000000E+00 0.  1.
     999900   -1    0    0    0    0 -0.00000000000E+00 -0.00000000000E+00 -0.74505805969E-08  0.93827000000E+00  0.93827000000E+00 0. -1.
     999902    2    1    2    0    0  0.14641328582E-01 -0.32980333108E-02  0.18834576618E-01  0.10198470848E+01  0.10195626953E+01 0.  0.
     999903    2    3    3    0    0 -0.34954728884E-01 -0.12097301173E+00 -0.23825521920E-01  0.12960719949E+00  0.19340838262E-01 0.  0.
         14    1    1    2    0    0 -0.14641328582E-01  0.32980333108E-02 -0.18834576618E-01  0.24082915163E-01  0.00000000000E+00 0. -1.
     999901    1    3    3    0    0  0.49596057466E-01  0.11767497842E+00  0.42660098538E-01  0.89023988535E+00  0.88000000000E+00 0. -1.
        -11    1    4    4    0    0 -0.32478772649E-01 -0.79952162270E-01 -0.15898333320E-01  0.87750994569E-01  0.51100000000E-03 0.  1.
         11    1    4    4    0    0 -0.24759562342E-02 -0.41020849463E-01 -0.79271885997E-02  0.41856204917E-01  0.51100000000E-03 0. -1.
</event>
<event>
 8    1  0.1123285E+005  0.1043930E+01  0.7957747E-01            NaN
         13   -1    0    0    0    0  0.00000000000E+00  0.00000000000E+00  0.74505805969E-08  0.10566000000E+00  0.10566000000E+00 0.  1.
     999900   -1    0    0    0    0 -0.00000000000E+00 -0.00000000000E+00 -0.74505805969E-08  0.93827000000E+00  0.93827000000E+00 0. -1.
     999902    2    1    2    0    0  0.22962679793E-01 -0.50851660603E-02 -0.22749319565E-02  0.10203012274E+01  0.10200275858E+01 0.  0.
     999903    2    3    3    0    0 -0.46882772487E-02 -0.51303630897E-01 -0.11871814995E+00  0.13099827291E+00  0.20310241084E-01 0.  0.
         14    1    1    2    0    0 -0.22962679793E-01  0.50851660603E-02  0.22749319565E-02  0.23628772557E-01  0.00000000000E+00 0.  1.
     999901    1    3    3    0    0  0.27650957042E-01  0.46218464837E-01  0.11644321799E+00  0.88930295453E+00  0.88000000000E+00 0.  1.
        -11    1    4    4    0    0 -0.11070857736E-01 -0.20744191836E-01 -0.60984962257E-01  0.65362926254E-01  0.51100000000E-03 0.  1.
         11    1    4    4    0    0  0.63825804876E-02 -0.30559439062E-01 -0.57733187690E-01  0.65635346661E-01  0.51100000000E-03 0. -1.
</event>
<event>
 8    1  0.1123285E+005  0.1043930E+01  0.7957747E-01            NaN
         13   -1    0    0    0    0  0.00000000000E+00  0.00000000000E+00  0.74505805969E-08  0.10566000000E+00  0.10566000000E+00 0.  1.
     999900   -1    0    0    0    0 -0.00000000000E+00 -0.00000000000E+00 -0.74505805969E-08  0.93827000000E+00  0.93827000000E+00 0.  1.
     999902    2    1    2    0    0 -0.20723138468E-01 -0.91583239977E-02 -0.62486595121E-02  0.10204274658E+01  0.10201567742E+01 0.  0.
     999903    2    3    3    0    0  0.97971879926E-01  0.48605057469E-01  0.63021560714E-01  0.12788980330E+00  0.20570459560E-01 0.  0.
         14    1    1    2    0    0  0.20723138468E-01  0.91583239977E-02  0.62486595121E-02  0.23502534163E-01  0.00000000000E+00 0.  1.
     999901    1    3    3    0    0 -0.11869501839E+00 -0.57763381467E-01 -0.69270220226E-01  0.89253766253E+00  0.88000000000E+00 0.  1.
        -11    1    4    4    0    0  0.91342729265E-02 -0.12200598825E-02  0.32217374553E-02  0.97756944123E-02  0.51100000000E-03 0.  1.
         11    1    4    4    0    0  0.88837606999E-01  0.49825117352E-01  0.59799823258E-01  0.11811410889E+00  0.51100000000E-03 0. -1.
</event>
<event>
 8    1  0.1123285E+005  0.1043930E+01  0.7957747E-01            NaN
         13   -1    0    0    0    0  0.00000000000E+00  0.00000000000E+00  0.74505805969E-08  0.10566000000E+00  0.10566000000E+00 0. -1.
     999900   -1    0    0    0    0 -0.00000000000E+00 -0.00000000000E+00 -0.74505805969E-08  0.93827000000E+00  0.93827000000E+00 0.  1.
     999902    2    1    2    0    0  0.46181201102E-02  0.16567803821E-01  0.23107564897E-01  0.10151241202E+01  0.10147153299E+01 0.  0.
     999903    2    3    3    0    0 -0.29880025756E-01  0.10937083603E+00  0.58263187805E-01  0.12887446987E+00  0.18953475046E-01 0.  0.
         14    1    1    2    0    0 -0.46181201102E-02 -0.16567803821E-01 -0.23107564897E-01  0.28805879821E-01  0.00000000000E+00 0.  1.
     999901    1    3    3    0    0  0.34498145866E-01 -0.92803032213E-01 -0.35155622907E-01  0.88624965031E+00  0.88000000000E+00 0.  1.
        -11    1    4    4    0    0 -0.16245457843E-01  0.83137218617E-01  0.36921689155E-01  0.92407706772E-01  0.51100000000E-03 0. -1.
         11    1    4    4    0    0 -0.13634567913E-01  0.26233617417E-01  0.21341498650E-01  0.36466763094E-01  0.51100000000E-03 0.  1.
</event>
<event>
 8    1  0.1123285E+005  0.1043930E+01  0.7957747E-01            NaN
         13   -1    0    0    0    0  0.00000000000E+00  0.00000000000E+00  0.74505805969E-08  0.10566000000E+00  0.10566000000E+00 0.  1.
     999900   -1    0    0    0    0 -0.00000000000E+00 -0.00000000000E+00 -0.74505805969E-08  0.93827000000E+00  0.93827000000E+00 0.  1.
     999902    2    1    2    0    0  0.26325570502E-02  0.24347056358E-01  0.11137808852E-02  0.10194157181E+01  0.10191209233E+01 0.  0.
     999903    2    3    3    0    0  0.19986037821E-01  0.11223470284E+00 -0.64299357093E-01  0.13245221246E+00  0.20325133040E-01 0.  0.
         14    1    1    2    0    0 -0.26325570502E-02 -0.24347056358E-01 -0.11137808852E-02  0.24514281914E-01  0.00000000000E+00 0. -1.
     999901    1    3    3    0    0 -0.17353480771E-01 -0.87887646480E-01  0.65413137978E-01  0.88696350563E+00  0.88000000000E+00 0. -1.
        -11    1    4    4    0    0  0.20020465651E-01  0.10217498018E+00 -0.51485241765E-01  0.11615307512E+00  0.51100000000E-03 0.  1.
         11    1    4    4    0    0 -0.34427829496E-04  0.10059722661E-01 -0.12814115328E-01  0.16299137337E-01  0.51100000000E-03 0. -1.
</event>
<event>
 8    1  0.1123285E+005  0.1043930E+01  0.7957747E-01            NaN
         13   -1    0    0    0    0  0.00000000000E+00  0.00000000000E+00  0.74505805969E-08  0.10566000000E+00  0.10566000000E+00 0. -1.
     999900   -1    0    0    0    0 -0.00000000000E+00 -0.00000000000E+00 -0.74505805969E-08  0.93827000000E+00  0.93827000000E+00 0.  1.
     999902    2    1    2    0    0  0.20810753019E-01 -0.88450650703E-02  0.68468710958E-02  0.10203036956E+01  0.10200301118E+01 0.  0.
     999903    2    3    3    0    0  0.88379951371E-01  0.15824984369E-01 -0.93333117307E-01  0.13170353915E+00  0.23943798874E-01 0.  0.
         14    1    1    2    0    0 -0.20810753019E-01  0.88450650703E-02 -0.68468710958E-02  0.23626304432E-01  0.00000000000E+00 0. -1.
     999901    1    3    3    0    0 -0.67569198352E-01 -0.24670049440E-01  0.10017998840E+00  0.88860015642E+00  0.88000000000E+00 0. -1.
        -11    1    4    4    0    0  0.29783193319E-01  0.10330920967E-01 -0.18704530225E-01  0.36659065785E-01  0.51100000000E-03 0. -1.
         11    1    4    4    0    0  0.58596758052E-01  0.54940634028E-02 -0.74628587082E-01  0.95044473368E-01  0.51100000000E-03 0.  1.
</event>
<event>
 8    1  0.1123285E+005  0.1043930E+01  0.7957747E-01            NaN
         13   -1    0    0    0    0  0.00000000000E+00  0.00000000000E+00  0.74505805969E-08  0.10566000000E+00  0.10566000000E+00 0.  1.
     999900   -1    0    0    0    0 -0.00000000000E+00 -0.00000000000E+00 -0.74505805969E-08  0.93827000000E+00  0.93827000000E+00 0.  1.
     999902    2    1    2    0    0  0.13868874955E-01  0.72724427341E-03 -0.19660922696E-01  0.10198587213E+01  0.10195746098E+01 0.  0.
     999903    2    3    3    0    0 -0.56954630561E-01 -0.31075296850E-01 -0.11308989643E+00  0.13151400010E+00  0.17236691459E-01 0.  0.
         14    1    1    2    0    0 -0.13868874955E-01 -0.72724427341E-03  0.19660922696E-01  0.24071278695E-01  0.00000000000E+00 0.  1.
     999901    1    3    3    0    0  0.70823505517E-01  0.31802541123E-01  0.93428973731E-01  0.88834472120E+00  0.88000000000E+00 0.  1.
        -11    1    4    4    0    0 -0.25959381499E-01 -0.19771348432E-01 -0.70070070435E-01  0.77297293603E-01  0.51100000000E-03 0. -1.
         11    1    4    4    0    0 -0.30995249062E-01 -0.11303948418E-01 -0.43019825992E-01  0.54216706499E-01  0.51100000000E-03 0.  1.
</event>
<event>
 8    1  0.1123285E+005  0.1043930E+01  0.7957747E-01            NaN
         13   -1    0    0    0    0  0.00000000000E+00  0.00000000000E+00  0.74505805969E-08  0.10566000000E+00  0.10566000000E+00 0. -1.
     999900   -1    0    0    0    0 -0.00000000000E+00 -0.00000000000E+00 -0.74505805969E-08  0.93827000000E+00  0.93827000000E+00 0.  1.
     999902    2    1    2    0    0  0.10843470254E-01  0.49377016139E-02 -0.20915927703E-01  0.10198584862E+01  0.10195743691E+01 0.  0.
     999903    2    3    3    0    0 -0.51363817408E-01  0.11316994403E+00 -0.34895475577E-01  0.13093813393E+00  0.21941347538E-01 0.  0.
         14    1    1    2    0    0 -0.10843470254E-01 -0.49377016139E-02  0.20915927703E-01  0.24071513788E-01  0.00000000000E+00 0. -1.
     999901    1    3    3    0    0  0.62207287662E-01 -0.10823224242E+00  0.13979547874E-01  0.88892035228E+00  0.88000000000E+00 0. -1.
        -11    1    4    4    0    0 -0.26100370473E-01  0.60578552701E-01 -0.29757542485E-01  0.72365481011E-01  0.51100000000E-03 0. -1.
         11    1    4    4    0    0 -0.25263446935E-01  0.52591391329E-01 -0.51379330918E-02  0.58572652922E-01  0.51100000000E-03 0.  1.
</event>
<event>
 8    1  0.1123285E+005  0.1043930E+01  0.7957747E-01            NaN
         13   -1    0    0    0    0  0.00000000000E+00  0.00000000000E+00  0.74505805969E-08  0.10566000000E+00  0.10566000000E+00 0.  1.
     999900   -1    0    0    0    0 -0.00000000000E+00 -0.00000000000E+00 -0.74505805969E-08  0.93827000000E+00  0.93827000000E+00 0. -1.
     999902    2    1    2    0    0 -0.13093718311E-02  0.27413208575E-02 -0.22956481335E-01  0.10207733740E+01  0.10205106818E+01 0.  0.
     999903    2    3    3    0    0 -0.42019180513E-01  0.64010024409E-01  0.10176198193E+00  0.12894052098E+00  0.20180739065E-01 0.  0.
         14    1    1    2    0    0  0.13093718311E-02 -0.27413208575E-02  0.22956481335E-01  0.23156626048E-01  0.00000000000E+00 0.  1.
     999901    1    3    3    0    0  0.40709808682E-01 -0.61268703552E-01 -0.12471846326E+00  0.89183285297E+00  0.88000000000E+00 0. -1.
        -11    1    4    4    0    0 -0.15550471110E-01  0.18632006650E-01  0.18628188219E-01  0.30598028381E-01  0.51100000000E-03 0.  1.
         11    1    4    4    0    0 -0.26468709403E-01  0.45378017760E-01  0.83133793710E-01  0.98342492601E-01  0.51100000000E-03 0. -1.
</event>
<event>
 8    1  0.1123285E+005  0.1043930E+01  0.7957747E-01            NaN
         13   -1    0    0    0    0  0.00000000000E+00  0.00000000000E+00  0.74505805969E-08  0.10566000000E+00  0.10566000000E+00 0.  1.
     999900   -1    0    0    0    0 -0.00000000000E+00 -0.00000000000E+00 -0.74505805969E-08  0.93827000000E+00  0.93827000000E+00 0.  1.
     999902    2    1    2    0    0  0.12739222240E-01 -0.49914337168E-02  0.21299711264E-01  0.10186143943E+01  0.10182997615E+01 0.  0.
     999903    2    3    3    0    0 -0.32102338796E-01 -0.37535495074E-01 -0.11476421513E+00  0.12643544720E+00  0.19381013575E-01 0.  0.
         14    1    1    2    0    0 -0.12739222240E-01  0.49914337168E-02 -0.21299711264E-01  0.25315605736E-01  0.00000000000E+00 0. -1.
     999901    1    3    3    0    0  0.44841561035E-01  0.32544061357E-01  0.13606392639E+00  0.89217894707E+00  0.88000000000E+00 0. -1.
        -11    1    4    4    0    0 -0.13509997300E-01 -0.28924402797E-01 -0.79108592572E-01  0.85308684458E-01  0.51100000000E-03 0. -1.
         11    1    4    4    0    0 -0.18592341495E-01 -0.86110922766E-02 -0.35655622556E-01  0.41126762738E-01  0.51100000000E-03 0.  1.
</event>
<event>
 8    1  0.1123285E+005  0.1043930E+01  0.7957747E-01            NaN
         13   -1    0    0    0    0  0.00000000000E+00  0.00000000000E+00  0.74505805969E-08  0.10566000000E+00  0.10566000000E+00 0.  1.
     999900   -1    0    0    0    0 -0.00000000000E+00 -0.00000000000E+00 -0.74505805969E-08  0.93827000000E+00  0.93827000000E+00 0.  1.
     999902    2    1    2    0    0 -0.12664461820E-01 -0.17158895032E-01  0.97167679869E-02  0.10204943039E+01  0.10202251675E+01 0.  0.
     999903    2    3    3    0    0 -0.11162644004E+00 -0.60021562417E-01  0.36824418538E-01  0.13349627340E+00  0.20054105282E-01 0.  0.
         14    1    1    2    0    0  0.12664461820E-01  0.17158895032E-01 -0.97167679869E-02  0.23435696107E-01  0.00000000000E+00 0. -1.
     999901    1    3    3    0    0  0.98961978221E-01  0.42862667385E-01 -0.27107650551E-01  0.88699803050E+00  0.88000000000E+00 0.  1.
        -11    1    4    4    0    0 -0.59510016360E-01 -0.38901621313E-01  0.12339816936E-01  0.72161696148E-01  0.51100000000E-03 0. -1.
         11    1    4    4    0    0 -0.52116423680E-01 -0.21119941104E-01  0.24484601602E-01  0.61334577247E-01  0.51100000000E-03 0.  1.
</event>
<event>
 8    1  0.1123285E+005  0.1043930E+01  0.7957747E-01            NaN
         13   -1    0    0    0    0  0.00000000000E+00  0.00000000000E+00  0.74505805969E-08  0.10566000000E+00  0.10566000000E+00 0.  1.
     999900   -1    0    0    0    0 -0.00000000000E+00 -0.00000000000E+00 -0.74505805969E-08  0.93827000000E+00  0.93827000000E+00 0. -1.
     999902    2    1    2    0    0 -0.14688927226E-01 -0.16527136595E-01  0.10589148826E-01  0.10194138645E+01  0.10191190246E+01 0.  0.
     999903    2    3    3    0    0  0.12202145249E+00  0.28362291716E-01 -0.13119134577E-01  0.12741225497E+00  0.19186364021E-01 0.  0.
         14    1    1    2    0    0  0.14688927226E-01  0.16527136595E-01 -0.10589148826E-01  0.24516135502E-01  0.00000000000E+00 0. -1.
     999901    1    3    3    0    0 -0.13671037972E+00 -0.44889428311E-01  0.23708283403E-01  0.89200160953E+00  0.88000000000E+00 0.  1.
        -11    1    4    4    0    0  0.90138549527E-02  0.38614003230E-02 -0.61113528837E-02  0.11565887283E-01  0.51100000000E-03 0.  1.
         11    1    4    4    0    0  0.11300759754E+00  0.24500891393E-01 -0.70077816930E-02  0.11584636769E+00  0.51100000000E-03 0. -1.
</event>
<event>
 8    1  0.1123285E+005  0.1043930E+01  0.7957747E-01            NaN
         13   -1    0    0    0    0  0.00000000000E+00  0.00000000000E+00  0.74505805969E-08  0.10566000000E+00  0.10566000000E+00 0. -1.
     999900   -1    0    0    0    0 -0.00000000000E+00 -0.00000000000E+00 -0.74505805969E-08  0.93827000000E+00  0.93827000000E+00 0.  1.
     999902    2    1    2    0    0 -0.12419155159E-01 -0.19443519289E-01  0.23376206992E-02  0.10207405557E+01  0.10204771098E+01 0.  0.
     999903    2    3    3    0    0  0.70357885894E-01  0.60698040660E-01  0.87585407266E-01  0.12914541591E+00  0.19309340649E-01 0.  0.
         14    1    1    2    0    0  0.12419155159E-01  0.19443519289E-01 -0.23376206992E-02  0.23189444318E-01  0.00000000000E+00 0.  1.
     999901    1    3    3    0    0 -0.82777041053E-01 -0.80141559950E-01 -0.85247786567E-01  0.89159513978E+00  0.88000000000E+00 0.  1.
        -11    1    4    4    0    0  0.68839336869E-01  0.52785838530E-01  0.81589882017E-01  0.11908975195E+00  0.51100000000E-03 0. -1.
         11    1    4    4    0    0  0.15185490246E-02  0.79122021300E-02  0.59955252495E-02  0.10055663961E-01  0.51100000000E-03 0.  1.
</event>
<event>
 8    1  0.1123285E+005  0.1043930E+01  0.7957747E-01            NaN
         13   -1    0    0    0    0  0.00000000000E+00  0.00000000000E+00  0.74505805969E-08  0.10566000000E+00  0.10566000000E+00 0.  1.
     999900   -1    0    0    0    0 -0.00000000000E+00 -0.00000000000E+00 -0.74505805969E-08  0.93827000000E+00  0.93827000000E+00 0. -1.
     999902    2    1    2    0    0  0.19770126906E-01  0.35051996132E-02 -0.12015482060E-01  0.10205309370E+01  0.10202626511E+01 0.  0.
     999903    2    3    3    0    0 -0.11787357868E+00  0.45973578340E-01 -0.12986483859E-01  0.12881893428E+00  0.20443057748E-01 0.  0.
         14    1    1    2    0    0 -0.19770126906E-01 -0.35051996132E-02  0.12015482060E-01  0.23399063044E-01  0.00000000000E+00 0. -1.
     999901    1    3    3    0    0  0.13764370558E+00 -0.42468378727E-01  0.97100179963E-03  0.89171200268E+00  0.88000000000E+00 0. -1.
        -11    1    4    4    0    0 -0.84357789566E-01  0.40023779634E-01 -0.15635313887E-01  0.94672402303E-01  0.51100000000E-03 0. -1.
         11    1    4    4    0    0 -0.33515789110E-01  0.59497987059E-02  0.26488300277E-02  0.34146531973E-01  0.51100000000E-03 0.  1.
</event>
<event>
 8    1  0.1191697E+005  0.1043930E+01  0.7957747E-01            NaN
         13   -1    0    0    0    0  0.00000000000E+00  0.00000000000E+00  0.74505805969E-08  0.10566000000E+00  0.10566000000E+00 0. -1.
     999900   -1    0    0    0    0 -0.00000000000E+00 -0.00000000000E+00 -0.74505805969E-08  0.93827000000E+00  0.93827000000E+00 0. -1.
     999902    2    1    2    0    0  0.20908602775E-01 -0.16091424460E-02 -0.99002551124E-02  0.10207400440E+01  0.10204765864E+01 0.  0.
     999903    2    3    3    0    0  0.16787587368E-01 -0.75284738041E-01 -0.10610551111E+00  0.13242673920E+00  0.18134136146E-01 0.  0.
         14    1    1    2    0    0 -0.20908602775E-01  0.16091424460E-02  0.99002551124E-02  0.23189956031E-01  0.00000000000E+00 0.  1.
     999901    1    3    3    0    0  0.41210154071E-02  0.73675595595E-01  0.96205256001E-01  0.88831330477E+00  0.88000000000E+00 0. -1.
        -11    1    4    4    0    0  0.12873303080E-01 -0.37935252566E-01 -0.41398812043E-01  0.57610138682E-01  0.51100000000E-03 0. -1.
         11    1    4    4    0    0  0.39142842881E-02 -0.37349485475E-01 -0.64706699071E-01  0.74816600513E-01  0.51100000000E-03 0.  1.
</event>
<event>
 8    1  0.1123285E+005  0.1043930E+01  0.7957747E-01            NaN
         13   -1    0    0    0    0  0.00000000000E+00  0.00000000000E+00  0.74505805969E-08  0.10566000000E+00  0.10566000000E+00 0. -1.
     999900   -1    0    0    0    0 -0.00000000000E+00 -0.00000000000E+00 -0.74505805969E-08  0.93827000000E+00  0.93827000000E+00 0. -1.
     999902    2    1    2    0    0 -0.63774970088E-02  0.43929253184E-03  0.23350815057E-01  0.10197199606E+01  0.10194325245E+01 0.  0.
     999903    2    3    3    0    0 -0.26512172218E-02  0.10652099741E+00 -0.64314331786E-01  0.12901664786E+00  0.33988384925E-01 0.  0.
         14    1    1    2    0    0  0.63774970088E-02 -0.43929253184E-03 -0.23350815057E-01  0.24210039443E-01  0.00000000000E+00 0.  1.
     999901    1    3    3    0    0 -0.37262797870E-02 -0.10608170488E+00  0.87665146843E-01  0.89070331269E+00  0.88000000000E+00 0.  1.
        -11    1    4    4    0    0  0.97029360383E-02  0.75357899547E-01 -0.31977089367E-01  0.82436371568E-01  0.51100000000E-03 0.  1.
         11    1    4    4    0    0 -0.12354153260E-01  0.31163097868E-01 -0.32337242419E-01  0.46580276296E-01  0.51100000000E-03 0. -1.
</event>
<event>
 8    1  0.1123285E+005  0.1043930E+01  0.7957747E-01            NaN
         13   -1    0    0    0    0  0.00000000000E+00  0.00000000000E+00  0.74505805969E-08  0.10566000000E+00  0.10566000000E+00 0.  1.
     999900   -1    0    0    0    0 -0.00000000000E+00 -0.00000000000E+00 -0.74505805969E-08  0.93827000000E+00  0.93827000000E+00 0.  1.
     999902    2    1    2    0    0 -0.12320590430E-02 -0.28115474760E-01  0.43495012010E-02  0.10154534122E+01  0.10150540460E+01 0.  0.
     999903    2    3    3    0    0 -0.94946223515E-01  0.68575199456E-01  0.37375690181E-01  0.12459867645E+00  0.20261900599E-01 0.  0.
         14    1    1    2    0    0  0.12320590430E-02  0.28115474760E-01 -0.43495012010E-02  0.28476587772E-01  0.00000000000E+00 0.  1.
     999901    1    3    3    0    0  0.93714164472E-01 -0.96690674216E-01 -0.33026188980E-01  0.89085473578E+00  0.88000000000E+00 0.  1.
        -11    1    4    4    0    0 -0.75409951953E-01  0.45177102644E-01  0.22853540271E-01  0.90830484315E-01  0.51100000000E-03 0. -1.
         11    1    4    4    0    0 -0.19536271562E-01  0.23398096812E-01  0.14522149909E-01  0.33768192133E-01  0.51100000000E-03 0.  1.
</event>
<event>
 8    1  0.1123285E+005  0.1043930E+01  0.7957747E-01            NaN
         13   -1    0    0    0    0  0.00000000000E+00  0.00000000000E+00  0.74505805969E-08  0.10566000000E+00  0.10566000000E+00 0.  1.
     999900   -1    0    0    0    0 -0.00000000000E+00 -0.00000000000E+00 -0.74505805969E-08  0.93827000000E+00  0.93827000000E+00 0.  1.
     999902    2    1    2    0    0 -0.22179763166E-02  0.91984475243E-03  0.20532638787E-01  0.10232574387E+01  0.10230485967E+01 0.  0.
     999903    2    3    3    0    0 -0.11422590644E+00  0.56223571212E-01 -0.33935777520E-01  0.13276819853E+00  0.16343496661E-01 0.  0.
         14    1    1    2    0    0  0.22179763166E-02 -0.91984475243E-03 -0.20532638787E-01  0.20672561255E-01  0.00000000000E+00 0. -1.
     999901    1    3    3    0    0  0.11200793012E+00 -0.55303726459E-01  0.54468416307E-01  0.89048924022E+00  0.88000000000E+00 0. -1.
        -11    1    4    4    0    0 -0.10300026977E+00  0.48751823617E-01 -0.35057682354E-01  0.11922708623E+00  0.51100000000E-03 0. -1.
         11    1    4    4    0    0 -0.11225636670E-01  0.74717475944E-02  0.11219048340E-02  0.13541112296E-01  0.51100000000E-03 0.  1.
</event>
<event>
 8    1  0.1123285E+005  0.1043930E+01  0.7957747E-01            NaN
         13   -1    0    0    0    0  0.00000000000E+00  0.00000000000E+00  0.74505805969E-08  0.10566000000E+00  0.10566000000E+00 0. -1.
     999900   -1    0    0    0    0 -0.00000000000E+00 -0.00000000000E+00 -0.74505805969E-08  0.93827000000E+00  0.93827000000E+00 0. -1.
     999902    2    1    2    0    0 -0.12880478795E-01  0.20392526664E-01 -0.16936661193E-03  0.10198096650E+01  0.10195243804E+01 0.  0.
     999903    2    3    3    0    0 -0.41291524816E-02 -0.56035039770E-01  0.11487131131E+00  0.12899424288E+00  0.16944643784E-01 0.  0.
         14    1    1    2    0    0  0.12880478795E-01 -0.20392526664E-01  0.16936661193E-03  0.24120335047E-01  0.00000000000E+00 0. -1.
     999901    1    3    3    0    0 -0.87513263132E-02  0.76427566434E-01 -0.11504067792E+00  0.89081542207E+00  0.88000000000E+00 0. -1.
        -11    1    4    4    0    0  0.43737187285E-02 -0.86871281754E-02  0.28644045356E-01  0.30254554480E-01  0.51100000000E-03 0. -1.
         11    1    4    4    0    0 -0.85028712101E-02 -0.47347911595E-01  0.86227265951E-01  0.98739688402E-01  0.51100000000E-03 0.  1.
</event>
<event>
 8    1  0.1123285E+005  0.1043930E+01  0.7957747E-01            NaN
         13   -1    0    0    0    0  0.00000000000E+00  0.00000000000E+00  0.74505805969E-08  0.10566000000E+00  0.10566000000E+00 0.  1.
     999900   -1    0    0    0    0 -0.00000000000E+00 -0.00000000000E+00 -0.74505805969E-08  0.93827000000E+00  0.93827000000E+00 0. -1.
     999902    2    1    2    0    0  0.15488320191E-01 -0.17197587606E-01 -0.38098634896E-02  0.10204745072E+01  0.10202049107E+01 0.  0.
     999903    2    3    3    0    0 -0.10725145615E+00  0.61555717809E-01  0.20712365723E-01  0.12813573997E+00  0.26415611345E-01 0.  0.
         14    1    1    2    0    0 -0.15488320191E-01  0.17197587606E-01  0.38098634896E-02  0.23455492782E-01  0.00000000000E+00 0.  1.
     999901    1    3    3    0    0  0.12273977634E+00 -0.78753305415E-01 -0.24522229212E-01  0.89233876725E+00  0.88000000000E+00 0.  1.
        -11    1    4    4    0    0 -0.26529597615E-01  0.36541191846E-02  0.67816634502E-03  0.26793528458E-01  0.51100000000E-03 0. -1.
         11    1    4    4    0    0 -0.80721858534E-01  0.57901598624E-01  0.20034199378E-01  0.10134221151E+00  0.51100000000E-03 0.  1.
</event>
<event>
 8    1  0.1123285E+005  0.1043930E+01  0.7957747E-01            NaN
         13   -1    0    0    0    0  0.00000000000E+00  0.00000000000E+00  0.74505805969E-08  0.10566000000E+00  0.10566000000E+00 0.  1.
     999900   -1    0    0    0    0 -0.00000000000E+00 -0.00000000000E+00 -0.74505805969E-08  0.93827000000E+00  0.93827000000E+00 0.  1.
     999902    2    1    2    0    0 -0.31098901646E-02 -0.16397370109E-01 -0.88641384505E-02  0.10250324310E+01  0.10248582178E+01 0.  0.
     999903    2    3    3    0    0 -0.51813286458E-01  0.10965945954E+00 -0.52221491958E-01  0.13366146154E+00  0.20699960363E-01 0.  0.
         14    1    1    2    0    0  0.31098901646E-02  0.16397370109E-01  0.88641384505E-02  0.18897568991E-01  0.00000000000E+00 0.  1.
     999901    1    3    3    0    0  0.48703396293E-01 -0.12605682964E+00  0.43357353508E-01  0.89137096947E+00  0.88000000000E+00 0.  1.
        -11    1    4    4    0    0 -0.88224251963E-02  0.72051136427E-02 -0.14250526945E-02  0.11490898360E-01  0.51100000000E-03 0. -1.
         11    1    4    4    0    0 -0.42990861261E-01  0.10245434589E+00 -0.50796439264E-01  0.12217056318E+00  0.51100000000E-03 0.  1.
</event>
<event>
 8    1  0.1123285E+005  0.1043930E+01  0.7957747E-01            NaN
         13   -1    0    0    0    0  0.00000000000E+00  0.00000000000E+00  0.74505805969E-08  0.10566000000E+00  0.10566000000E+00 0.  1.
     999900   -1    0    0    0    0 -0.00000000000E+00 -0.00000000000E+00 -0.74505805969E-08  0.93827000000E+00  0.93827000000E+00 0.  1.
     999902    2    1    2    0    0 -0.21505944282E-01 -0.97035972837E-02 -0.33613147597E-02  0.10200980073E+01  0.10198195824E+01 0.  0.
     999903    2    3    3    0    0 -0.18590166432E-01  0.61514409648E-01  0.11099866965E+00  0.12984034104E+00  0.20203777268E-01 0.  0.
         14    1    1    2    0    0  0.21505944282E-01  0.97035972837E-02  0.33613147597E-02  0.23831992712E-01  0.00000000000E+00 0. -1.
     999901    1    3    3    0    0 -0.29157778498E-02 -0.71218006931E-01 -0.11435998441E+00  0.89025766624E+00  0.88000000000E+00 0.  1.
        -11    1    4    4    0    0 -0.11328852124E-01  0.16747258460E-01  0.21578528731E-01  0.29575455695E-01  0.51100000000E-03 0.  1.
         11    1    4    4    0    0 -0.72613143086E-02  0.44767151187E-01  0.89420140920E-01  0.10026488535E+00  0.51100000000E-03 0. -1.
</event>
<event>
 8    1  0.1123285E+005  0.1043930E+01  0.7957747E-01            NaN
         13   -1    0    0    0    0  0.00000000000E+00  0.00000000000E+00  0.74505805969E-08  0.10566000000E+00  0.10566000000E+00 0. -1.
     999900   -1    0    0    0    0 -0.00000000000E+00 -0.00000000000E+00 -0.74505805969E-08  0.93827000000E+00  0.93827000000E+00 0.  1.
     999902    2    1    2    0    0  0.14724736102E-01  0.75469064631E-02  0.16422750302E-01  0.10206173344E+01  0.10203510488E+01 0.  0.
     999903    2    3    3    0    0  0.18332673699E-01  0.43725865022E-01 -0.11890979747E+00  0.12952989045E+00  0.19758906576E-01 0.  0.
         14    1    1    2    0    0 -0.14724736102E-01 -0.75469064631E-02 -0.16422750302E-01  0.23312665612E-01  0.00000000000E+00 0.  1.
     999901    1    3    3    0    0 -0.36079375967E-02 -0.36178958559E-01  0.13533254777E+00  0.89108744394E+00  0.88000000000E+00 0. -1.
        -11    1    4    4    0    0  0.90371914982E-02  0.40503774689E-01 -0.94995661531E-01  0.10366611512E+00  0.51100000000E-03 0. -1.
         11    1    4    4    0    0  0.92954822008E-02  0.32220903334E-02 -0.23914135939E-01  0.25863775327E-01  0.51100000000E-03 0.  1.
</event>
<event>
 8    1  0.1123285E+005  0.1043930E+01  0.7957747E-01            NaN
         13   -1    0    0    0    0  0.00000000000E+00  0.00000000000E+00  0.74505805969E-08  0.10566000000E+00  0.10566000000E+00 0.  1.
     999900   -1    0    0    0    0 -0.00000000000E+00 -0.00000000000E+00 -0.74505805969E-08  0.93827000000E+00  0.93827000000E+00 0.  1.
     999902    2    1    2    0    0  0.18211835902E-01  0.13505716282E-01  0.76679061650E-02  0.10199952528E+01  0.10197143931E+01 0.  0.
     999903    2    3    3    0    0 -0.76734926798E-01  0.26848847494E-01 -0.97618011509E-01  0.12854808590E+00  0.19652598150E-01 0.  0.
         14    1    1    2    0    0 -0.18211835902E-01 -0.13505716282E-01 -0.76679061650E-02  0.23934747213E-01  0.00000000000E+00 0. -1.
     999901    1    3    3    0    0  0.94946762700E-01 -0.13343131211E-01  0.10528591767E+00  0.89144716689E+00  0.88000000000E+00 0. -1.
        -11    1    4    4    0    0 -0.44169148859E-01  0.21087384216E-01 -0.70234807381E-01  0.85608298505E-01  0.51100000000E-03 0. -1.
         11    1    4    4    0    0 -0.32565777939E-01  0.57614632774E-02 -0.27383204128E-01  0.42939787391E-01  0.51100000000E-03 0.  1.
</event>
<event>
 8    1  0.1123285E+005  0.1043930E+01  0.7957747E-01            NaN
         13   -1    0    0    0    0  0.00000000000E+00  0.00000000000E+00  0.74505805969E-08  0.10566000000E+00  0.10566000000E+00 0. -1.
     999900   -1    0    0    0    0 -0.00000000000E+00 -0.00000000000E+00 -0.74505805969E-08  0.93827000000E+00  0.93827000000E+00 0.  1.
     999902    2    1    2    0    0  0.16712813860E-01 -0.28841305566E-02 -0.16311516939E-01  0.10203991279E+01  0.10201277755E+01 0.  0.
     999903    2    3    3    0    0 -0.72057683480E-01 -0.65682907358E-01 -0.85163637254E-01  0.13103727690E+00  0.20282227700E-01 0.  0.
         14    1    1    2    0    0 -0.16712813860E-01  0.28841305566E-02  0.16311516939E-01  0.23530872084E-01  0.00000000000E+00 0.  1.
     999901    1    3    3    0    0  0.88770497339E-01  0.62798776802E-01  0.68852120315E-01  0.88936185101E+00  0.88000000000E+00 0.  1.
        -11    1    4    4    0    0 -0.38049265142E-01 -0.47184729136E-01 -0.47352951158E-01  0.76920142654E-01  0.51100000000E-03 0. -1.
         11    1    4    4    0    0 -0.34008418338E-01 -0.18498178222E-01 -0.37810686095E-01  0.54117134250E-01  0.51100000000E-03 0.  1.
</event>
<event>
 8    1  0.1123285E+005  0.1043930E+01  0.7957747E-01            NaN
         13   -1    0    0    0    0  0.00000000000E+00  0.00000000000E+00  0.74505805969E-08  0.10566000000E+00  0.10566000000E+00 0. -1.
     999900   -1    0    0    0    0 -0.00000000000E+00 -0.00000000000E+00 -0.74505805969E-08  0.93827000000E+00  0.93827000000E+00 0. -1.
     999902    2    1    2    0    0  0.80811798724E-02  0.89897346660E-03 -0.23638019524E-01  0.10189326084E+01  0.10186259327E+01 0.  0.
     999903    2    3    3    0    0 -0.11473604005E+00  0.50854549281E-01  0.16824751787E-01  0.12808084465E+00  0.19263603610E-01 0.  0.
         14    1    1    2    0    0 -0.80811798724E-02 -0.89897346660E-03  0.23638019524E-01  0.24997391632E-01  0.00000000000E+00 0. -1.
     999901    1    3    3    0    0  0.12281721992E+00 -0.49955575815E-01 -0.40462771310E-01  0.89085176372E+00  0.88000000000E+00 0. -1.
        -11    1    4    4    0    0 -0.53583093635E-01  0.19440688316E-01 -0.11637898461E-02  0.57014943774E-01  0.51100000000E-03 0.  1.
         11    1    4    4    0    0 -0.61152946413E-01  0.31413860965E-01  0.17988541633E-01  0.71065900872E-01  0.51100000000E-03 0. -1.
</event>
<event>
 8    1  0.1123285E+005  0.1043930E+01  0.7957747E-01            NaN
         13   -1    0    0    0    0  0.00000000000E+00  0.00000000000E+00  0.74505805969E-08  0.10566000000E+00  0.10566000000E+00 0. -1.
     999900   -1    0    0    0    0 -0.00000000000E+00 -0.00000000000E+00 -0.74505805969E-08  0.93827000000E+00  0.93827000000E+00 0.  1.
     999902    2    1    2    0    0  0.43708782837E-02  0.14872406646E-01  0.18213898063E-01  0.10200126603E+01  0.10197322139E+01 0.  0.
     999903    2    3    3    0    0  0.83863734914E-01  0.97870473193E-01 -0.19359165423E-01  0.13174494816E+00  0.19240543723E-01 0.  0.
         14    1    1    2    0    0 -0.43708782837E-02 -0.14872406646E-01 -0.18213898063E-01  0.23917339715E-01  0.00000000000E+00 0.  1.
     999901    1    3    3    0    0 -0.79492856630E-01 -0.82998066547E-01  0.37573063486E-01  0.88826771213E+00  0.88000000000E+00 0. -1.
        -11    1    4    4    0    0  0.46471800965E-01  0.59020300394E-01 -0.21889275507E-02  0.75153686991E-01  0.51100000000E-03 0.  1.
         11    1    4    4    0    0  0.37391933949E-01  0.38850172799E-01 -0.17170237873E-01  0.56591261168E-01  0.51100000000E-03 0. -1.
</event>
<event>
 8    1  0.1123285E+005  0.1043930E+01  0.7957747E-01            NaN
         13   -1    0    0    0    0  0.00000000000E+00  0.00000000000E+00  0.74505805969E-08  0.10566000000E+00  0.10566000000E+00 0. -1.
     999900   -1    0    0    0    0 -0.00000000000E+00 -0.00000000000E+00 -0.74505805969E-08  0.93827000000E+00  0.93827000000E+00 0. -1.
     999902    2    1    2    0    0 -0.24679208157E-01  0.83791056509E-02  0.70053474735E-02  0.10169420838E+01  0.10165839140E+01 0.  0.
     999903    2    3    3    0    0 -0.11406582963E+00 -0.52009441998E-02  0.60414864678E-01  0.13069891042E+00  0.19854118014E-01 0.  0.
         14    1    1    2    0    0  0.24679208157E-01 -0.83791056509E-02 -0.70053474735E-02  0.26987916185E-01  0.00000000000E+00 0.  1.
     999901    1    3    3    0    0  0.89386621474E-01  0.13580049851E-01 -0.53409517205E-01  0.88624317339E+00  0.88000000000E+00 0.  1.
        -11    1    4    4    0    0 -0.70017900899E-01  0.63935019123E-02  0.35082843502E-01  0.78577670761E-01  0.51100000000E-03 0.  1.
         11    1    4    4    0    0 -0.44047928732E-01 -0.11594446112E-01  0.25332021176E-01  0.52121239664E-01  0.51100000000E-03 0. -1.
</event>
<event>
 8    1  0.1123285E+005  0.1043930E+01  0.7957747E-01            NaN
         13   -1    0    0    0    0  0.00000000000E+00  0.00000000000E+00  0.74505805969E-08  0.10566000000E+00  0.10566000000E+00 0.  1.
     999900   -1    0    0    0    0 -0.00000000000E+00 -0.00000000000E+00 -0.74505805969E-08  0.93827000000E+00  0.93827000000E+00 0. -1.
     999902    2    1    2    0    0  0.58221881907E-02 -0.29285859023E-02  0.22689395986E-01  0.10203231539E+01  0.10200500259E+01 0.  0.
     999903    2    3    3    0    0  0.13779162227E-01  0.17585648949E-01 -0.12422696900E+00  0.12787227822E+00  0.20490469725E-01 0.  0.
         14    1    1    2    0    0 -0.58221881907E-02  0.29285859023E-02 -0.22689395986E-01  0.23606846060E-01  0.00000000000E+00 0. -1.
     999901    1    3    3    0    0 -0.79569740364E-02 -0.20514234851E-01  0.14691636499E+00  0.89245087572E+00  0.88000000000E+00 0.  1.
        -11    1    4    4    0    0  0.29095125286E-02  0.94341010166E-02 -0.96356168053E-01  0.96861962441E-01  0.51100000000E-03 0.  1.
         11    1    4    4    0    0  0.10869649699E-01  0.81515479322E-02 -0.27870800950E-01  0.31010315781E-01  0.51100000000E-03 0. -1.
</event>
<event>
 8    1  0.1123285E+005  0.1043930E+01  0.7957747E-01            NaN
         13   -1    0    0    0    0  0.00000000000E+00  0.00000000000E+00  0.74505805969E-08  0.10566000000E+00  0.10566000000E+00 0.  1.
     999900   -1    0    0    0    0 -0.00000000000E+00 -0.00000000000E+00 -0.74505805969E-08  0.93827000000E+00  0.93827000000E+00 0. -1.
     999902    2    1    2    0    0  0.21013764179E-01 -0.11211701325E-01 -0.10960971136E-01  0.10177112392E+01  0.10173734530E+01 0.  0.
     999903    2    3    3    0    0 -0.97017021021E-01 -0.24590432309E-03 -0.79352735234E-01  0.12713336590E+00  0.21299607932E-01 0.  0.
         14    1    1    2    0    0 -0.21013764179E-01  0.11211701325E-01  0.10960971136E-01  0.26218760837E-01  0.00000000000E+00 0.  1.
     999901    1    3    3    0    0  0.11803078520E+00 -0.10965797001E-01  0.68391764097E-01  0.89057787327E+00  0.88000000000E+00 0.  1.
        -11    1    4    4    0    0 -0.57205819330E-01  0.38142897093E-02 -0.34045010786E-01  0.66681170143E-01  0.51100000000E-03 0. -1.
         11    1    4    4    0    0 -0.39811201691E-01 -0.40601940324E-02 -0.45307724447E-01  0.60452195752E-01  0.51100000000E-03 0.  1.
</event>
<event>
 8    1  0.1123285E+005  0.1043930E+01  0.7957747E-01            NaN
         13   -1    0    0    0    0  0.00000000000E+00  0.00000000000E+00  0.74505805969E-08  0.10566000000E+00  0.10566000000E+00 0. -1.
     999900   -1    0    0    0    0 -0.00000000000E+00 -0.00000000000E+00 -0.74505805969E-08  0.93827000000E+00  0.93827000000E+00 0.  1.
     999902    2    1    2    0    0 -0.25286624088E-02 -0.13412811586E-01  0.19516427539E-01  0.10201142785E+01  0.10198362381E+01 0.  0.
     999903    2    3    3    0    0 -0.12042918885E+00 -0.35717891429E-01  0.35302950444E-01  0.13183095372E+00  0.18818734109E-01 0.  0.
         14    1    1    2    0    0  0.25286624088E-02  0.13412811586E-01 -0.19516427539E-01  0.23815721533E-01  0.00000000000E+00 0.  1.
     999901    1    3    3    0    0  0.11790052644E+00  0.22305079842E-01 -0.15786522904E-01  0.88828332475E+00  0.88000000000E+00 0. -1.
        -11    1    4    4    0    0 -0.43600328133E-01 -0.65457311745E-02  0.56027699163E-02  0.44446454995E-01  0.51100000000E-03 0.  1.
         11    1    4    4    0    0 -0.76828860715E-01 -0.29172160254E-01  0.29700180527E-01  0.87384498723E-01  0.51100000000E-03 0. -1.
</event>
<event>
 8    1  0.1123285E+005  0.1043930E+01  0.7957747E-01            NaN
         13   -1    0    0    0    0  0.00000000000E+00  0.00000000000E+00  0.74505805969E-08  0.10566000000E+00  0.10566000000E+00 0.  1.
     999900   -1    0    0    0    0 -0.00000000000E+00 -0.00000000000E+00 -0.74505805969E-08  0.93827000000E+00  0.93827000000E+00 0.  1.
     999902    2    1    2    0    0  0.23424721290E-01 -0.15080294135E-02 -0.86129273279E-04  0.10204566292E+01  0.10201866167E+01 0.  0.
     999903    2    3    3    0    0  0.55501076242E-01  0.74284429132E-02  0.11789723853E+00  0.13195855479E+00  0.19435794345E-01 0.  0.
         14    1    1    2    0    0 -0.23424721290E-01  0.15080294135E-02  0.86129273279E-04  0.23473370837E-01  0.00000000000E+00 0.  1.
     999901    1    3    3    0    0 -0.32076354953E-01 -0.89364723266E-02 -0.11798336780E+00  0.88849807437E+00  0.88000000000E+00 0.  1.
        -11    1    4    4    0    0  0.28785903152E-01 -0.37096972667E-02  0.72748485886E-01  0.78326198643E-01  0.51100000000E-03 0. -1.
         11    1    4    4    0    0  0.26715173090E-01  0.11138140180E-01  0.45148752642E-01  0.53632356148E-01  0.51100000000E-03 0.  1.
</event>
<event>
 8    1  0.1123285E+005  0.1043930E+01  0.7957747E-01            NaN
         13   -1    0    0    0    0  0.00000000000E+00  0.00000000000E+00  0.74505805969E-08  0.10566000000E+00  0.10566000000E+00 0. -1.
     999900   -1    0    0    0    0 -0.00000000000E+00 -0.00000000000E+00 -0.74505805969E-08  0.93827000000E+00  0.93827000000E+00 0.  1.
     999902    2    1    2    0    0 -0.22607535999E-01 -0.50818512149E-02 -0.12856841227E-01  0.10174304856E+01  0.10170853302E+01 0.  0.
     999903    2    3    3    0    0  0.15068922124E-01  0.93695140965E-01 -0.83770128798E-01  0.12827071144E+00  0.20738589141E-01 0.  0.
         14    1    1    2    0    0  0.22607535999E-01  0.50818512149E-02  0.12856841227E-01  0.26499514374E-01  0.00000000000E+00 0.  1.
     999901    1    3    3    0    0 -0.37676458123E-01 -0.98776992180E-01  0.70913287571E-01  0.88915977419E+00  0.88000000000E+00 0. -1.
        -11    1    4    4    0    0  0.15130568004E-01  0.67645115400E-01 -0.49303570797E-01  0.85064087251E-01  0.51100000000E-03 0.  1.
         11    1    4    4    0    0 -0.61645880053E-04  0.26050025565E-01 -0.34466558001E-01  0.43206624187E-01  0.51100000000E-03 0. -1.
</event>
<event>
 8    1  0.1123285E+005  0.1043930E+01  0.7957747E-01            NaN
         13   -1    0    0    0    0  0.00000000000E+00  0.00000000000E+00  0.74505805969E-08  0.10566000000E+00  0.10566000000E+00 0.  1.
     999900   -1    0    0    0    0 -0.00000000000E+00 -0.00000000000E+00 -0.74505805969E-08  0.93827000000E+00  0.93827000000E+00 0. -1.
     999902    2    1    2    0    0 -0.27660875498E-02 -0.96933937382E-02 -0.20927343296E-01  0.10207014223E+01  0.10204370763E+01 0.  0.
     999903    2    3    3    0    0  0.10594881467E+00 -0.19010826697E-01  0.69074879045E-01  0.12940677715E+00  0.19703101165E-01 0.  0.
         14    1    1    2    0    0  0.27660875498E-02  0.96933937382E-02  0.20927343296E-01  0.23228577656E-01  0.00000000000E+00 0.  1.
     999901    1    3    3    0    0 -0.10871490222E+00  0.93174329588E-02 -0.90002222342E-01  0.89129464519E+00  0.88000000000E+00 0.  1.
        -11    1    4    4    0    0  0.62593032923E-01 -0.17422601335E-01  0.50119968420E-01  0.82059168672E-01  0.51100000000E-03 0.  1.
         11    1    4    4    0    0  0.43355781749E-01 -0.15882253620E-02  0.18954910625E-01  0.47347608479E-01  0.51100000000E-03 0. -1.
</event>
<event>
 8    1  0.1123285E+005  0.1043930E+01  0.7957747E-01            NaN
         13   -1    0    0    0    0  0.00000000000E+00  0.00000000000E+00  0.74505805969E-08  0.10566000000E+00  0.10566000000E+00 0.  1.
     999900   -1    0    0    0    0 -0.00000000000E+00 -0.00000000000E+00 -0.74505805969E-08  0.93827000000E+00  0.93827000000E+00 0. -1.
     999902    2    1    2    0    0 -0.63062243065E-02 -0.20992228398E-01 -0.76520140199E-02  0.10207137247E+01  0.10204496619E+01 0.  0.
     999903    2    3    3    0    0  0.12274830768E+00 -0.23710158693E-01 -0.33020188032E-01  0.13093509856E+00  0.20599722125E-01 0.  0.
         14    1    1    2    0    0  0.63062243065E-02  0.20992228398E-01  0.76520140199E-02  0.23216275255E-01  0.00000000000E+00 0.  1.
     999901    1    3    3    0    0 -0.12905453199E+00  0.27179302944E-02  0.25368174012E-01  0.88977862619E+00  0.88000000000E+00 0. -1.
        -11    1    4    4    0    0  0.71710750688E-01 -0.14830995733E-01 -0.88349080215E-02  0.73761147764E-01  0.51100000000E-03 0. -1.
         11    1    4    4    0    0  0.51037556995E-01 -0.88791629599E-02 -0.24185280010E-01  0.57173950791E-01  0.51100000000E-03 0.  1.
</event>
<event>
 8    1  0.1123285E+005  0.1043930E+01  0.7957747E-01            NaN
         13   -1    0    0    0    0  0.00000000000E+00  0.00000000000E+00  0.74505805969E-08  0.10566000000E+00  0.10566000000E+00 0. -1.
     999900   -1    0    0    0    0 -0.00000000000E+00 -0.00000000000E+00 -0.74505805969E-08  0.93827000000E+00  0.93827000000E+00 0.  1.
     999902    2    1    2    0    0  0.18034214150E-01  0.61471530796E-02  0.11185067460E-02  0.10248441039E+01  0.10246663681E+01 0.  0.
     999903    2    3    3    0    0  0.38342400344E-02 -0.11752929832E+00 -0.60779037419E-01  0.13392951215E+00  0.20376100548E-01 0.  0.
         14    1    1    2    0    0 -0.18034214150E-01 -0.61471530796E-02 -0.11185067460E-02  0.19085896058E-01  0.00000000000E+00 0. -1.
     999901    1    3    3    0    0  0.14199974116E-01  0.12367645140E+00  0.61897544165E-01  0.89091459179E+00  0.88000000000E+00 0. -1.
        -11    1    4    4    0    0 -0.40503452766E-02 -0.96193621619E-01 -0.45250686117E-01  0.10638375746E+00  0.51100000000E-03 0.  1.
         11    1    4    4    0    0  0.78845853110E-02 -0.21335676705E-01 -0.15528351302E-01  0.27545754684E-01  0.51100000000E-03 0. -1.
</event>
<event>
 8    1  0.1123285E+005  0.1043930E+01  0.7957747E-01            NaN
         13   -1    0    0    0    0  0.00000000000E+00  0.00000000000E+00  0.74505805969E-08  0.10566000000E+00  0.10566000000E+00 0. -1.
     999900   -1    0    0    0    0 -0.00000000000E+00 -0.00000000000E+00 -0.74505805969E-08  0.93827000000E+00  0.93827000000E+00 0.  1.
     999902    2    1    2    0    0 -0.10061547780E-01 -0.11408699653E-01 -0.18096429326E-01  0.10202894855E+01  0.10200155687E+01 0.  0.
     999903    2    3    3    0    0 -0.62000182602E-01 -0.11185519074E+00 -0.28701479185E-01  0.13299044547E+00  0.22518377847E-01 0.  0.
         14    1    1    2    0    0  0.10061547780E-01  0.11408699653E-01  0.18096429326E-01  0.23640514500E-01  0.00000000000E+00 0.  1.
     999901    1    3    3    0    0  0.51938634821E-01  0.10044649108E+00  0.10605049859E-01  0.88729904003E+00  0.88000000000E+00 0. -1.
        -11    1    4    4    0    0 -0.34359559925E-01 -0.47767120529E-01 -0.41031053628E-02  0.58986216665E-01  0.51100000000E-03 0.  1.
         11    1    4    4    0    0 -0.27640622676E-01 -0.64088070209E-01 -0.24598373822E-01  0.74004228803E-01  0.51100000000E-03 0. -1.
</event>
<event>
 8    1  0.1123285E+005  0.1043930E+01  0.7957747E-01            NaN
         13   -1    0    0    0    0  0.00000000000E+00  0.00000000000E+00  0.74505805969E-08  0.10566000000E+00  0.10566000000E+00 0.  1.
     999900   -1    0    0    0    0 -0.00000000000E+00 -0.00000000000E+00 -0.74505805969E-08  0.93827000000E+00  0.93827000000E+00 0.  1.
     999902    2    1    2    0    0 -0.29667823968E-02 -0.16189686370E-01  0.20078737601E-01  0.10179672681E+01  0.10176361312E+01 0.  0.
     999903    2    3    3    0    0  0.98603245409E-01  0.29216523187E-02 -0.76890554942E-01  0.12662852359E+00  0.19786093363E-01 0.  0.
         14    1    1    2    0    0  0.29667823968E-02  0.16189686370E-01 -0.20078737601E-01  0.25962731871E-01  0.00000000000E+00 0. -1.
     999901    1    3    3    0    0 -0.10157002781E+00 -0.19111338688E-01  0.96969292543E-01  0.89133874454E+00  0.88000000000E+00 0. -1.
        -11    1    4    4    0    0  0.64087125611E-01  0.86278567933E-02 -0.41360185486E-01  0.76762788161E-01  0.51100000000E-03 0.  1.
         11    1    4    4    0    0  0.34516119798E-01 -0.57062044746E-02 -0.35530369457E-01  0.49865735432E-01  0.51100000000E-03 0. -1.
</event>
<event>
 8    1  0.1123285E+005  0.1043930E+01  0.7957747E-01            NaN
         13   -1    0    0    0    0  0.00000000000E+00  0.00000000000E+00  0.74505805969E-08  0.10566000000E+00  0.10566000000E+00 0. -1.
     999900   -1    0    0    0    0 -0.00000000000E+00 -0.00000000000E+00 -0.74505805969E-08  0.93827000000E+00  0.93827000000E+00 0. -1.
     999902    2    1    2    0    0 -0.26947077901E-01  0.99505911570E-02  0.18717784363E-02  0.10151434958E+01  0.10147352631E+01 0.  0.
     999903    2    3    3    0    0  0.73259920770E-01  0.98276061697E-01 -0.12935162692E-01  0.12494010505E+00  0.20433088899E-01 0.  0.
         14    1    1    2    0    0  0.26947077901E-01 -0.99505911570E-02 -0.18717784363E-02  0.28786504239E-01  0.00000000000E+00 0. -1.
     999901    1    3    3    0    0 -0.10020699867E+00 -0.88325470540E-01  0.14806941128E-01  0.89020339071E+00  0.88000000000E+00 0.  1.
        -11    1    4    4    0    0  0.16096004559E-01  0.16542081512E-01 -0.99891749645E-02  0.25154851640E-01  0.51100000000E-03 0. -1.
         11    1    4    4    0    0  0.57163916211E-01  0.81733980185E-01 -0.29459877270E-02  0.99785253410E-01  0.51100000000E-03 0.  1.
</event>
<event>
 8    1  0.1123285E+005  0.1043930E+01  0.7957747E-01            NaN
         13   -1    0    0    0    0  0.00000000000E+00  0.00000000000E+00  0.74505805969E-08  0.10566000000E+00  0.10566000000E+00 0. -1.
     999900   -1    0    0    0    0 -0.00000000000E+00 -0.00000000000E+00 -0.74505805969E-08  0.93827000000E+00  0.93827000000E+00 0.  1.
     999902    2    1    2    0    0 -0.29370891357E-02  0.16117222789E-01 -0.15816015005E-01  0.10211585773E+01  0.10209046489E+01 0.  0.
     999903    2    3    3    0    0 -0.89536856159E-01  0.60048375503E-01  0.71769978659E-01  0.13149528583E+00  0.22746963483E-01 0.  0.
         14    1    1    2    0    0  0.29370891357E-02 -0.16117222789E-01  0.15816015005E-01  0.22771422741E-01  0.00000000000E+00 0. -1.
     999901    1    3    3    0    0  0.86599767024E-01 -0.43931152714E-01 -0.87585993664E-01  0.88966329143E+00  0.88000000000E+00 0.  1.
        -11    1    4    4    0    0 -0.79796185537E-01  0.44187035516E-01  0.63372978445E-01  0.11106899141E+00  0.51100000000E-03 0. -1.
         11    1    4    4    0    0 -0.97406706224E-02  0.15861339987E-01  0.83970002141E-02  0.20426294425E-01  0.51100000000E-03 0.  1.
</event>
<event>
 8    1  0.1123285E+005  0.1043930E+01  0.7957747E-01            NaN
         13   -1    0    0    0    0  0.00000000000E+00  0.00000000000E+00  0.74505805969E-08  0.10566000000E+00  0.10566000000E+00 0.  1.
     999900   -1    0    0    0    0 -0.00000000000E+00 -0.00000000000E+00 -0.74505805969E-08  0.93827000000E+00  0.93827000000E+00 0. -1.
     999902    2    1    2    0    0 -0.19415022095E-01 -0.39705718302E-02  0.12378797595E-01  0.10205645735E+01  0.10202970673E+01 0.  0.
     999903    2    3    3    0    0  0.96165038830E-01 -0.80971159291E-01 -0.21497317572E-01  0.12902913839E+00  0.19553530655E-01 0.  0.
         14    1    1    2    0    0  0.19415022095E-01  0.39705718302E-02 -0.12378797595E-01  0.23365426457E-01  0.00000000000E+00 0. -1.
     999901    1    3    3    0    0 -0.11558006092E+00  0.77000587461E-01  0.33876115168E-01  0.89153543515E+00  0.88000000000E+00 0.  1.
        -11    1    4    4    0    0  0.56985942607E-01 -0.57728732687E-01 -0.79890726543E-02  0.81511291459E-01  0.51100000000E-03 0.  1.
         11    1    4    4    0    0  0.39179096223E-01 -0.23242426604E-01 -0.13508244918E-01  0.47517846932E-01  0.51100000000E-03 0. -1.
</event>
<event>
 8    1  0.1123285E+005  0.1043930E+01  0.7957747E-01            NaN
         13   -1    0    0    0    0  0.00000000000E+00  0.00000000000E+00  0.74505805969E-08  0.10566000000E+00  0.10566000000E+00 0.  1.
     999900   -1    0    0    0    0 -0.00000000000E+00 -0.00000000000E+00 -0.74505805969E-08  0.93827000000E+00  0.93827000000E+00 0.  1.
     999902    2    1    2    0    0  0.11645314024E-02  0.11528855852E-01 -0.20099332894E-01  0.10207297019E+01  0.10204660065E+01 0.  0.
     999903    2    3    3    0    0 -0.80162034131E-03  0.12810828361E+00 -0.29869474713E-01  0.13298532177E+00  0.19507315547E-01 0.  0.
         14    1    1    2    0    0 -0.11645314024E-02 -0.11528855852E-01  0.20099332894E-01  0.23200298132E-01  0.00000000000E+00 0.  1.
     999901    1    3    3    0    0  0.19661517438E-02 -0.11657942776E+00  0.97701418190E-02  0.88774438010E+00  0.88000000000E+00 0.  1.
        -11    1    4    4    0    0 -0.83593235628E-02  0.50441217693E-01 -0.17077470901E-01  0.53908217056E-01  0.51100000000E-03 0. -1.
         11    1    4    4    0    0  0.75577032215E-02  0.77667065921E-01 -0.12792003811E-01  0.79077104710E-01  0.51100000000E-03 0.  1.
</event>
<event>
 8    1  0.1123285E+005  0.1043930E+01  0.7957747E-01            NaN
         13   -1    0    0    0    0  0.00000000000E+00  0.00000000000E+00  0.74505805969E-08  0.10566000000E+00  0.10566000000E+00 0.  1.
     999900   -1    0    0    0    0 -0.00000000000E+00 -0.00000000000E+00 -0.74505805969E-08  0.93827000000E+00  0.93827000000E+00 0. -1.
     999902    2    1    2    0    0 -0.20394829936E-02  0.17701784392E-01  0.16396981787E-01  0.10197148462E+01  0.10194272872E+01 0.  0.
     999903    2    3    3    0    0 -0.51870367825E-01  0.29711292598E-01 -0.11234329215E+00  0.12887176041E+00  0.20337634423E-01 0.  0.
         14    1    1    2    0    0  0.20394829936E-02 -0.17701784392E-01 -0.16396981787E-01  0.24215153795E-01  0.00000000000E+00 0. -1.
     999901    1    3    3    0    0  0.49830884832E-01 -0.12009508206E-01  0.12874027394E+00  0.89084308579E+00  0.88000000000E+00 0.  1.
        -11    1    4    4    0    0 -0.22347431213E-01  0.16018048383E-01 -0.71760672704E-01  0.76849468598E-01  0.51100000000E-03 0. -1.
         11    1    4    4    0    0 -0.29522936612E-01  0.13693244215E-01 -0.40582619449E-01  0.52022291815E-01  0.51100000000E-03 0.  1.
</event>
<event>
 8    1  0.1123285E+005  0.1043930E+01  0.7957747E-01            NaN
         13   -1    0    0    0    0  0.00000000000E+00  0.00000000000E+00  0.74505805969E-08  0.10566000000E+00  0.10566000000E+00 0.  1.
     999900   -1    0    0    0    0 -0.00000000000E+00 -0.00000000000E+00 -0.74505805969E-08  0.93827000000E+00  0.93827000000E+00 0.  1.
     999902    2    1    2    0    0  0.15660959429E-01 -0.43823309076E-02 -0.17105886000E-01  0.10203274194E+01  0.10200543912E+01 0.  0.
     999903    2    3    3    0    0  0.10315025987E-01  0.10835223899E-01  0.12623806149E+00  0.12858326313E+00  0.19334051605E-01 0.  0.
         14    1    1    2    0    0 -0.15660959429E-01  0.43823309076E-02  0.17105886000E-01  0.23602580585E-01  0.00000000000E+00 0.  1.
     999901    1    3    3    0    0  0.53459334420E-02 -0.15217554806E-01 -0.14334394749E+00  0.89174415628E+00  0.88000000000E+00 0.  1.
        -11    1    4    4    0    0  0.97785651171E-02  0.16210293393E-01  0.93507779918E-01  0.95406288964E-01  0.51100000000E-03 0.  1.
         11    1    4    4    0    0  0.53646087021E-03 -0.53750694944E-02  0.32730281572E-01  0.33176974170E-01  0.51100000000E-03 0. -1.
</event>
<event>
 8    1  0.1123285E+005  0.1043930E+01  0.7957747E-01            NaN
         13   -1    0    0    0    0  0.00000000000E+00  0.00000000000E+00  0.74505805969E-08  0.10566000000E+00  0.10566000000E+00 0. -1.
     999900   -1    0    0    0    0 -0.00000000000E+00 -0.00000000000E+00 -0.74505805969E-08  0.93827000000E+00  0.93827000000E+00 0. -1.
     999902    2    1    2    0    0  0.54319964112E-02  0.67248867740E-02 -0.21994183826E-01  0.10202979284E+01  0.10200242094E+01 0.  0.
     999903    2    3    3    0    0  0.85009299693E-01 -0.87686259203E-01 -0.43300795845E-01  0.13142224337E+00  0.21940511469E-01 0.  0.
         14    1    1    2    0    0 -0.54319964112E-02 -0.67248867740E-02  0.21994183826E-01  0.23632071625E-01  0.00000000000E+00 0. -1.
     999901    1    3    3    0    0 -0.79577303282E-01  0.94411145977E-01  0.21306612019E-01  0.88887568501E+00  0.88000000000E+00 0. -1.
        -11    1    4    4    0    0  0.75285198724E-02 -0.16668042657E-01 -0.11503952234E-01  0.21612595760E-01  0.51100000000E-03 0.  1.
         11    1    4    4    0    0  0.77480779821E-01 -0.71018216546E-01 -0.31796843611E-01  0.10980964761E+00  0.51100000000E-03 0. -1.
</event>
<event>
 8    1  0.1123285E+005  0.1043930E+01  0.7957747E-01            NaN
         13   -1    0    0    0    0  0.00000000000E+00  0.00000000000E+00  0.74505805969E-08  0.10566000000E+00  0.10566000000E+00 0. -1.
     999900   -1    0    0    0    0 -0.00000000000E+00 -0.00000000000E+00 -0.74505805969E-08  0.93827000000E+00  0.93827000000E+00 0. -1.
     999902    2    1    2    0    0  0.21083523313E-01  0.10538759194E-01 -0.61295299729E-03  0.10203512784E+01  0.10200788083E+01 0.  0.
     999903    2    3    3    0    0 -0.62255742837E-01 -0.10678412369E+00  0.28436933965E-01  0.12818874385E+00  0.18576012732E-01 0.  0.
         14    1    1    2    0    0 -0.21083523313E-01 -0.10538759194E-01  0.61295299729E-03  0.23578721594E-01  0.00000000000E+00 0.  1.
     999901    1    3    3    0    0  0.83339266150E-01  0.11732288288E+00 -0.29049886962E-01  0.89216253455E+00  0.88000000000E+00 0.  1.
        -11    1    4    4    0    0 -0.17630741222E-01 -0.27526968685E-01 -0.63041207837E-03  0.32699167901E-01  0.51100000000E-03 0.  1.
         11    1    4    4    0    0 -0.44625001614E-01 -0.79257155003E-01  0.29067346043E-01  0.95489575951E-01  0.51100000000E-03 0. -1.
</event>
<event>
 8    1  0.1123285E+005  0.1043930E+01  0.7957747E-01            NaN
         13   -1    0    0    0    0  0.00000000000E+00  0.00000000000E+00  0.74505805969E-08  0.10566000000E+00  0.10566000000E+00 0. -1.
     999900   -1    0    0    0    0 -0.00000000000E+00 -0.00000000000E+00 -0.74505805969E-08  0.93827000000E+00  0.93827000000E+00 0. -1.
     999902    2    1    2    0    0 -0.23739572627E-01 -0.15066131740E-02  0.11760206722E-02  0.10201136145E+01  0.10198355585E+01 0.  0.
     999903    2    3    3    0    0  0.32132742308E-01 -0.10928294459E+00  0.59334789049E-01  0.12987774943E+00  0.19296048823E-01 0.  0.
         14    1    1    2    0    0  0.23739572627E-01  0.15066131740E-02 -0.11760206722E-02  0.23816385460E-01  0.00000000000E+00 0. -1.
     999901    1    3    3    0    0 -0.55872314934E-01  0.10777633141E+00 -0.58158768377E-01  0.89023586511E+00  0.88000000000E+00 0. -1.
        -11    1    4    4    0    0  0.85324023580E-02 -0.32753733877E-01  0.81066098066E-02  0.34807861417E-01  0.51100000000E-03 0.  1.
         11    1    4    4    0    0  0.23600339950E-01 -0.76529210709E-01  0.51228179242E-01  0.95069888014E-01  0.51100000000E-03 0. -1.
</event>
<event>
 8    1  0.1123285E+005  0.1043930E+01  0.7957747E-01            NaN
         13   -1    0    0    0    0  0.00000000000E+00  0.00000000000E+00  0.74505805969E-08  0.10566000000E+00  0.10566000000E+00 0.  1.
     999900   -1    0    0    0    0 -0.00000000000E+00 -0.00000000000E+00 -0.74505805969E-08  0.93827000000E+00  0.93827000000E+00 0.  1.
     999902    2    1    2    0    0 -0.22004396458E-01 -0.56192608458E-02  0.71256029314E-02  0.10201278200E+01  0.10198500995E+01 0.  0.
     999903    2    3    3    0    0  0.37457571150E-01  0.27077564062E-01 -0.11817814216E+00  0.12866506896E+00  0.21268816933E-01 0.  0.
         14    1    1    2    0    0  0.22004396458E-01  0.56192608458E-02 -0.71256029314E-02  0.23802180007E-01  0.00000000000E+00 0.  1.
     999901    1    3    3    0    0 -0.59461967608E-01 -0.32696824908E-01  0.12530374509E+00  0.89146275104E+00  0.88000000000E+00 0. -1.
        -11    1    4    4    0    0  0.35619686553E-01  0.25238973974E-01 -0.86662202632E-01  0.97037963516E-01  0.51100000000E-03 0. -1.
         11    1    4    4    0    0  0.18378845965E-02  0.18385900880E-02 -0.31515939527E-01  0.31627105441E-01  0.51100000000E-03 0.  1.
</event>
<event>
 8    1  0.1123285E+005  0.1043930E+01  0.7957747E-01            NaN
         13   -1    0    0    0    0  0.00000000000E+00  0.00000000000E+00  0.74505805969E-08  0.10566000000E+00  0.10566000000E+00 0. -1.
     999900   -1    0    0    0    0 -0.00000000000E+00 -0.00000000000E+00 -0.74505805969E-08  0.93827000000E+00  0.93827000000E+00 0. -1.
     999902    2    1    2    0    0 -0.20580726331E-01  0.59743726536E-02 -0.10422112485E-01  0.10200997702E+01  0.10198213869E+01 0.  0.
     999903    2    3    3    0    0 -0.71794407328E-01 -0.31529793561E-01 -0.10534701024E+00  0.13272153074E+00  0.19194982394E-01 0.  0.
         14    1    1    2    0    0  0.20580726331E-01 -0.59743726536E-02  0.10422112485E-01  0.23830229826E-01  0.00000000000E+00 0. -1.
     999901    1    3    3    0    0  0.51213680997E-01  0.37504166215E-01  0.94924897759E-01  0.88737823943E+00  0.88000000000E+00 0.  1.
        -11    1    4    4    0    0 -0.43345236603E-01 -0.89222119156E-02 -0.54092379463E-01  0.69890357265E-01  0.51100000000E-03 0. -1.
         11    1    4    4    0    0 -0.28449170725E-01 -0.22607581646E-01 -0.51254630782E-01  0.62831173476E-01  0.51100000000E-03 0.  1.
</event>
<event>
 8    1  0.1123285E+005  0.1043930E+01  0.7957747E-01            NaN
         13   -1    0    0    0    0  0.00000000000E+00  0.00000000000E+00  0.74505805969E-08  0.10566000000E+00  0.10566000000E+00 0. -1.
     999900   -1    0    0    0    0 -0.00000000000E+00 -0.00000000000E+00 -0.74505805969E-08  0.93827000000E+00  0.93827000000E+00 0.  1.
     999902    2    1    2    0    0  0.19554232937E-01 -0.12663036935E-01 -0.17841963828E-02  0.10205654138E+01  0.10202979271E+01 0.  0.
     999903    2    3    3    0    0 -0.11127195827E+00 -0.57008443630E-01 -0.26999269766E-01  0.12943253523E+00  0.19809322660E-01 0.  0.
         14    1    1    2    0    0 -0.19554232937E-01  0.12663036935E-01  0.17841963828E-02  0.23364586171E-01  0.00000000000E+00 0.  1.
     999901    1    3    3    0    0  0.13082619121E+00  0.44345406695E-01  0.25215073383E-01  0.89113287860E+00  0.88000000000E+00 0.  1.
        -11    1    4    4    0    0 -0.82584881067E-01 -0.43113362980E-01 -0.11139971371E-01  0.93826354141E-01  0.51100000000E-03 0.  1.
         11    1    4    4    0    0 -0.28687077206E-01 -0.13895080650E-01 -0.15859298395E-01  0.35606181085E-01  0.51100000000E-03 0. -1.
</event>
<event>
 8    1  0.1123285E+005  0.1043930E+01  0.7957747E-01            NaN
         13   -1    0    0    0    0  0.00000000000E+00  0.00000000000E+00  0.74505805969E-08  0.10566000000E+00  0.10566000000E+00 0. -1.
     999900   -1    0    0    0    0 -0.00000000000E+00 -0.00000000000E+00 -0.74505805969E-08  0.93827000000E+00  0.93827000000E+00 0. -1.
     999902    2    1    2    0    0  0.23005054011E-01 -0.19613287182E-02 -0.15087532100E-02  0.10207922461E+01  0.10205299868E+01 0.  0.
     999903    2    3    3    0    0  0.11910290060E-01 -0.12515310712E+00  0.33667086817E-01  0.13144605489E+00  0.18423826469E-01 0.  0.
         14    1    1    2    0    0 -0.23005054011E-01  0.19613287182E-02  0.15087532100E-02  0.23137753924E-01  0.00000000000E+00 0.  1.
     999901    1    3    3    0    0  0.11094763951E-01  0.12319177840E+00 -0.35175840027E-01  0.88934619118E+00  0.88000000000E+00 0.  1.
        -11    1    4    4    0    0 -0.33935920357E-02 -0.92482888949E-02  0.31343249726E-03  0.98694820187E-02  0.51100000000E-03 0.  1.
         11    1    4    4    0    0  0.15303882095E-01 -0.11590481822E+00  0.33353654320E-01  0.12157657287E+00  0.51100000000E-03 0. -1.
</event>
<event>
 8    1  0.1123285E+005  0.1043930E+01  0.7957747E-01            NaN
         13   -1    0    0    0    0  0.00000000000E+00  0.00000000000E+00  0.74505805969E-08  0.10566000000E+00  0.10566000000E+00 0.  1.
     999900   -1    0    0    0    0 -0.00000000000E+00 -0.00000000000E+00 -0.74505805969E-08  0.93827000000E+00  0.93827000000E+00 0. -1.
     999902    2    1    2    0    0 -0.11220136873E-01 -0.36486826237E-02 -0.20571370425E-01  0.10202153286E+01  0.10199396704E+01 0.  0.
     999903    2    3    3    0    0 -0.78066901117E-01  0.59282396974E-01  0.82487092961E-01  0.12945730452E+00  0.18607244479E-01 0.  0.
         14    1    1    2    0    0  0.11220136873E-01  0.36486826237E-02  0.20571370425E-01  0.23714671355E-01  0.00000000000E+00 0.  1.
     999901    1    3    3    0    0  0.66846764243E-01 -0.62931079597E-01 -0.10305846339E+00  0.89075802413E+00  0.88000000000E+00 0. -1.
        -11    1    4    4    0    0 -0.38584200065E-01  0.30607327287E-01  0.53404599839E-01  0.72648891136E-01  0.51100000000E-03 0. -1.
         11    1    4    4    0    0 -0.39482701052E-01  0.28675069686E-01  0.29082493123E-01  0.56808413383E-01  0.51100000000E-03 0.  1.
</event>
<event>
 7    1  0.1123285E+005  0.1043930E+01  0.7957747E-01            NaN
         13   -1    0    0    0    0  0.00000000000E+00  0.00000000000E+00  0.74505805969E-08  0.10566000000E+00  0.10566000000E+00 0. -1.
     999900   -1    0    0    0    0 -0.00000000000E+00 -0.00000000000E+00 -0.74505805969E-08  0.93827000000E+00  0.93827000000E+00 0.  1.
     999903    2    1    2    0    0  0.12564920173E-01  0.75046966836E-01  0.67392698308E-01  0.10385174523E+00  0.21295181437E-01 0.  0.
         14    1    1    2    0    0 -0.13276295563E-01  0.36745020502E-01 -0.34936551028E-01  0.52412013444E-01  0.00000000000E+00 0.  1.
     999901    1    1    2    0    0  0.71137539019E-03 -0.11179198734E+00 -0.32456147281E-01  0.88766624132E+00  0.88000000000E+00 0. -1.
        -11    1    3    3    0    0  0.11029648018E-01  0.49235507051E-01  0.31050639361E-01  0.59246870092E-01  0.51100000000E-03 0.  1.
         11    1    3    3    0    0  0.15352721547E-02  0.25811459785E-01  0.36342058947E-01  0.44604875141E-01  0.51100000000E-03 0. -1.
</event>
<event>
 8    1  0.1123285E+005  0.1043930E+01  0.7957747E-01            NaN
         13   -1    0    0    0    0  0.00000000000E+00  0.00000000000E+00  0.74505805969E-08  0.10566000000E+00  0.10566000000E+00 0.  1.
     999900   -1    0    0    0    0 -0.00000000000E+00 -0.00000000000E+00 -0.74505805969E-08  0.93827000000E+00  0.93827000000E+00 0.  1.
     999902    2    1    2    0    0  0.20616855586E-01 -0.10920090158E-01 -0.29100658785E-02  0.10204189050E+01  0.10201480138E+01 0.  0.
     999903    2    3    3    0    0  0.44483940018E-01 -0.19720349555E-01 -0.12116616822E+00  0.13214440465E+00  0.20327081741E-01 0.  0.
         14    1    1    2    0    0 -0.20616855586E-01  0.10920090158E-01  0.29100658785E-02  0.23511094971E-01  0.00000000000E+00 0. -1.
     999901    1    3    3    0    0 -0.23867084432E-01  0.88002593970E-02  0.11825610234E+00  0.88827450038E+00  0.88000000000E+00 0. -1.
        -11    1    4    4    0    0  0.12241210702E-01  0.68540991088E-03 -0.48961267854E-01  0.50475577234E-01  0.51100000000E-03 0.  1.
         11    1    4    4    0    0  0.32242729315E-01 -0.20405759466E-01 -0.72204900368E-01  0.81668827415E-01  0.51100000000E-03 0. -1.
</event>
<event>
 8    1  0.1123285E+005  0.1043930E+01  0.7957747E-01            NaN
         13   -1    0    0    0    0  0.00000000000E+00  0.00000000000E+00  0.74505805969E-08  0.10566000000E+00  0.10566000000E+00 0. -1.
     999900   -1    0    0    0    0 -0.00000000000E+00 -0.00000000000E+00 -0.74505805969E-08  0.93827000000E+00  0.93827000000E+00 0. -1.
     999902    2    1    2    0    0 -0.87662832781E-02 -0.74567715620E-02  0.18061683447E-01  0.10225132875E+01  0.10222889746E+01 0.  0.
     999903    2    3    3    0    0  0.38507271586E-02 -0.70486177421E-01 -0.10869329511E+00  0.13111061782E+00  0.19814953858E-01 0.  0.
         14    1    1    2    0    0  0.87662832781E-02  0.74567715620E-02 -0.18061683447E-01  0.21416712483E-01  0.00000000000E+00 0.  1.
     999901    1    3    3    0    0 -0.12617010437E-01  0.63029405859E-01  0.12675497856E+00  0.89140266970E+00  0.88000000000E+00 0.  1.
        -11    1    4    4    0    0  0.59725690672E-02 -0.90537302781E-02 -0.25105771070E-01  0.27353290025E-01  0.51100000000E-03 0. -1.
         11    1    4    4    0    0 -0.21218419087E-02 -0.61432447143E-01 -0.83587524039E-01  0.10375732779E+00  0.51100000000E-03 0.  1.
</event>
<event>
 8    1  0.1123285E+005  0.1043930E+01  0.7957747E-01            NaN
         13   -1    0    0    0    0  0.00000000000E+00  0.00000000000E+00  0.74505805969E-08  0.10566000000E+00  0.10566000000E+00 0.  1.
     999900   -1    0    0    0    0 -0.00000000000E+00 -0.00000000000E+00 -0.74505805969E-08  0.93827000000E+00  0.93827000000E+00 0.  1.
     999902    2    1    2    0    0  0.15070180810E-01 -0.83457260942E-02  0.99824667928E-02  0.10240199237E+01  0.10238263491E+01 0.  0.
     999903    2    3    3    0    0 -0.71793706404E-01 -0.56356489409E-01 -0.93666531471E-01  0.13239585321E+00  0.20611954090E-01 0.  0.
         14    1    1    2    0    0 -0.15070180810E-01  0.83457260942E-02 -0.99824667928E-02  0.19910076267E-01  0.00000000000E+00 0. -1.
     999901    1    3    3    0    0  0.86863887214E-01  0.48010763315E-01  0.10364899826E+00  0.89162407052E+00  0.88000000000E+00 0. -1.
        -11    1    4    4    0    0 -0.12845220655E-01 -0.78801784178E-02 -0.27602021213E-01  0.31452020628E-01  0.51100000000E-03 0.  1.
         11    1    4    4    0    0 -0.58948485749E-01 -0.48476310991E-01 -0.66064510258E-01  0.10094383258E+00  0.51100000000E-03 0. -1.
</event>
<event>
 8    1  0.1123285E+005  0.1043930E+01  0.7957747E-01            NaN
         13   -1    0    0    0    0  0.00000000000E+00  0.00000000000E+00  0.74505805969E-08  0.10566000000E+00  0.10566000000E+00 0. -1.
     999900   -1    0    0    0    0 -0.00000000000E+00 -0.00000000000E+00 -0.74505805969E-08  0.93827000000E+00  0.93827000000E+00 0.  1.
     999902    2    1    2    0    0 -0.19301117358E-01  0.12171618351E-01 -0.26252561423E-02  0.10209610341E+01  0.10207026304E+01 0.  0.
     999903    2    3    3    0    0 -0.44279374557E-01  0.29218479549E-01  0.11922657129E+00  0.13205025306E+00  0.20196818405E-01 0.  0.
         14    1    1    2    0    0  0.19301117358E-01 -0.12171618351E-01  0.26252561423E-02  0.22968965896E-01  0.00000000000E+00 0. -1.
     999901    1    3    3    0    0  0.24978257200E-01 -0.17046861198E-01 -0.12185182743E+00  0.88891078104E+00  0.88000000000E+00 0.  1.
        -11    1    4    4    0    0 -0.36953790319E-01  0.18679752628E-01  0.71504191833E-01  0.82629452061E-01  0.51100000000E-03 0.  1.
         11    1    4    4    0    0 -0.73255842389E-02  0.10538726921E-01  0.47722379454E-01  0.49420800998E-01  0.51100000000E-03 0. -1.
</event>
<event>
 8    1  0.1123285E+005  0.1043930E+01  0.7957747E-01            NaN
         13   -1    0    0    0    0  0.00000000000E+00  0.00000000000E+00  0.74505805969E-08  0.10566000000E+00  0.10566000000E+00 0. -1.
     999900   -1    0    0    0    0 -0.00000000000E+00 -0.00000000000E+00 -0.74505805969E-08  0.93827000000E+00  0.93827000000E+00 0.  1.
     999902    2    1    2    0    0  0.20134803279E-01 -0.85094986865E-02 -0.19232184609E-02  0.10219864214E+01  0.10217508135E+01 0.  0.
     999903    2    3    3    0    0 -0.11326657807E+00 -0.57644784344E-01 -0.21139043942E-01  0.13037021881E+00  0.19932282917E-01 0.  0.
         14    1    1    2    0    0 -0.20134803279E-01  0.85094986865E-02  0.19232184609E-02  0.21943578564E-01  0.00000000000E+00 0. -1.
     999901    1    3    3    0    0  0.13340138135E+00  0.49135285658E-01  0.19215825481E-01  0.89161620263E+00  0.88000000000E+00 0.  1.
        -11    1    4    4    0    0 -0.81140858959E-01 -0.50140365031E-01 -0.19350299770E-01  0.97327233702E-01  0.51100000000E-03 0. -1.
         11    1    4    4    0    0 -0.32125719114E-01 -0.75044193130E-02 -0.17887441726E-02  0.33042985103E-01  0.51100000000E-03 0.  1.
</event>
<event>
 8    1  0.1123285E+005  0.1043930E+01  0.7957747E-01            NaN
         13   -1    0    0    0    0  0.00000000000E+00  0.00000000000E+00  0.74505805969E-08  0.10566000000E+00  0.10566000000E+00 0. -1.
     999900   -1    0    0    0    0 -0.00000000000E+00 -0.00000000000E+00 -0.74505805969E-08  0.93827000000E+00  0.93827000000E+00 0.  1.
     999902    2    1    2    0    0 -0.17581415588E-01  0.99712252059E-02  0.11315467040E-01  0.10207659913E+01  0.10205031297E+01 0.  0.
     999903    2    3    3    0    0  0.72910612548E-01 -0.91888721187E-01  0.49881886474E-01  0.12944583300E+00  0.22550533877E-01 0.  0.
         14    1    1    2    0    0  0.17581415588E-01 -0.99712252059E-02 -0.11315467040E-01  0.23164008732E-01  0.00000000000E+00 0.  1.
     999901    1    3    3    0    0 -0.90492028136E-01  0.10185994639E+00 -0.38566419434E-01  0.89132015827E+00  0.88000000000E+00 0.  1.
        -11    1    4    4    0    0  0.61587524664E-01 -0.64271215815E-01  0.31707283809E-01  0.94495636641E-01  0.51100000000E-03 0.  1.
         11    1    4    4    0    0  0.11323087884E-01 -0.27617505372E-01  0.18174602665E-01  0.34950196354E-01  0.51100000000E-03 0. -1.
</event>
<event>
 8    1  0.1123285E+005  0.1043930E+01  0.7957747E-01            NaN
         13   -1    0    0    0    0  0.00000000000E+00  0.00000000000E+00  0.74505805969E-08  0.10566000000E+00  0.10566000000E+00 0.  1.
     999900   -1    0    0    0    0 -0.00000000000E+00 -0.00000000000E+00 -0.74505805969E-08  0.93827000000E+00  0.93827000000E+00 0.  1.
     999902    2    1    2    0    0  0.49219122953E-02 -0.15785316951E-01 -0.17129141174E-01  0.10201222506E+01  0.10198443986E+01 0.  0.
     999903    2    3    3    0    0 -0.23974563905E-01  0.11842480672E+00 -0.41516673921E-01  0.12914407169E+00  0.18850529881E-01 0.  0.
         14    1    1    2    0    0 -0.49219122953E-02  0.15785316951E-01  0.17129141174E-01  0.23807749353E-01  0.00000000000E+00 0.  1.
     999901    1    3    3    0    0  0.28896476201E-01 -0.13421012367E+00  0.24387532747E-01  0.89097817896E+00  0.88000000000E+00 0.  1.
        -11    1    4    4    0    0 -0.83362179624E-02  0.81494636865E-01 -0.31790395785E-01  0.87873538410E-01  0.51100000000E-03 0.  1.
         11    1    4    4    0    0 -0.15638345943E-01  0.36930169856E-01 -0.97262781361E-02  0.41270533275E-01  0.51100000000E-03 0. -1.
</event>
<event>
 8    1  0.1123285E+005  0.1043930E+01  0.7957747E-01            NaN
         13   -1    0    0    0    0  0.00000000000E+00  0.00000000000E+00  0.74505805969E-08  0.10566000000E+00  0.10566000000E+00 0. -1.
     999900   -1    0    0    0    0 -0.00000000000E+00 -0.00000000000E+00 -0.74505805969E-08  0.93827000000E+00  0.93827000000E+00 0.  1.
     999902    2    1    2    0    0  0.68578627395E-02 -0.16297479914E-01 -0.15959373291E-01  0.10201111056E+01  0.10198329903E+01 0.  0.
     999903    2    3    3    0    0  0.47195505917E-01  0.11602414599E+00 -0.24404427334E-01  0.12926462218E+00  0.20609421244E-01 0.  0.
         14    1    1    2    0    0 -0.68578627395E-02  0.16297479914E-01  0.15959373291E-01  0.23818894365E-01  0.00000000000E+00 0. -1.
     999901    1    3    3    0    0 -0.40337643177E-01 -0.13232162590E+00  0.84450540421E-02  0.89084648345E+00  0.88000000000E+00 0. -1.
        -11    1    4    4    0    0  0.73622933263E-02  0.32562241246E-01  0.84304660533E-03  0.33398724026E-01  0.51100000000E-03 0.  1.
         11    1    4    4    0    0  0.39833212590E-01  0.83461904743E-01 -0.25247473939E-01  0.95865898159E-01  0.51100000000E-03 0. -1.
</event>
<event>
 8    1  0.1123285E+005  0.1043930E+01  0.7957747E-01            NaN
         13   -1    0    0    0    0  0.00000000000E+00  0.00000000000E+00  0.74505805969E-08  0.10566000000E+00  0.10566000000E+00 0.  1.
     999900   -1    0    0    0    0 -0.00000000000E+00 -0.00000000000E+00 -0.74505805969E-08  0.93827000000E+00  0.93827000000E+00 0. -1.
     999902    2    1    2    0    0 -0.71431958003E-02  0.21820356104E-01  0.66603655488E-02  0.10200236482E+01  0.10197434625E+01 0.  0.
     999903    2    3    3    0    0 -0.47933344631E-01 -0.41282781423E-02 -0.11909297752E+00  0.12977027351E+00  0.18507792595E-01 0.  0.
         14    1    1    2    0    0  0.71431958003E-02 -0.21820356104E-01 -0.66603655488E-02  0.23906351792E-01  0.00000000000E+00 0.  1.
     999901    1    3    3    0    0  0.40790148831E-01  0.25948634247E-01  0.12575334306E+00  0.89025337469E+00  0.88000000000E+00 0.  1.
        -11    1    4    4    0    0 -0.29865159088E-01  0.51636203874E-02 -0.58963577087E-01  0.66298983753E-01  0.51100000000E-03 0. -1.
         11    1    4    4    0    0 -0.18068185543E-01 -0.92918985297E-02 -0.60129400428E-01  0.63471289761E-01  0.51100000000E-03 0.  1.
</event>
<event>
 8    1  0.1123285E+005  0.1043930E+01  0.7957747E-01            NaN
         13   -1    0    0    0    0  0.00000000000E+00  0.00000000000E+00  0.74505805969E-08  0.10566000000E+00  0.10566000000E+00 0. -1.
     999900   -1    0    0    0    0 -0.00000000000E+00 -0.00000000000E+00 -0.74505805969E-08  0.93827000000E+00  0.93827000000E+00 0.  1.
     999902    2    1    2    0    0 -0.44625982273E-02 -0.20765504923E-01 -0.45375747350E-02  0.10222111013E+01  0.10219803447E+01 0.  0.
     999903    2    3    3    0    0 -0.70906954168E-01  0.10745526614E+00  0.18972683151E-02  0.13041694017E+00  0.20749657469E-01 0.  0.
         14    1    1    2    0    0  0.44625982273E-02  0.20765504923E-01  0.45375747350E-02  0.21718898731E-01  0.00000000000E+00 0.  1.
     999901    1    3    3    0    0  0.66444355941E-01 -0.12822077106E+00 -0.64348430501E-02  0.89179416110E+00  0.88000000000E+00 0.  1.
        -11    1    4    4    0    0 -0.37842864732E-01  0.38945540663E-01  0.20413880593E-02  0.54343959507E-01  0.51100000000E-03 0. -1.
         11    1    4    4    0    0 -0.33064089436E-01  0.68509725476E-01 -0.14411974419E-03  0.76072980661E-01  0.51100000000E-03 0.  1.
</event>
<event>
 8    1  0.1123285E+005  0.1043930E+01  0.7957747E-01            NaN
         13   -1    0    0    0    0  0.00000000000E+00  0.00000000000E+00  0.74505805969E-08  0.10566000000E+00  0.10566000000E+00 0.  1.
     999900   -1    0    0    0    0 -0.00000000000E+00 -0.00000000000E+00 -0.74505805969E-08  0.93827000000E+00  0.93827000000E+00 0.  1.
     999902    2    1    2    0    0 -0.11339198838E-01 -0.40004264362E-02 -0.21352863995E-01  0.10194243753E+01  0.10191297912E+01 0.  0.
     999903    2    3    3    0    0  0.10910308153E+00 -0.49062623212E-01  0.42186589215E-01  0.12781111462E+00  0.15663630282E-01 0.  0.
         14    1    1    2    0    0  0.11339198838E-01  0.40004264362E-02  0.21352863995E-01  0.24505624716E-01  0.00000000000E+00 0.  1.
     999901    1    3    3    0    0 -0.12044228037E+00  0.45062196776E-01 -0.63539453210E-01  0.89161326067E+00  0.88000000000E+00 0. -1.
        -11    1    4    4    0    0  0.52838999767E-01 -0.26417091671E-01  0.12949261759E-01  0.60479476931E-01  0.51100000000E-03 0.  1.
         11    1    4    4    0    0  0.56264081768E-01 -0.22645531541E-01  0.29237327455E-01  0.67331637687E-01  0.51100000000E-03 0. -1.
</event>
<event>
 8    1  0.1123285E+005  0.1043930E+01  0.7957747E-01            NaN
         13   -1    0    0    0    0  0.00000000000E+00  0.00000000000E+00  0.74505805969E-08  0.10566000000E+00  0.10566000000E+00 0. -1.
     999900   -1    0    0    0    0 -0.00000000000E+00 -0.00000000000E+00 -0.74505805969E-08  0.93827000000E+00  0.93827000000E+00 0.  1.
     999902    2    1    2    0    0  0.11522856528E-01 -0.16257022373E-01 -0.90377132670E-02  0.10220497061E+01  0.10218154699E+01 0.  0.
     999903    2    3    3    0    0 -0.74173186018E-01  0.86798776182E-01  0.57670663374E-01  0.12940514257E+00  0.19598378489E-01 0.  0.
         14    1    1    2    0    0 -0.11522856528E-01  0.16257022373E-01  0.90377132670E-02  0.21880293876E-01  0.00000000000E+00 0. -1.
     999901    1    3    3    0    0  0.85696042546E-01 -0.10305579856E+00 -0.66708376641E-01  0.89264456355E+00  0.88000000000E+00 0. -1.
        -11    1    4    4    0    0 -0.65628864251E-01  0.70154004419E-01  0.41413918364E-01  0.10461408086E+00  0.51100000000E-03 0. -1.
         11    1    4    4    0    0 -0.85443217671E-02  0.16644771763E-01  0.16256745011E-01  0.24791061713E-01  0.51100000000E-03 0.  1.
</event>
<event>
 8    1  0.1123285E+005  0.1043930E+01  0.7957747E-01            NaN
         13   -1    0    0    0    0  0.00000000000E+00  0.00000000000E+00  0.74505805969E-08  0.10566000000E+00  0.10566000000E+00 0. -1.
     999900   -1    0    0    0    0 -0.00000000000E+00 -0.00000000000E+00 -0.74505805969E-08  0.93827000000E+00  0.93827000000E+00 0.  1.
     999902    2    1    2    0    0 -0.30322730716E-02  0.23250104335E-02  0.25016446856E-01  0.10186234205E+01  0.10183090149E+01 0.  0.
     999903    2    3    3    0    0  0.14793377384E-01  0.86729808038E-01 -0.89566132731E-01  0.12701190687E+00  0.19210120678E-01 0.  0.
         14    1    1    2    0    0  0.30322730716E-02 -0.23250104335E-02 -0.25016446856E-01  0.25306579516E-01  0.00000000000E+00 0.  1.
     999901    1    3    3    0    0 -0.17825650456E-01 -0.84404797605E-01  0.11458257959E+00  0.89161151362E+00  0.88000000000E+00 0. -1.
        -11    1    4    4    0    0 -0.30229835556E-03  0.27127435668E-01 -0.17535045066E-01  0.32306780662E-01  0.51100000000E-03 0. -1.
         11    1    4    4    0    0  0.15095675740E-01  0.59602372370E-01 -0.72031087664E-01  0.94705126204E-01  0.51100000000E-03 0.  1.
</event>
<event>
 8    1  0.1123285E+005  0.1043930E+01  0.7957747E-01            NaN
         13   -1    0    0    0    0  0.00000000000E+00  0.00000000000E+00  0.74505805969E-08  0.10566000000E+00  0.10566000000E+00 0. -1.
     999900   -1    0    0    0    0 -0.00000000000E+00 -0.00000000000E+00 -0.74505805969E-08  0.93827000000E+00  0.93827000000E+00 0.  1.
     999902    2    1    2    0    0  0.71585594162E-02 -0.18155109186E-01 -0.14284560399E-01  0.10197452604E+01  0.10194584320E+01 0.  0.
     999903    2    3    3    0    0  0.22101173630E-01 -0.35696013216E-01  0.12142016096E+00  0.12904512209E+00  0.12129336844E-01 0.  0.
         14    1    1    2    0    0 -0.71585594162E-02  0.18155109186E-01  0.14284560399E-01  0.24184739574E-01  0.00000000000E+00 0. -1.
     999901    1    3    3    0    0 -0.14942614214E-01  0.17540904030E-01 -0.13570472136E+00  0.89070013834E+00  0.88000000000E+00 0.  1.
        -11    1    4    4    0    0  0.14512232806E-01 -0.31754740477E-01  0.92011438158E-01  0.98414096128E-01  0.51100000000E-03 0. -1.
         11    1    4    4    0    0  0.75889408243E-02 -0.39412727393E-02  0.29408722801E-01  0.30631025961E-01  0.51100000000E-03 0.  1.
</event>
<event>
 8    1  0.1123285E+005  0.1043930E+01  0.7957747E-01            NaN
         13   -1    0    0    0    0  0.00000000000E+00  0.00000000000E+00  0.74505805969E-08  0.10566000000E+00  0.10566000000E+00 0.  1.
     999900   -1    0    0    0    0 -0.00000000000E+00 -0.00000000000E+00 -0.74505805969E-08  0.93827000000E+00  0.93827000000E+00 0. -1.
     999902    2    1    2    0    0  0.17010733936E-02  0.30414852773E-01  0.39330161205E-02  0.10132147670E+01  0.10127490995E+01 0.  0.
     999903    2    3    3    0    0 -0.11021459711E+00  0.52777330059E-01  0.20885865903E-01  0.12568302293E+00  0.20671208791E-01 0.  0.
         14    1    1    2    0    0 -0.17010733936E-02 -0.30414852773E-01 -0.39330161205E-02  0.30715232959E-01  0.00000000000E+00 0. -1.
     999901    1    3    3    0    0  0.11191567050E+00 -0.22362477286E-01 -0.16952849783E-01  0.88753174411E+00  0.88000000000E+00 0.  1.
        -11    1    4    4    0    0 -0.45804941324E-01  0.32515486158E-01  0.56181506913E-02  0.56455063793E-01  0.51100000000E-03 0.  1.
         11    1    4    4    0    0 -0.64409655788E-01  0.20261843902E-01  0.15267715212E-01  0.69227959133E-01  0.51100000000E-03 0. -1.
</event>
<event>
 8    1  0.1123285E+005  0.1043930E+01  0.7957747E-01            NaN
         13   -1    0    0    0    0  0.00000000000E+00  0.00000000000E+00  0.74505805969E-08  0.10566000000E+00  0.10566000000E+00 0.  1.
     999900   -1    0    0    0    0 -0.00000000000E+00 -0.00000000000E+00 -0.74505805969E-08  0.93827000000E+00  0.93827000000E+00 0. -1.
     999902    2    1    2    0    0 -0.12530113999E-01  0.18170209996E-01 -0.88664583500E-02  0.10201439879E+01  0.10198666490E+01 0.  0.
     999903    2    3    3    0    0 -0.78491321696E-01  0.10476020195E-01  0.10146523525E+00  0.13077164512E+00  0.23138595957E-01 0.  0.
         14    1    1    2    0    0  0.12530113999E-01 -0.18170209996E-01  0.88664583500E-02  0.23786012103E-01  0.00000000000E+00 0. -1.
     999901    1    3    3    0    0  0.65961207697E-01  0.76941898009E-02 -0.11033169360E+00  0.88937234277E+00  0.88000000000E+00 0. -1.
        -11    1    4    4    0    0 -0.75711922080E-01  0.14517133188E-01  0.98247609741E-01  0.12488353071E+00  0.51100000000E-03 0.  1.
         11    1    4    4    0    0 -0.27793996157E-02 -0.40411129935E-02  0.32176255112E-02  0.58881144164E-02  0.51100000000E-03 0. -1.
</event>
<event>
 8    1  0.1123285E+005  0.1043930E+01  0.7957747E-01            NaN
         13   -1    0    0    0    0  0.00000000000E+00  0.00000000000E+00  0.74505805969E-08  0.10566000000E+00  0.10566000000E+00 0. -1.
     999900   -1    0    0    0    0 -0.00000000000E+00 -0.00000000000E+00 -0.74505805969E-08  0.93827000000E+00  0.93827000000E+00 0. -1.
     999902    2    1    2    0    0  0.20453934017E-01  0.12487274192E-01 -0.13341495906E-02  0.10199284295E+01  0.10196459806E+01 0.  0.
     999903    2    3    3    0    0  0.90468242083E-01 -0.86187936799E-01 -0.34004082163E-01  0.13104928970E+00  0.20119032070E-01 0.  0.
         14    1    1    2    0    0 -0.20453934017E-01 -0.12487274192E-01  0.13341495906E-02  0.24001570545E-01  0.00000000000E+00 0. -1.
     999901    1    3    3    0    0 -0.70014308067E-01  0.98675210992E-01  0.32669932573E-01  0.88887913976E+00  0.88000000000E+00 0.  1.
        -11    1    4    4    0    0  0.41007126553E-01 -0.52395420355E-01 -0.20732102041E-01  0.69691790610E-01  0.51100000000E-03 0. -1.
         11    1    4    4    0    0  0.49461115530E-01 -0.33792516444E-01 -0.13271980122E-01  0.61357499089E-01  0.51100000000E-03 0.  1.
</event>
<event>
 8    1  0.1123285E+005  0.1043930E+01  0.7957747E-01            NaN
         13   -1    0    0    0    0  0.00000000000E+00  0.00000000000E+00  0.74505805969E-08  0.10566000000E+00  0.10566000000E+00 0. -1.
     999900   -1    0    0    0    0 -0.00000000000E+00 -0.00000000000E+00 -0.74505805969E-08  0.93827000000E+00  0.93827000000E+00 0. -1.
     999902    2    1    2    0    0  0.87535829506E-02 -0.17864953563E-01 -0.11519310098E-01  0.10209413879E+01  0.10206825370E+01 0.  0.
     999903    2    3    3    0    0  0.20013959618E-01  0.12000663238E+00 -0.40081166983E-01  0.12967759422E+00  0.20189801874E-01 0.  0.
         14    1    1    2    0    0 -0.87535829506E-02  0.17864953563E-01  0.11519310098E-01  0.22988612081E-01  0.00000000000E+00 0.  1.
     999901    1    3    3    0    0 -0.11260376667E-01 -0.13787158595E+00  0.28561856885E-01  0.89126379370E+00  0.88000000000E+00 0.  1.
        -11    1    4    4    0    0  0.15700852232E-01  0.86662340888E-01 -0.38191434031E-01  0.95998566881E-01  0.51100000000E-03 0. -1.
         11    1    4    4    0    0  0.43131073856E-02  0.33344291496E-01 -0.18897329524E-02  0.33679027336E-01  0.51100000000E-03 0.  1.
</event>
<event>
 8    1  0.1123285E+005  0.1043930E+01  0.7957747E-01            NaN
         13   -1    0    0    0    0  0.00000000000E+00  0.00000000000E+00  0.74505805969E-08  0.10566000000E+00  0.10566000000E+00 0.  1.
     999900   -1    0    0    0    0 -0.00000000000E+00 -0.00000000000E+00 -0.74505805969E-08  0.93827000000E+00  0.93827000000E+00 0. -1.
     999902    2    1    2    0    0 -0.10979248865E-01 -0.11486617661E-01  0.18042501133E-01  0.10198879922E+01  0.10196045795E+01 0.  0.
     999903    2    3    3    0    0 -0.21288916310E-01 -0.12860474508E+00 -0.40451756574E-02  0.13179407237E+00  0.18997780131E-01 0.  0.
         14    1    1    2    0    0  0.10979248865E-01  0.11486617661E-01 -0.18042501133E-01  0.24042007780E-01  0.00000000000E+00 0. -1.
     999901    1    3    3    0    0  0.10309667445E-01  0.11711812742E+00  0.22087676791E-01  0.88809391985E+00  0.88000000000E+00 0.  1.
        -11    1    4    4    0    0 -0.17755337665E-02 -0.61010755370E-01  0.28199383294E-02  0.61103829374E-01  0.51100000000E-03 0. -1.
         11    1    4    4    0    0 -0.19513382543E-01 -0.67593989712E-01 -0.68651139868E-02  0.70690242994E-01  0.51100000000E-03 0.  1.
</event>
<event>
 8    1  0.1123285E+005  0.1043930E+01  0.7957747E-01            NaN
         13   -1    0    0    0    0  0.00000000000E+00  0.00000000000E+00  0.74505805969E-08  0.10566000000E+00  0.10566000000E+00 0.  1.
     999900   -1    0    0    0    0 -0.00000000000E+00 -0.00000000000E+00 -0.74505805969E-08  0.93827000000E+00  0.93827000000E+00 0.  1.
     999902    2    1    2    0    0 -0.23377022460E-01  0.93254951908E-02  0.61487965919E-02  0.10180213578E+01  0.10176916170E+01 0.  0.
     999903    2    3    3    0    0 -0.52885015764E-01  0.10332371067E+00 -0.55969884383E-01  0.13034736547E+00  0.19626350844E-01 0.  0.
         14    1    1    2    0    0  0.23377022460E-01 -0.93254951908E-02 -0.61487965919E-02  0.25908642172E-01  0.00000000000E+00 0. -1.
     999901    1    3    3    0    0  0.29507993304E-01 -0.93998215483E-01  0.62118680974E-01  0.88767399236E+00  0.88000000000E+00 0. -1.
        -11    1    4    4    0    0 -0.36320094304E-01  0.62305871676E-01 -0.44129750851E-01  0.84550972359E-01  0.51100000000E-03 0.  1.
         11    1    4    4    0    0 -0.16564921460E-01  0.41017838997E-01 -0.11840133532E-01  0.45796393111E-01  0.51100000000E-03 0. -1.
</event>
<event>
 8    1  0.1123285E+005  0.1043930E+01  0.7957747E-01            NaN
         13   -1    0    0    0    0  0.00000000000E+00  0.00000000000E+00  0.74505805969E-08  0.10566000000E+00  0.10566000000E+00 0.  1.
     999900   -1    0    0    0    0 -0.00000000000E+00 -0.00000000000E+00 -0.74505805969E-08  0.93827000000E+00  0.93827000000E+00 0. -1.
     999902    2    1    2    0    0 -0.11870999964E-01 -0.37807361460E-03  0.21775905633E-01  0.10191256930E+01  0.10188237946E+01 0.  0.
     999903    2    3    3    0    0  0.10078777206E+00 -0.62080631817E-01  0.48342465346E-01  0.12940383382E+00  0.19904230877E-01 0.  0.
         14    1    1    2    0    0  0.11870999964E-01  0.37807361460E-03 -0.21775905633E-01  0.24804307004E-01  0.00000000000E+00 0. -1.
     999901    1    3    3    0    0 -0.11265877203E+00  0.61702558203E-01 -0.26566559712E-01  0.88972185918E+00  0.88000000000E+00 0. -1.
        -11    1    4    4    0    0  0.60634612898E-01 -0.27121178443E-01  0.21791472185E-01  0.69908826213E-01  0.51100000000E-03 0.  1.
         11    1    4    4    0    0  0.40153159166E-01 -0.34959453374E-01  0.26550993160E-01  0.59495007606E-01  0.51100000000E-03 0. -1.
</event>
<event>
 8    1  0.1123285E+005  0.1043930E+01  0.7957747E-01            NaN
         13   -1    0    0    0    0  0.00000000000E+00  0.00000000000E+00  0.74505805969E-08  0.10566000000E+00  0.10566000000E+00 0. -1.
     999900   -1    0    0    0    0 -0.00000000000E+00 -0.00000000000E+00 -0.74505805969E-08  0.93827000000E+00  0.93827000000E+00 0. -1.
     999902    2    1    2    0    0  0.85823032871E-02 -0.24893621284E-01  0.12319856055E-01  0.10148589291E+01  0.10144424670E+01 0.  0.
     999903    2    3    3    0    0 -0.47933625987E-01 -0.99097068546E-01  0.63111939311E-01  0.12847298744E+00  0.20107961676E-01 0.  0.
         14    1    1    2    0    0 -0.85823032871E-02  0.24893621284E-01 -0.12319856055E-01  0.29071070905E-01  0.00000000000E+00 0.  1.
     999901    1    3    3    0    0  0.56515929274E-01  0.74203447262E-01 -0.50792083256E-01  0.88638594166E+00  0.88000000000E+00 0. -1.
        -11    1    4    4    0    0 -0.26973957516E-01 -0.48128825764E-01  0.20696046414E-01  0.58928479632E-01  0.51100000000E-03 0.  1.
         11    1    4    4    0    0 -0.20959668471E-01 -0.50968242782E-01  0.42415892897E-01  0.69544507805E-01  0.51100000000E-03 0. -1.
</event>
<event>
 8    1  0.1123285E+005  0.1043930E+01  0.7957747E-01            NaN
         13   -1    0    0    0    0  0.00000000000E+00  0.00000000000E+00  0.74505805969E-08  0.10566000000E+00  0.10566000000E+00 0. -1.
     999900   -1    0    0    0    0 -0.00000000000E+00 -0.00000000000E+00 -0.74505805969E-08  0.93827000000E+00  0.93827000000E+00 0. -1.
     999902    2    1    2    0    0 -0.28471467914E-03  0.22998771238E-01  0.96217688717E-02  0.10189980330E+01  0.10186929804E+01 0.  0.
     999903    2    3    3    0    0  0.83125484349E-03 -0.48489357163E-01 -0.11588660805E+00  0.12722219204E+00  0.20096553889E-01 0.  0.
         14    1    1    2    0    0  0.28471467914E-03 -0.22998771238E-01 -0.96217688717E-02  0.24931966973E-01  0.00000000000E+00 0.  1.
     999901    1    3    3    0    0 -0.11159695226E-02  0.71488128402E-01  0.12550837693E+00  0.89177584099E+00  0.88000000000E+00 0.  1.
        -11    1    4    4    0    0  0.78543573592E-02 -0.42562216381E-01 -0.94735888789E-01  0.10415557085E+00  0.51100000000E-03 0. -1.
         11    1    4    4    0    0 -0.70231025157E-02 -0.59271407829E-02 -0.21150719266E-01  0.23066621193E-01  0.51100000000E-03 0.  1.
</event>
<event>
 8    1  0.1123285E+005  0.1043930E+01  0.7957747E-01            NaN
         13   -1    0    0    0    0  0.00000000000E+00  0.00000000000E+00  0.74505805969E-08  0.10566000000E+00  0.10566000000E+00 0.  1.
     999900   -1    0    0    0    0 -0.00000000000E+00 -0.00000000000E+00 -0.74505805969E-08  0.93827000000E+00  0.93827000000E+00 0.  1.
     999902    2    1    2    0    0 -0.32928400664E-02 -0.19563721132E-01 -0.93604998640E-02  0.10219937073E+01  0.10217582575E+01 0.  0.
     999903    2    3    3    0    0 -0.43484353989E-01 -0.68508759873E-01 -0.10562916168E+00  0.13448109901E+00  0.18528544803E-01 0.  0.
         14    1    1    2    0    0  0.32928400664E-02  0.19563721132E-01  0.93604998640E-02  0.21936292711E-01  0.00000000000E+00 0.  1.
     999901    1    3    3    0    0  0.40191513923E-01  0.48945038741E-01  0.96268661814E-01  0.88751260828E+00  0.88000000000E+00 0. -1.
        -11    1    4    4    0    0 -0.22397024019E-01 -0.44314915772E-01 -0.76092320384E-01  0.90861107121E-01  0.51100000000E-03 0.  1.
         11    1    4    4    0    0 -0.21087329971E-01 -0.24193844100E-01 -0.29536841295E-01  0.43619991888E-01  0.51100000000E-03 0. -1.
</event>
<event>
 8    1  0.1123285E+005  0.1043930E+01  0.7957747E-01            NaN
         13   -1    0    0    0    0  0.00000000000E+00  0.00000000000E+00  0.74505805969E-08  0.10566000000E+00  0.10566000000E+00 0. -1.
     999900   -1    0    0    0    0 -0.00000000000E+00 -0.00000000000E+00 -0.74505805969E-08  0.93827000000E+00  0.93827000000E+00 0. -1.
     999902    2    1    2    0    0 -0.42668285808E-02  0.29384421856E-02 -0.22779168981E-01  0.10205691180E+01  0.10203017170E+01 0.  0.
     999903    2    3    3    0    0 -0.11607928711E+00  0.19172094758E-01  0.51850871176E-01  0.13021233543E+00  0.20609933117E-01 0.  0.
         14    1    1    2    0    0  0.42668285808E-02 -0.29384421856E-02  0.22779168981E-01  0.23360882006E-01  0.00000000000E+00 0. -1.
     999901    1    3    3    0    0  0.11181245853E+00 -0.16233652572E-01 -0.74630040157E-01  0.89035678256E+00  0.88000000000E+00 0. -1.
        -11    1    4    4    0    0 -0.26863720199E-01 -0.42462254569E-02  0.12131051015E-01  0.29784449186E-01  0.51100000000E-03 0. -1.
         11    1    4    4    0    0 -0.89215566914E-01  0.23418320214E-01  0.39719820160E-01  0.10042788625E+00  0.51100000000E-03 0.  1.
</event>
<event>
 8    1  0.1123285E+005  0.1043930E+01  0.7957747E-01            NaN
         13   -1    0    0    0    0  0.00000000000E+00  0.00000000000E+00  0.74505805969E-08  0.10566000000E+00  0.10566000000E+00 0.  1.
     999900   -1    0    0    0    0 -0.00000000000E+00 -0.00000000000E+00 -0.74505805969E-08  0.93827000000E+00  0.93827000000E+00 0.  1.
     999902    2    1    2    0    0 -0.35321903284E-02 -0.37613376946E-02  0.23579535622E-01  0.10197925078E+01  0.10195068123E+01 0.  0.
     999903    2    3    3    0    0 -0.47071582634E-01 -0.97105815924E-01  0.73473210877E-01  0.13238152684E+00  0.21938152906E-01 0.  0.
         14    1    1    2    0    0  0.35321903284E-02  0.37613376946E-02 -0.23579535622E-01  0.24137492204E-01  0.00000000000E+00 0. -1.
     999901    1    3    3    0    0  0.43539392306E-01  0.93344478229E-01 -0.49893675255E-01  0.88741098096E+00  0.88000000000E+00 0.  1.
        -11    1    4    4    0    0 -0.41148394926E-02 -0.26675424657E-01  0.12236631739E-01  0.29639609680E-01  0.51100000000E-03 0.  1.
         11    1    4    4    0    0 -0.42956743142E-01 -0.70430391267E-01  0.61236579137E-01  0.10274191716E+00  0.51100000000E-03 0. -1.
</event>
<event>
 8    1  0.1123285E+005  0.1043930E+01  0.7957747E-01            NaN
         13   -1    0    0    0    0  0.00000000000E+00  0.00000000000E+00  0.74505805969E-08  0.10566000000E+00  0.10566000000E+00 0.  1.
     999900   -1    0    0    0    0 -0.00000000000E+00 -0.00000000000E+00 -0.74505805969E-08  0.93827000000E+00  0.93827000000E+00 0. -1.
     999902    2    1    2    0    0  0.13956398596E-01  0.86999245374E-02  0.10984142535E-01  0.10241532172E+01  0.10239622509E+01 0.  0.
     999903    2    3    3    0    0  0.63629664715E-01  0.16468622514E-01  0.11758616493E+00  0.13629524594E+00  0.20734949341E-01 0.  0.
         14    1    1    2    0    0 -0.13956398596E-01 -0.86999245374E-02 -0.10984142535E-01  0.19776782750E-01  0.00000000000E+00 0. -1.
     999901    1    3    3    0    0 -0.49673266119E-01 -0.77686979766E-02 -0.10660202240E+00  0.88785797131E+00  0.88000000000E+00 0. -1.
        -11    1    4    4    0    0  0.16884763431E-01  0.14187725099E-01  0.40266703207E-01  0.45913563222E-01  0.51100000000E-03 0. -1.
         11    1    4    4    0    0  0.46744901284E-01  0.22808974147E-02  0.77319461724E-01  0.90381682720E-01  0.51100000000E-03 0.  1.
</event>
<event>
 8    1  0.1123285E+005  0.1043930E+01  0.7957747E-01            NaN
         13   -1    0    0    0    0  0.00000000000E+00  0.00000000000E+00  0.74505805969E-08  0.10566000000E+00  0.10566000000E+00 0.  1.
     999900   -1    0    0    0    0 -0.00000000000E+00 -0.00000000000E+00 -0.74505805969E-08  0.93827000000E+00  0.93827000000E+00 0. -1.
     999902    2    1    2    0    0 -0.11921321866E-01  0.20730400526E-01  0.71405193835E-02  0.10189729481E+01  0.10186672737E+01 0.  0.
     999903    2    3    3    0    0  0.58021188287E-01 -0.92964299717E-01  0.62227947676E-01  0.12720332298E+00  0.17307472149E-01 0.  0.
         14    1    1    2    0    0  0.11921321866E-01 -0.20730400526E-01 -0.71405193835E-02  0.24957051870E-01  0.00000000000E+00 0. -1.
     999901    1    3    3    0    0 -0.69942510152E-01  0.11369470024E+00 -0.55087428293E-01  0.89176962515E+00  0.88000000000E+00 0. -1.
        -11    1    4    4    0    0  0.16462032933E-01 -0.37656416663E-01  0.16589848834E-01  0.44322550124E-01  0.51100000000E-03 0. -1.
         11    1    4    4    0    0  0.41559155354E-01 -0.55307883054E-01  0.45638098842E-01  0.82880772853E-01  0.51100000000E-03 0.  1.
</event>
<event>
 8    1  0.1123285E+005  0.1043930E+01  0.7957747E-01            NaN
         13   -1    0    0    0    0  0.00000000000E+00  0.00000000000E+00  0.74505805969E-08  0.10566000000E+00  0.10566000000E+00 0. -1.
     999900   -1    0    0    0    0 -0.00000000000E+00 -0.00000000000E+00 -0.74505805969E-08  0.93827000000E+00  0.93827000000E+00 0.  1.
     999902    2    1    2    0    0 -0.12699911164E-01 -0.12495184593E-01 -0.15901641907E-01  0.10200494724E+01  0.10197698989E+01 0.  0.
     999903    2    3    3    0    0  0.39337511177E-01 -0.39335222994E-01 -0.11808208136E+00  0.13220425890E+00  0.20973520890E-01 0.  0.
         14    1    1    2    0    0  0.12699911164E-01  0.12495184593E-01  0.15901641907E-01  0.23880527568E-01  0.00000000000E+00 0. -1.
     999901    1    3    3    0    0 -0.52037422341E-01  0.26840038402E-01  0.10218043946E+00  0.88784521353E+00  0.88000000000E+00 0. -1.
        -11    1    4    4    0    0  0.17587315652E-01 -0.48951922179E-02 -0.44434094796E-01  0.48040883423E-01  0.51100000000E-03 0. -1.
         11    1    4    4    0    0  0.21750195525E-01 -0.34440030776E-01 -0.73647986567E-01  0.84163375477E-01  0.51100000000E-03 0.  1.
</event>
<event>
 8    1  0.1204268E+005  0.1043930E+01  0.7957747E-01            NaN
         13   -1    0    0    0    0  0.00000000000E+00  0.00000000000E+00  0.74505805969E-08  0.10566000000E+00  0.10566000000E+00 0.  1.
     999900   -1    0    0    0    0 -0.00000000000E+00 -0.00000000000E+00 -0.74505805969E-08  0.93827000000E+00  0.93827000000E+00 0. -1.
     999902    2    1    2    0    0  0.15770758016E-01  0.14666173097E-02  0.17653220578E-01  0.10202128338E+01  0.10199371168E+01 0.  0.
     999903    2    3    3    0    0  0.60500628861E-01 -0.51214250933E-01 -0.10057646461E+00  0.12962073096E+00  0.20066964601E-01 0.  0.
         14    1    1    2    0    0 -0.15770758016E-01 -0.14666173097E-02 -0.17653220578E-01  0.23717166178E-01  0.00000000000E+00 0. -1.
     999901    1    3    3    0    0 -0.44729870845E-01  0.52680868243E-01  0.11822968519E+00  0.89059210286E+00  0.88000000000E+00 0.  1.
        -11    1    4    4    0    0  0.49807236152E-01 -0.32346067410E-01 -0.65862874781E-01  0.88686009299E-01  0.51100000000E-03 0. -1.
         11    1    4    4    0    0  0.10693392709E-01 -0.18868183524E-01 -0.34713589834E-01  0.40934721658E-01  0.51100000000E-03 0.  1.
</event>
<event>
 7    1  0.1123285E+005  0.1043930E+01  0.7957747E-01            NaN
         13   -1    0    0    0    0  0.00000000000E+00  0.00000000000E+00  0.74505805969E-08  0.10566000000E+00  0.10566000000E+00 0.  1.
     999900   -1    0    0    0    0 -0.00000000000E+00 -0.00000000000E+00 -0.74505805969E-08  0.93827000000E+00  0.93827000000E+00 0. -1.
     999902    2    1    2    0    0 -0.85616758676E-02  0.34302598143E-02 -0.21313734209E-01  0.10207062139E+01  0.10204419782E+01 0.  0.
         14    1    1    2    0    0  0.85616758676E-02 -0.34302598143E-02  0.21313734209E-01  0.23223786125E-01  0.00000000000E+00 0.  1.
     999901    1    3    3    0    0 -0.30086847068E-01  0.11559043167E+00  0.17244675698E-01  0.88823631152E+00  0.88000000000E+00 0.  1.
        -11    1    3    3    0    0 -0.29938625990E-02 -0.52840218291E-01 -0.42904993005E-01  0.68133335659E-01  0.51100000000E-03 0. -1.
         11    1    3    3    0    0  0.24519033799E-01 -0.59319953560E-01  0.43465830980E-02  0.64336566698E-01  0.51100000000E-03 0.  1.
</event>
<event>
 8    1  0.1123285E+005  0.1043930E+01  0.7957747E-01            NaN
         13   -1    0    0    0    0  0.00000000000E+00  0.00000000000E+00  0.74505805969E-08  0.10566000000E+00  0.10566000000E+00 0.  1.
     999900   -1    0    0    0    0 -0.00000000000E+00 -0.00000000000E+00 -0.74505805969E-08  0.93827000000E+00  0.93827000000E+00 0.  1.
     999902    2    1    2    0    0  0.30591191128E-02 -0.18968190895E-01 -0.17396468423E-01  0.10180111345E+01  0.10176811300E+01 0.  0.
     999903    2    3    3    0    0  0.12463694948E+00 -0.10246158369E-01  0.23918729406E-01  0.12864945989E+00  0.18418061141E-01 0.  0.
         14    1    1    2    0    0 -0.30591191128E-02  0.18968190895E-01  0.17396468423E-01  0.25918865507E-01  0.00000000000E+00 0.  1.
     999901    1    3    3    0    0 -0.12157783037E+00 -0.87220325255E-02 -0.41315197829E-01  0.88936167461E+00  0.88000000000E+00 0. -1.
        -11    1    4    4    0    0  0.10647520828E+00 -0.92212867473E-02  0.13619443263E-01  0.10773928004E+00  0.51100000000E-03 0.  1.
         11    1    4    4    0    0  0.18161741194E-01 -0.10248716218E-02  0.10299286142E-01  0.20910179843E-01  0.51100000000E-03 0. -1.
</event>
<event>
 8    1  0.1123285E+005  0.1043930E+01  0.7957747E-01            NaN
         13   -1    0    0    0    0  0.00000000000E+00  0.00000000000E+00  0.74505805969E-08  0.10566000000E+00  0.10566000000E+00 0. -1.
     999900   -1    0    0    0    0 -0.00000000000E+00 -0.00000000000E+00 -0.74505805969E-08  0.93827000000E+00  0.93827000000E+00 0. -1.
     999902    2    1    2    0    0  0.29221777641E-02  0.59451105922E-02  0.22637297359E-01  0.10203433365E+01  0.10200706807E+01 0.  0.
     999903    2    3    3    0    0 -0.92603260613E-02  0.35216935249E-01  0.12699622073E+00  0.13360998425E+00  0.19939950962E-01 0.  0.
         14    1    1    2    0    0 -0.29221777641E-02 -0.59451105922E-02 -0.22637297359E-01  0.23586663489E-01  0.00000000000E+00 0.  1.
     999901    1    3    3    0    0  0.12182503825E-01 -0.29271824657E-01 -0.10435892338E+00  0.88673335226E+00  0.88000000000E+00 0. -1.
        -11    1    4    4    0    0 -0.80555305490E-02  0.15766824342E-01  0.90666621890E-01  0.92380635245E-01  0.51100000000E-03 0.  1.
         11    1    4    4    0    0 -0.12047955123E-02  0.19450110907E-01  0.36329598844E-01  0.41229349008E-01  0.51100000000E-03 0. -1.
</event>
<event>
 8    1  0.1123285E+005  0.1043930E+01  0.7957747E-01            NaN
         13   -1    0    0    0    0  0.00000000000E+00  0.00000000000E+00  0.74505805969E-08  0.10566000000E+00  0.10566000000E+00 0. -1.
     999900   -1    0    0    0    0 -0.00000000000E+00 -0.00000000000E+00 -0.74505805969E-08  0.93827000000E+00  0.93827000000E+00 0.  1.
     999902    2    1    2    0    0  0.21773590212E-01  0.98038958585E-02 -0.21593130771E-02  0.10199535900E+01  0.10196717401E+01 0.  0.
     999903    2    3    3    0    0  0.50913592328E-01  0.73946273842E-01  0.94626826337E-01  0.13184833655E+00  0.19222442346E-01 0.  0.
         14    1    1    2    0    0 -0.21773590212E-01 -0.98038958585E-02  0.21593130771E-02  0.23976410025E-01  0.00000000000E+00 0. -1.
     999901    1    3    3    0    0 -0.29140002116E-01 -0.64142377983E-01 -0.96786139414E-01  0.88810525342E+00  0.88000000000E+00 0.  1.
        -11    1    4    4    0    0  0.13752509421E-01  0.13390545301E-01  0.11057841794E-01  0.22157960307E-01  0.51100000000E-03 0. -1.
         11    1    4    4    0    0  0.37161082907E-01  0.60555728541E-01  0.83568984543E-01  0.10969037624E+00  0.51100000000E-03 0.  1.
</event>
<event>
 8    1  0.1123285E+005  0.1043930E+01  0.7957747E-01            NaN
         13   -1    0    0    0    0  0.00000000000E+00  0.00000000000E+00  0.74505805969E-08  0.10566000000E+00  0.10566000000E+00 0. -1.
     999900   -1    0    0    0    0 -0.00000000000E+00 -0.00000000000E+00 -0.74505805969E-08  0.93827000000E+00  0.93827000000E+00 0. -1.
     999902    2    1    2    0    0 -0.21799409633E-01  0.14305575466E-02  0.84393709386E-02  0.10205102703E+01  0.10202415048E+01 0.  0.
     999903    2    3    3    0    0  0.63134856569E-01  0.78203725418E-01 -0.78595684168E-01  0.12883597460E+00  0.17877192104E-01 0.  0.
         14    1    1    2    0    0  0.21799409633E-01 -0.14305575466E-02 -0.84393709386E-02  0.23419729654E-01  0.00000000000E+00 0.  1.
     999901    1    3    3    0    0 -0.84934266202E-01 -0.76773167871E-01  0.87035055107E-01  0.89167429575E+00  0.88000000000E+00 0.  1.
        -11    1    4    4    0    0  0.48384979530E-01  0.52363130213E-01 -0.46788674480E-01  0.85278630562E-01  0.51100000000E-03 0. -1.
         11    1    4    4    0    0  0.14749877039E-01  0.25840595204E-01 -0.31807009688E-01  0.43557344036E-01  0.51100000000E-03 0.  1.
</event>
<event>
 8    1  0.1123285E+005  0.1043930E+01  0.7957747E-01            NaN
         13   -1    0    0    0    0  0.00000000000E+00  0.00000000000E+00  0.74505805969E-08  0.10566000000E+00  0.10566000000E+00 0.  1.
     999900   -1    0    0    0    0 -0.00000000000E+00 -0.00000000000E+00 -0.74505805969E-08  0.93827000000E+00  0.93827000000E+00 0.  1.
     999902    2    1    2    0    0  0.31951313012E-02  0.22373578370E-01  0.74154261112E-02  0.10201439869E+01  0.10198666480E+01 0.  0.
     999903    2    3    3    0    0  0.12499750412E+00  0.29723630082E-01 -0.20416347605E-01  0.13128829060E+00  0.17661194135E-01 0.  0.
         14    1    1    2    0    0 -0.31951313012E-02 -0.22373578370E-01 -0.74154261112E-02  0.23786013064E-01  0.00000000000E+00 0. -1.
     999901    1    3    3    0    0 -0.12180237281E+00 -0.73500517126E-02  0.27831773716E-01  0.88885569634E+00  0.88000000000E+00 0.  1.
        -11    1    4    4    0    0  0.11315570871E+00  0.30499648840E-01 -0.22192992466E-01  0.11927796540E+00  0.51100000000E-03 0.  1.
         11    1    4    4    0    0  0.11841795404E-01 -0.77601875818E-03  0.17766448605E-02  0.12010325203E-01  0.51100000000E-03 0. -1.
</event>
<event>
 8    1  0.1123285E+005  0.1043930E+01  0.7957747E-01            NaN
         13   -1    0    0    0    0  0.00000000000E+00  0.00000000000E+00  0.74505805969E-08  0.10566000000E+00  0.10566000000E+00 0.  1.
     999900   -1    0    0    0    0 -0.00000000000E+00 -0.00000000000E+00 -0.74505805969E-08  0.93827000000E+00  0.93827000000E+00 0. -1.
     999902    2    1    2    0    0  0.12060127643E-01 -0.17306481810E-01  0.92146454047E-02  0.10209110799E+01  0.10206515382E+01 0.  0.
     999903    2    3    3    0    0  0.79684400531E-01 -0.10348873095E+00 -0.20112043263E-01  0.13363407864E+00  0.19850732167E-01 0.  0.
         14    1    1    2    0    0 -0.12060127643E-01  0.17306481810E-01 -0.92146454047E-02  0.23018920074E-01  0.00000000000E+00 0. -1.
     999901    1    3    3    0    0 -0.67624272888E-01  0.86182249138E-01  0.29326688668E-01  0.88727700129E+00  0.88000000000E+00 0. -1.
        -11    1    4    4    0    0  0.37281439794E-02 -0.14975759918E-01 -0.33268761386E-02  0.15795621814E-01  0.51100000000E-03 0.  1.
         11    1    4    4    0    0  0.75956256551E-01 -0.88512971031E-01 -0.16785167125E-01  0.11783845682E+00  0.51100000000E-03 0. -1.
</event>
<event>
 8    1  0.1123285E+005  0.1043930E+01  0.7957747E-01            NaN
         13   -1    0    0    0    0  0.00000000000E+00  0.00000000000E+00  0.74505805969E-08  0.10566000000E+00  0.10566000000E+00 0. -1.
     999900   -1    0    0    0    0 -0.00000000000E+00 -0.00000000000E+00 -0.74505805969E-08  0.93827000000E+00  0.93827000000E+00 0. -1.
     999902    2    1    2    0    0 -0.66220025565E-02  0.12556333515E-01  0.18353472590E-01  0.10207273625E+01  0.10204636134E+01 0.  0.
     999903    2    3    3    0    0  0.76353467226E-02  0.25209363875E-01 -0.12455287865E+00  0.12899556631E+00  0.20799663482E-01 0.  0.
         14    1    1    2    0    0  0.66220025565E-02 -0.12556333515E-01 -0.18353472590E-01  0.23202637464E-01  0.00000000000E+00 0.  1.
     999901    1    3    3    0    0 -0.14257349279E-01 -0.12653030361E-01  0.14290635123E+00  0.89173179623E+00  0.88000000000E+00 0.  1.
        -11    1    4    4    0    0  0.15624791110E-02  0.13598028342E-01 -0.24347826866E-01  0.27936096897E-01  0.51100000000E-03 0. -1.
         11    1    4    4    0    0  0.60728676116E-02  0.11611335534E-01 -0.10020505178E+00  0.10105946941E+00  0.51100000000E-03 0.  1.
</event>
<event>
 8    1  0.1123285E+005  0.1043930E+01  0.7957747E-01            NaN
         13   -1    0    0    0    0  0.00000000000E+00  0.00000000000E+00  0.74505805969E-08  0.10566000000E+00  0.10566000000E+00 0. -1.
     999900   -1    0    0    0    0 -0.00000000000E+00 -0.00000000000E+00 -0.74505805969E-08  0.93827000000E+00  0.93827000000E+00 0. -1.
     999902    2    1    2    0    0  0.84912015909E-02  0.16264735081E-01  0.13866633042E-01  0.10209316169E+01  0.10206725434E+01 0.  0.
     999903    2    3    3    0    0 -0.10582836997E+00  0.41390558786E-01  0.63639370878E-01  0.13178731094E+00  0.20127184378E-01 0.  0.
         14    1    1    2    0    0 -0.84912015909E-02 -0.16264735081E-01 -0.13866633042E-01  0.22998383066E-01  0.00000000000E+00 0. -1.
     999901    1    3    3    0    0  0.11431957156E+00 -0.25125823705E-01 -0.49772737836E-01  0.88914430600E+00  0.88000000000E+00 0. -1.
        -11    1    4    4    0    0 -0.22508155684E-01  0.10099327121E-01  0.49262909258E-02  0.25162331845E-01  0.51100000000E-03 0.  1.
         11    1    4    4    0    0 -0.83320214284E-01  0.31291231666E-01  0.58713079953E-01  0.10662497909E+00  0.51100000000E-03 0. -1.
</event>
<event>
 8    1  0.1123285E+005  0.1043930E+01  0.7957747E-01            NaN
         13   -1    0    0    0    0  0.00000000000E+00  0.00000000000E+00  0.74505805969E-08  0.10566000000E+00  0.10566000000E+00 0.  1.
     999900   -1    0    0    0    0 -0.00000000000E+00 -0.00000000000E+00 -0.74505805969E-08  0.93827000000E+00  0.93827000000E+00 0.  1.
     999902    2    1    2    0    0 -0.11959633861E-01 -0.53958209741E-02 -0.18669288056E-01  0.10211113663E+01  0.10208563721E+01 0.  0.
     999903    2    3    3    0    0  0.99373621310E-01  0.13990728700E-01  0.78791168675E-01  0.12854793853E+00  0.15673772284E-01 0.  0.
         14    1    1    2    0    0  0.11959633861E-01  0.53958209741E-02  0.18669288056E-01  0.22818633671E-01  0.00000000000E+00 0.  1.
     999901    1    3    3    0    0 -0.11133325517E+00 -0.19386549674E-01 -0.97460456731E-01  0.89256342780E+00  0.88000000000E+00 0.  1.
        -11    1    4    4    0    0  0.61255321692E-01  0.68241475997E-02  0.38782633519E-01  0.72822642150E-01  0.51100000000E-03 0. -1.
         11    1    4    4    0    0  0.38118299619E-01  0.71665811000E-02  0.40008535156E-01  0.55725296381E-01  0.51100000000E-03 0.  1.
</event>
<event>
 8    1  0.1123285E+005  0.1043930E+01  0.7957747E-01            NaN
         13   -1    0    0    0    0  0.00000000000E+00  0.00000000000E+00  0.74505805969E-08  0.10566000000E+00  0.10566000000E+00 0.  1.
     999900   -1    0    0    0    0 -0.00000000000E+00 -0.00000000000E+00 -0.74505805969E-08  0.93827000000E+00  0.93827000000E+00 0. -1.
     999902    2    1    2    0    0  0.23613475251E-01 -0.42232459065E-02  0.47402398580E-02  0.10194779675E+01  0.10191846861E+01 0.  0.
     999903    2    3    3    0    0 -0.65406195920E-01  0.47246296159E-01  0.97978554642E-01  0.12859806597E+00  0.20675648357E-01 0.  0.
         14    1    1    2    0    0 -0.23613475251E-01  0.42232459065E-02 -0.47402398580E-02  0.24452032499E-01  0.00000000000E+00 0.  1.
     999901    1    3    3    0    0  0.89019671171E-01 -0.51469542065E-01 -0.93238314784E-01  0.89087990154E+00  0.88000000000E+00 0.  1.
        -11    1    4    4    0    0 -0.28237771393E-01  0.13669766112E-01  0.51266077205E-01  0.60105790336E-01  0.51100000000E-03 0.  1.
         11    1    4    4    0    0 -0.37168424527E-01  0.33576530046E-01  0.46712477436E-01  0.68492275630E-01  0.51100000000E-03 0. -1.
</event>
<event>
 8    1  0.1123285E+005  0.1043930E+01  0.7957747E-01            NaN
         13   -1    0    0    0    0  0.00000000000E+00  0.00000000000E+00  0.74505805969E-08  0.10566000000E+00  0.10566000000E+00 0.  1.
     999900   -1    0    0    0    0 -0.00000000000E+00 -0.00000000000E+00 -0.74505805969E-08  0.93827000000E+00  0.93827000000E+00 0.  1.
     999902    2    1    2    0    0 -0.99931223781E-02 -0.15940234875E-01  0.13911681958E-01  0.10205315283E+01  0.10202632561E+01 0.  0.
     999903    2    3    3    0    0  0.12164772502E+00  0.38158759276E-01  0.15543842015E-03  0.12899058807E+00  0.19603258357E-01 0.  0.
         14    1    1    2    0    0  0.99931223781E-02  0.15940234875E-01 -0.13911681958E-01  0.23398471695E-01  0.00000000000E+00 0. -1.
     999901    1    3    3    0    0 -0.13164084740E+00 -0.54098994151E-01  0.13756243538E-01  0.89154094023E+00  0.88000000000E+00 0. -1.
        -11    1    4    4    0    0  0.38145776541E-01  0.39112293323E-02  0.46204350594E-02  0.38626513225E-01  0.51100000000E-03 0. -1.
         11    1    4    4    0    0  0.83501948480E-01  0.34247529944E-01 -0.44649966392E-02  0.90364074849E-01  0.51100000000E-03 0.  1.
</event>
<event>
 8    1  0.1123285E+005  0.1043930E+01  0.7957747E-01            NaN
         13   -1    0    0    0    0  0.00000000000E+00  0.00000000000E+00  0.74505805969E-08  0.10566000000E+00  0.10566000000E+00 0. -1.
     999900   -1    0    0    0    0 -0.00000000000E+00 -0.00000000000E+00 -0.74505805969E-08  0.93827000000E+00  0.93827000000E+00 0. -1.
     999902    2    1    2    0    0 -0.18871059157E-01 -0.14111540333E-01 -0.38652261381E-02  0.10200512978E+01  0.10197717675E+01 0.  0.
     999903    2    3    3    0    0  0.84978041965E-02 -0.67118848781E-01 -0.11099359157E+00  0.13154957239E+00  0.20212869360E-01 0.  0.
         14    1    1    2    0    0  0.18871059157E-01  0.14111540333E-01  0.38652261381E-02  0.23878702171E-01  0.00000000000E+00 0. -1.
     999901    1    3    3    0    0 -0.27368863353E-01  0.53007308448E-01  0.10712836543E+00  0.88850172544E+00  0.88000000000E+00 0.  1.
        -11    1    4    4    0    0 -0.15051335844E-02 -0.51160723923E-01 -0.73209257942E-01  0.89328280342E-01  0.51100000000E-03 0. -1.
         11    1    4    4    0    0  0.10002937781E-01 -0.15958124858E-01 -0.37784333630E-01  0.42221292047E-01  0.51100000000E-03 0.  1.
</event>
<event>
 8    1  0.1123285E+005  0.1043930E+01  0.7957747E-01            NaN
         13   -1    0    0    0    0  0.00000000000E+00  0.00000000000E+00  0.74505805969E-08  0.10566000000E+00  0.10566000000E+00 0.  1.
     999900   -1    0    0    0    0 -0.00000000000E+00 -0.00000000000E+00 -0.74505805969E-08  0.93827000000E+00  0.93827000000E+00 0. -1.
     999902    2    1    2    0    0 -0.19396941862E-01  0.55976959513E-02 -0.16977650949E-01  0.10175516721E+01  0.10172097075E+01 0.  0.
     999903    2    3    3    0    0  0.10055410236E+00  0.37620709603E-01 -0.65911299090E-01  0.12749087169E+00  0.19574925928E-01 0.  0.
         14    1    1    2    0    0  0.19396941862E-01 -0.55976959513E-02  0.16977650949E-01  0.26378327948E-01  0.00000000000E+00 0.  1.
     999901    1    3    3    0    0 -0.11995104422E+00 -0.32023013651E-01  0.48933648141E-01  0.89006080036E+00  0.88000000000E+00 0.  1.
        -11    1    4    4    0    0  0.55046866742E-01  0.30720967893E-01 -0.36005215394E-01  0.72598705656E-01  0.51100000000E-03 0.  1.
         11    1    4    4    0    0  0.45507235619E-01  0.68997417095E-02 -0.29906083696E-01  0.54892166038E-01  0.51100000000E-03 0. -1.
</event>
<event>
 8    1  0.1123285E+005  0.1043930E+01  0.7957747E-01            NaN
         13   -1    0    0    0    0  0.00000000000E+00  0.00000000000E+00  0.74505805969E-08  0.10566000000E+00  0.10566000000E+00 0.  1.
     999900   -1    0    0    0    0 -0.00000000000E+00 -0.00000000000E+00 -0.74505805969E-08  0.93827000000E+00  0.93827000000E+00 0. -1.
     999902    2    1    2    0    0  0.49378582887E-02  0.15600755016E-01 -0.16733145574E-01  0.10205256380E+01  0.10202572291E+01 0.  0.
     999903    2    3    3    0    0 -0.83612115918E-01  0.72397014355E-01  0.66014229203E-01  0.13040539831E+00  0.20380771225E-01 0.  0.
         14    1    1    2    0    0 -0.49378582887E-02 -0.15600755016E-01  0.16733145574E-01  0.23404362036E-01  0.00000000000E+00 0.  1.
     999901    1    3    3    0    0  0.88549974207E-01 -0.56796259339E-01 -0.82747374776E-01  0.89012023965E+00  0.88000000000E+00 0. -1.
        -11    1    4    4    0    0 -0.46471869568E-01  0.50814525368E-01  0.33802512633E-01  0.76711287505E-01  0.51100000000E-03 0.  1.
         11    1    4    4    0    0 -0.37140246350E-01  0.21582488987E-01  0.32211716570E-01  0.53694110806E-01  0.51100000000E-03 0. -1.
</event>
<event>
 8    1  0.1123285E+005  0.1043930E+01  0.7957747E-01            NaN
         13   -1    0    0    0    0  0.00000000000E+00  0.00000000000E+00  0.74505805969E-08  0.10566000000E+00  0.10566000000E+00 0. -1.
     999900   -1    0    0    0    0 -0.00000000000E+00 -0.00000000000E+00 -0.74505805969E-08  0.93827000000E+00  0.93827000000E+00 0.  1.
     999902    2    1    2    0    0 -0.19533922029E-01 -0.28281754657E-03  0.13838228820E-01  0.10199894346E+01  0.10197084368E+01 0.  0.
     999903    2    3    3    0    0 -0.43899094953E-01  0.46621980904E-01 -0.11103313348E+00  0.12960379965E+00  0.19184590480E-01 0.  0.
         14    1    1    2    0    0  0.19533922029E-01  0.28281754657E-03 -0.13838228820E-01  0.23940565417E-01  0.00000000000E+00 0.  1.
     999901    1    3    3    0    0  0.24365172923E-01 -0.46904798450E-01  0.12487136230E+00  0.89038563493E+00  0.88000000000E+00 0. -1.
        -11    1    4    4    0    0 -0.12241773196E-01  0.22798572187E-01 -0.31684502406E-01  0.40912158565E-01  0.51100000000E-03 0. -1.
         11    1    4    4    0    0 -0.31657321756E-01  0.23823408717E-01 -0.79348631078E-01  0.88691641086E-01  0.51100000000E-03 0.  1.
</event>
<event>
 8    1  0.1123285E+005  0.1043930E+01  0.7957747E-01            NaN
         13   -1    0    0    0    0  0.00000000000E+00  0.00000000000E+00  0.74505805969E-08  0.10566000000E+00  0.10566000000E+00 0. -1.
     999900   -1    0    0    0    0 -0.00000000000E+00 -0.00000000000E+00 -0.74505805969E-08  0.93827000000E+00  0.93827000000E+00 0.  1.
     999902    2    1    2    0    0 -0.17420919741E-01  0.30714532728E-02  0.17963839332E-01  0.10187184591E+01  0.10184064401E+01 0.  0.
     999903    2    3    3    0    0  0.99091204480E-01 -0.28241386662E-01  0.74387886960E-01  0.12869641322E+00  0.20311728740E-01 0.  0.
         14    1    1    2    0    0  0.17420919741E-01 -0.30714532728E-02 -0.17963839332E-01  0.25211540877E-01  0.00000000000E+00 0.  1.
     999901    1    3    3    0    0 -0.11651212422E+00  0.31312839935E-01 -0.56424047628E-01  0.89002204590E+00  0.88000000000E+00 0.  1.
        -11    1    4    4    0    0  0.32142684505E-01 -0.14978683583E-01  0.16124848614E-01  0.38958760156E-01  0.51100000000E-03 0.  1.
         11    1    4    4    0    0  0.66948519975E-01 -0.13262703079E-01  0.58263038346E-01  0.89737653068E-01  0.51100000000E-03 0. -1.
</event>
<event>
 8    1  0.1123285E+005  0.1043930E+01  0.7957747E-01            NaN
         13   -1    0    0    0    0  0.00000000000E+00  0.00000000000E+00  0.74505805969E-08  0.10566000000E+00  0.10566000000E+00 0. -1.
     999900   -1    0    0    0    0 -0.00000000000E+00 -0.00000000000E+00 -0.74505805969E-08  0.93827000000E+00  0.93827000000E+00 0. -1.
     999902    2    1    2    0    0 -0.36500522576E-02  0.81938035114E-02  0.22258578785E-01  0.10199319662E+01  0.10196496016E+01 0.  0.
     999903    2    3    3    0    0  0.14680879834E-01  0.12169662278E-01  0.13037898676E+00  0.13311639734E+00  0.18912063358E-01 0.  0.
         14    1    1    2    0    0  0.36500522576E-02 -0.81938035114E-02 -0.22258578785E-01  0.23998033815E-01  0.00000000000E+00 0.  1.
     999901    1    3    3    0    0 -0.18330932091E-01 -0.39758587666E-02 -0.10812040797E+00  0.88681556884E+00  0.88000000000E+00 0. -1.
        -11    1    4    4    0    0  0.17313483007E-01  0.14830642914E-01  0.10417209415E+00  0.10663859988E+00  0.51100000000E-03 0.  1.
         11    1    4    4    0    0 -0.26326031731E-02 -0.26609806364E-02  0.26206892607E-01  0.26477797464E-01  0.51100000000E-03 0. -1.
</event>
<event>
 8    1  0.1123285E+005  0.1043930E+01  0.7957747E-01            NaN
         13   -1    0    0    0    0  0.00000000000E+00  0.00000000000E+00  0.74505805969E-08  0.10566000000E+00  0.10566000000E+00 0. -1.
     999900   -1    0    0    0    0 -0.00000000000E+00 -0.00000000000E+00 -0.74505805969E-08  0.93827000000E+00  0.93827000000E+00 0.  1.
     999902    2    1    2    0    0 -0.56238845365E-02  0.22112614038E-01  0.23417652254E-02  0.10209935739E+01  0.10207359102E+01 0.  0.
     999903    2    3    3    0    0 -0.98276417762E-01 -0.82571351642E-01 -0.11972183226E-02  0.12995162823E+00  0.20241293112E-01 0.  0.
         14    1    1    2    0    0  0.56238845365E-02 -0.22112614038E-01 -0.23417652254E-02  0.22936426079E-01  0.00000000000E+00 0. -1.
     999901    1    3    3    0    0  0.92652533225E-01  0.10468396568E+00  0.35389835480E-02  0.89104194570E+00  0.88000000000E+00 0. -1.
        -11    1    4    4    0    0 -0.65464295926E-01 -0.66813626955E-01 -0.11779041098E-02  0.93548294303E-01  0.51100000000E-03 0. -1.
         11    1    4    4    0    0 -0.32812121835E-01 -0.15757724688E-01 -0.19314212754E-04  0.36403333923E-01  0.51100000000E-03 0.  1.
</event>
<event>
 8    1  0.1123285E+005  0.1043930E+01  0.7957747E-01            NaN
         13   -1    0    0    0    0  0.00000000000E+00  0.00000000000E+00  0.74505805969E-08  0.10566000000E+00  0.10566000000E+00 0.  1.
     999900   -1    0    0    0    0 -0.00000000000E+00 -0.00000000000E+00 -0.74505805969E-08  0.93827000000E+00  0.93827000000E+00 0. -1.
     999902    2    1    2    0    0  0.11847172283E-01  0.11598408262E-04 -0.20149413451E-01  0.10205557730E+01  0.10202880629E+01 0.  0.
     999903    2    3    3    0    0 -0.61630593052E-01 -0.10643927660E+00 -0.40082570631E-01  0.13087712228E+00  0.19863510880E-01 0.  0.
         14    1    1    2    0    0 -0.11847172283E-01 -0.11598408262E-04  0.20149413451E-01  0.23374227004E-01  0.00000000000E+00 0.  1.
     999901    1    3    3    0    0  0.73477765335E-01  0.10645087501E+00  0.19933157180E-01  0.88967865072E+00  0.88000000000E+00 0.  1.
        -11    1    4    4    0    0 -0.34326111545E-01 -0.60464125105E-01 -0.12277784569E-01  0.70605930866E-01  0.51100000000E-03 0. -1.
         11    1    4    4    0    0 -0.27304481507E-01 -0.45975151494E-01 -0.27804786062E-01  0.60271191412E-01  0.51100000000E-03 0.  1.
</event>
<event>
 8    1  0.1123285E+005  0.1043930E+01  0.7957747E-01            NaN
         13   -1    0    0    0    0  0.00000000000E+00  0.00000000000E+00  0.74505805969E-08  0.10566000000E+00  0.10566000000E+00 0.  1.
     999900   -1    0    0    0    0 -0.00000000000E+00 -0.00000000000E+00 -0.74505805969E-08  0.93827000000E+00  0.93827000000E+00 0.  1.
     999902    2    1    2    0    0 -0.13932009435E-01 -0.15909362450E-01 -0.10441493254E-01  0.10203453974E+01  0.10200727898E+01 0.  0.
     999903    2    3    3    0    0  0.50811626435E-01  0.11385584768E+00 -0.22550494494E-01  0.12839395470E+00  0.20772755466E-01 0.  0.
         14    1    1    2    0    0  0.13932009435E-01  0.15909362450E-01  0.10441493254E-01  0.23584602643E-01  0.00000000000E+00 0.  1.
     999901    1    3    3    0    0 -0.64743635870E-01 -0.12976521013E+00  0.12109001240E-01  0.89195144266E+00  0.88000000000E+00 0. -1.
        -11    1    4    4    0    0  0.23119606450E-01  0.30257534502E-01 -0.10520171232E-01  0.39509109333E-01  0.51100000000E-03 0. -1.
         11    1    4    4    0    0  0.27692019985E-01  0.83598313179E-01 -0.12030323262E-01  0.88884845367E-01  0.51100000000E-03 0.  1.
</event>
<event>
 8    1  0.1123285E+005  0.1043930E+01  0.7957747E-01            NaN
         13   -1    0    0    0    0  0.00000000000E+00  0.00000000000E+00  0.74505805969E-08  0.10566000000E+00  0.10566000000E+00 0. -1.
     999900   -1    0    0    0    0 -0.00000000000E+00 -0.00000000000E+00 -0.74505805969E-08  0.93827000000E+00  0.93827000000E+00 0. -1.
     999902    2    1    2    0    0 -0.15459213432E-01  0.10695155132E-01  0.16089352413E-01  0.10191864981E+01  0.10188860962E+01 0.  0.
     999903    2    3    3    0    0  0.98590626116E-01 -0.53810108280E-01  0.59189659385E-01  0.12844190435E+00  0.19449105464E-01 0.  0.
         14    1    1    2    0    0  0.15459213432E-01 -0.10695155132E-01 -0.16089352413E-01  0.24743501860E-01  0.00000000000E+00 0.  1.
     999901    1    3    3    0    0 -0.11404983955E+00  0.64505263413E-01 -0.43100306972E-01  0.89074459379E+00  0.88000000000E+00 0.  1.
        -11    1    4    4    0    0  0.31203309548E-01 -0.13035771805E-01  0.27309696222E-01  0.43470202461E-01  0.51100000000E-03 0.  1.
         11    1    4    4    0    0  0.67387316568E-01 -0.40774336475E-01  0.31879963163E-01  0.84971701886E-01  0.51100000000E-03 0. -1.
</event>
<event>
 7    1  0.1123285E+005  0.1043930E+01  0.7957747E-01            NaN
         13   -1    0    0    0    0  0.00000000000E+00  0.00000000000E+00  0.74505805969E-08  0.10566000000E+00  0.10566000000E+00 0.  1.
     999900   -1    0    0    0    0 -0.00000000000E+00 -0.00000000000E+00 -0.74505805969E-08  0.93827000000E+00  0.93827000000E+00 0. -1.
     999903    2    1    2    0    0  0.81115796811E-02 -0.43669579614E-01 -0.10379524669E+00  0.11466536455E+00  0.20046513024E-01 0.  0.
         14    1    1    2    0    0  0.34652772426E-01  0.23467434164E-01 -0.42385783476E-03  0.41853491593E-01  0.00000000000E+00 0. -1.
     999901    1    1    2    0    0 -0.42764352107E-01  0.20202145450E-01  0.10421910452E+00  0.88741114386E+00  0.88000000000E+00 0.  1.
        -11    1    3    3    0    0  0.22672298229E-02 -0.14203329380E-01 -0.14411691574E-01  0.20367446369E-01  0.51100000000E-03 0. -1.
         11    1    3    3    0    0  0.58443498582E-02 -0.29466250234E-01 -0.89383555112E-01  0.94297918183E-01  0.51100000000E-03 0.  1.
</event>
<event>
 8    1  0.1123285E+005  0.1043930E+01  0.7957747E-01            NaN
         13   -1    0    0    0    0  0.00000000000E+00  0.00000000000E+00  0.74505805969E-08  0.10566000000E+00  0.10566000000E+00 0.  1.
     999900   -1    0    0    0    0 -0.00000000000E+00 -0.00000000000E+00 -0.74505805969E-08  0.93827000000E+00  0.93827000000E+00 0.  1.
     999902    2    1    2    0    0  0.10215531002E-01 -0.20909291375E-01 -0.30691165694E-02  0.10204571430E+01  0.10201871425E+01 0.  0.
     999903    2    3    3    0    0  0.32908062804E-01  0.84109463863E-01 -0.90753737389E-01  0.12959661369E+00  0.20042427994E-01 0.  0.
         14    1    1    2    0    0 -0.10215531002E-01  0.20909291375E-01  0.30691165694E-02  0.23472857005E-01  0.00000000000E+00 0. -1.
     999901    1    3    3    0    0 -0.22692531802E-01 -0.10501875524E+00  0.87684620820E-01  0.89086052931E+00  0.88000000000E+00 0. -1.
        -11    1    4    4    0    0  0.25116409708E-01  0.40233394325E-01 -0.39935284620E-01  0.62005226669E-01  0.51100000000E-03 0. -1.
         11    1    4    4    0    0  0.77916530961E-02  0.43876069538E-01 -0.50818452769E-01  0.67591387017E-01  0.51100000000E-03 0.  1.
</event>
<event>
 7    1  0.1123285E+005  0.1043930E+01  0.7957747E-01            NaN
         13   -1    0    0    0    0  0.00000000000E+00  0.00000000000E+00  0.74505805969E-08  0.10566000000E+00  0.10566000000E+00 0.  1.
     999900   -1    0    0    0    0 -0.00000000000E+00 -0.00000000000E+00 -0.74505805969E-08  0.93827000000E+00  0.93827000000E+00 0.  1.
     999902    2    1    2    0    0  0.56963269828E-02  0.16903762392E-01 -0.28954872236E-03  0.10260899002E+01  0.10259348001E+01 0.  0.
         14    1    1    2    0    0 -0.56963269828E-02 -0.16903762392E-01  0.28954872236E-03  0.17840099847E-01  0.00000000000E+00 0.  1.
     999901    1    3    3    0    0 -0.64879727825E-01 -0.99775295793E-01 -0.20099710386E-01  0.88823898084E+00  0.88000000000E+00 0.  1.
        -11    1    3    3    0    0  0.25467266916E-01  0.41814777214E-01  0.52868904093E-02  0.49247026396E-01  0.51100000000E-03 0. -1.
         11    1    3    3    0    0  0.45108787892E-01  0.74864280971E-01  0.14523271254E-01  0.88603892912E-01  0.51100000000E-03 0.  1.
</event>
<event>
 8    1  0.1123285E+005  0.1043930E+01  0.7957747E-01            NaN
         13   -1    0    0    0    0  0.00000000000E+00  0.00000000000E+00  0.74505805969E-08  0.10566000000E+00  0.10566000000E+00 0. -1.
     999900   -1    0    0    0    0 -0.00000000000E+00 -0.00000000000E+00 -0.74505805969E-08  0.93827000000E+00  0.93827000000E+00 0. -1.
     999902    2    1    2    0    0  0.15084833034E-01  0.16957892077E-01  0.26618556685E-02  0.10210781343E+01  0.10208223883E+01 0.  0.
     999903    2    3    3    0    0  0.54001507917E-01 -0.68886740875E-02 -0.11800896714E+00  0.13167124552E+00  0.21156178366E-01 0.  0.
         14    1    1    2    0    0 -0.15084833034E-01 -0.16957892077E-01 -0.26618556685E-02  0.22851865721E-01  0.00000000000E+00 0.  1.
     999901    1    3    3    0    0 -0.38916674884E-01  0.23846566164E-01  0.12067082281E+00  0.88940688876E+00  0.88000000000E+00 0.  1.
        -11    1    4    4    0    0  0.22710774902E-01 -0.12474444630E-01 -0.63251014828E-01  0.68354539448E-01  0.51100000000E-03 0. -1.
         11    1    4    4    0    0  0.31290733015E-01  0.55857705424E-02 -0.54757952309E-01  0.63316706068E-01  0.51100000000E-03 0.  1.
</event>
<event>
 8    1  0.1123285E+005  0.1043930E+01  0.7957747E-01            NaN
         13   -1    0    0    0    0  0.00000000000E+00  0.00000000000E+00  0.74505805969E-08  0.10566000000E+00  0.10566000000E+00 0.  1.
     999900   -1    0    0    0    0 -0.00000000000E+00 -0.00000000000E+00 -0.74505805969E-08  0.93827000000E+00  0.93827000000E+00 0.  1.
     999902    2    1    2    0    0 -0.25797472418E-01  0.13782128360E-01 -0.67544773826E-02  0.10139120119E+01  0.10134675566E+01 0.  0.
     999903    2    3    3    0    0  0.18110374844E-01  0.85864532210E-01 -0.88919100919E-01  0.12606360290E+00  0.16873704344E-01 0.  0.
         14    1    1    2    0    0  0.25797472418E-01 -0.13782128360E-01  0.67544773826E-02  0.30017988107E-01  0.00000000000E+00 0. -1.
     999901    1    3    3    0    0 -0.43907847262E-01 -0.72082403850E-01  0.82164623537E-01  0.88784840900E+00  0.88000000000E+00 0.  1.
        -11    1    4    4    0    0  0.15716432687E-01  0.43143654117E-01 -0.38419213290E-01  0.59872182337E-01  0.51100000000E-03 0. -1.
         11    1    4    4    0    0  0.23939421567E-02  0.42720878093E-01 -0.50499887630E-01  0.66191420560E-01  0.51100000000E-03 0.  1.
</event>
<event>
 8    1  0.1123285E+005  0.1043930E+01  0.7957747E-01            NaN
         13   -1    0    0    0    0  0.00000000000E+00  0.00000000000E+00  0.74505805969E-08  0.10566000000E+00  0.10566000000E+00 0. -1.
     999900   -1    0    0    0    0 -0.00000000000E+00 -0.00000000000E+00 -0.74505805969E-08  0.93827000000E+00  0.93827000000E+00 0.  1.
     999902    2    1    2    0    0  0.76588691199E-02  0.86772880426E-02 -0.21063115987E-01  0.10198965138E+01  0.10196133043E+01 0.  0.
     999903    2    3    3    0    0 -0.66436668939E-01 -0.56286139647E-01  0.90581192276E-01  0.12738609522E+00  0.20983430749E-01 0.  0.
         14    1    1    2    0    0 -0.76588691199E-02 -0.86772880426E-02  0.21063115987E-01  0.24033486203E-01  0.00000000000E+00 0. -1.
     999901    1    3    3    0    0  0.74095538059E-01  0.64963427689E-01 -0.11164430826E+00  0.89251041857E+00  0.88000000000E+00 0.  1.
        -11    1    4    4    0    0  0.27863476179E-03 -0.23549137279E-02  0.78054639248E-02  0.81737166624E-02  0.51100000000E-03 0. -1.
         11    1    4    4    0    0 -0.66715303701E-01 -0.53931225919E-01  0.82775728351E-01  0.11921237856E+00  0.51100000000E-03 0.  1.
</event>
<event>
 8    1  0.1123285E+005  0.1043930E+01  0.7957747E-01            NaN
         13   -1    0    0    0    0  0.00000000000E+00  0.00000000000E+00  0.74505805969E-08  0.10566000000E+00  0.10566000000E+00 0.  1.
     999900   -1    0    0    0    0 -0.00000000000E+00 -0.00000000000E+00 -0.74505805969E-08  0.93827000000E+00  0.93827000000E+00 0. -1.
     999902    2    1    2    0    0  0.17498789039E-02  0.12569243453E-01  0.18721378979E-01  0.10213127944E+01  0.10210623321E+01 0.  0.
     999903    2    3    3    0    0 -0.12753904344E+00 -0.13521458587E-01  0.95533216601E-02  0.13143617183E+00  0.27113905373E-01 0.  0.
         14    1    1    2    0    0 -0.17498789039E-02 -0.12569243453E-01 -0.18721378979E-01  0.22617205575E-01  0.00000000000E+00 0. -1.
     999901    1    3    3    0    0  0.12928892235E+00  0.26090702040E-01  0.91680573186E-02  0.88987662260E+00  0.88000000000E+00 0. -1.
        -11    1    4    4    0    0 -0.11642805743E+00 -0.91369317541E-02  0.10973311343E-02  0.11679229998E+00  0.51100000000E-03 0.  1.
         11    1    4    4    0    0 -0.11110986012E-01 -0.43845268325E-02  0.84559905258E-02  0.14643871840E-01  0.51100000000E-03 0. -1.
</event>
<event>
 8    1  0.1123285E+005  0.1043930E+01  0.7957747E-01            NaN
         13   -1    0    0    0    0  0.00000000000E+00  0.00000000000E+00  0.74505805969E-08  0.10566000000E+00  0.10566000000E+00 0.  1.
     999900   -1    0    0    0    0 -0.00000000000E+00 -0.00000000000E+00 -0.74505805969E-08  0.93827000000E+00  0.93827000000E+00 0.  1.
     999902    2    1    2    0    0 -0.76851544413E-02 -0.18328866255E-01 -0.15231040057E-01  0.10188901614E+01  0.10185824304E+01 0.  0.
     999903    2    3    3    0    0 -0.10671657365E+00 -0.62984035607E-01  0.36795113707E-01  0.13068521498E+00  0.19217939233E-01 0.  0.
         14    1    1    2    0    0  0.76851544413E-02  0.18328866255E-01  0.15231040057E-01  0.25039838622E-01  0.00000000000E+00 0. -1.
     999901    1    3    3    0    0  0.99031419204E-01  0.44655169352E-01 -0.52026153764E-01  0.88820494640E+00  0.88000000000E+00 0. -1.
        -11    1    4    4    0    0 -0.23479410375E-01 -0.54043185233E-02  0.90039528921E-02  0.25725894716E-01  0.51100000000E-03 0. -1.
         11    1    4    4    0    0 -0.83237163270E-01 -0.57579717084E-01  0.27791160815E-01  0.10495932026E+00  0.51100000000E-03 0.  1.
</event>
<event>
 8    1  0.1123285E+005  0.1043930E+01  0.7957747E-01            NaN
         13   -1    0    0    0    0  0.00000000000E+00  0.00000000000E+00  0.74505805969E-08  0.10566000000E+00  0.10566000000E+00 0. -1.
     999900   -1    0    0    0    0 -0.00000000000E+00 -0.00000000000E+00 -0.74505805969E-08  0.93827000000E+00  0.93827000000E+00 0.  1.
     999902    2    1    2    0    0 -0.17576366983E-01 -0.12918967976E-02  0.15328951945E-01  0.10205724650E+01  0.10203051415E+01 0.  0.
     999903    2    3    3    0    0 -0.27964274665E-01 -0.42497539806E-01 -0.11749716202E+00  0.12959065250E+00  0.20002814481E-01 0.  0.
         14    1    1    2    0    0  0.17576366983E-01  0.12918967976E-02 -0.15328951945E-01  0.23357535003E-01  0.00000000000E+00 0.  1.
     999901    1    3    3    0    0  0.10387907682E-01  0.41205643009E-01  0.13282611396E+00  0.89098181249E+00  0.88000000000E+00 0. -1.
        -11    1    4    4    0    0 -0.24562780867E-01 -0.28056105616E-01 -0.64006172918E-01  0.74077841213E-01  0.51100000000E-03 0. -1.
         11    1    4    4    0    0 -0.34014937984E-02 -0.14441434190E-01 -0.53490989101E-01  0.55512811291E-01  0.51100000000E-03 0.  1.
</event>
<event>
 8    1  0.1123285E+005  0.1043930E+01  0.7957747E-01            NaN
         13   -1    0    0    0    0  0.00000000000E+00  0.00000000000E+00  0.74505805969E-08  0.10566000000E+00  0.10566000000E+00 0.  1.
     999900   -1    0    0    0    0 -0.00000000000E+00 -0.00000000000E+00 -0.74505805969E-08  0.93827000000E+00  0.93827000000E+00 0.  1.
     999902    2    1    2    0    0  0.21219794963E-01 -0.46955522425E-02  0.11638376521E-01  0.10192768112E+01  0.10189786250E+01 0.  0.
     999903    2    3    3    0    0  0.46519067651E-01  0.10978368606E+00  0.49570941713E-01  0.13069117736E+00  0.20159965162E-01 0.  0.
         14    1    1    2    0    0 -0.21219794963E-01  0.46955522425E-02 -0.11638376521E-01  0.24653188783E-01  0.00000000000E+00 0.  1.
     999901    1    3    3    0    0 -0.25299272687E-01 -0.11447923831E+00 -0.37932565193E-01  0.88858563386E+00  0.88000000000E+00 0. -1.
        -11    1    4    4    0    0  0.34812625106E-01  0.92778074886E-01  0.47631306510E-01  0.10994859038E+00  0.51100000000E-03 0. -1.
         11    1    4    4    0    0  0.11706442545E-01  0.17005611178E-01  0.19396352030E-02  0.20742586972E-01  0.51100000000E-03 0.  1.
</event>
<event>
 8    1  0.1123285E+005  0.1043930E+01  0.7957747E-01            NaN
         13   -1    0    0    0    0  0.00000000000E+00  0.00000000000E+00  0.74505805969E-08  0.10566000000E+00  0.10566000000E+00 0. -1.
     999900   -1    0    0    0    0 -0.00000000000E+00 -0.00000000000E+00 -0.74505805969E-08  0.93827000000E+00  0.93827000000E+00 0. -1.
     999902    2    1    2    0    0 -0.25299250774E-02 -0.11735827422E-01 -0.19356350200E-01  0.10211528523E+01  0.10208987948E+01 0.  0.
     999903    2    3    3    0    0  0.18475950181E-01  0.10356506846E+00 -0.76396384668E-01  0.13155231892E+00  0.20062923059E-01 0.  0.
         14    1    1    2    0    0  0.25299250774E-02  0.11735827422E-01  0.19356350200E-01  0.22777147741E-01  0.00000000000E+00 0. -1.
     999901    1    3    3    0    0 -0.21005875259E-01 -0.11530089588E+00  0.57040034469E-01  0.88960053334E+00  0.88000000000E+00 0.  1.
        -11    1    4    4    0    0  0.10073282153E-01  0.18230735790E-01 -0.10042591334E-01  0.23128888916E-01  0.51100000000E-03 0.  1.
         11    1    4    4    0    0  0.84026680283E-02  0.85334332672E-01 -0.66353793335E-01  0.10842343000E+00  0.51100000000E-03 0. -1.
</event>
<event>
 8    1  0.1123285E+005  0.1043930E+01  0.7957747E-01            NaN
         13   -1    0    0    0    0  0.00000000000E+00  0.00000000000E+00  0.74505805969E-08  0.10566000000E+00  0.10566000000E+00 0.  1.
     999900   -1    0    0    0    0 -0.00000000000E+00 -0.00000000000E+00 -0.74505805969E-08  0.93827000000E+00  0.93827000000E+00 0. -1.
     999902    2    1    2    0    0  0.20866616493E-01 -0.73517096657E-02 -0.88214169931E-02  0.10201123444E+01  0.10198342584E+01 0.  0.
     999903    2    3    3    0    0  0.93614698741E-01  0.67254399168E-01  0.59911153921E-01  0.13130273532E+00  0.19083917605E-01 0.  0.
         14    1    1    2    0    0 -0.20866616493E-01  0.73517096657E-02  0.88214169931E-02  0.23817655566E-01  0.00000000000E+00 0.  1.
     999901    1    3    3    0    0 -0.72748082247E-01 -0.74606108833E-01 -0.68732570914E-01  0.88880960911E+00  0.88000000000E+00 0. -1.
        -11    1    4    4    0    0  0.44910884063E-01  0.21659838905E-01  0.21339567002E-01  0.54238126531E-01  0.51100000000E-03 0.  1.
         11    1    4    4    0    0  0.48703814678E-01  0.45594560263E-01  0.38571586919E-01  0.77064608791E-01  0.51100000000E-03 0. -1.
</event>
<event>
 8    1  0.1123285E+005  0.1043930E+01  0.7957747E-01            NaN
         13   -1    0    0    0    0  0.00000000000E+00  0.00000000000E+00  0.74505805969E-08  0.10566000000E+00  0.10566000000E+00 0.  1.
     999900   -1    0    0    0    0 -0.00000000000E+00 -0.00000000000E+00 -0.74505805969E-08  0.93827000000E+00  0.93827000000E+00 0. -1.
     999902    2    1    2    0    0  0.15150816611E-01  0.10222977583E-01  0.20393714162E-02  0.10255393624E+01  0.10253744527E+01 0.  0.
     999903    2    3    3    0    0 -0.68662287987E-01  0.26925327161E-01 -0.10991710919E+00  0.13433912761E+00  0.22929179665E-01 0.  0.
         14    1    1    2    0    0 -0.15150816611E-01 -0.10222977583E-01 -0.20393714162E-02  0.18390637575E-01  0.00000000000E+00 0. -1.
     999901    1    3    3    0    0  0.83813104598E-01 -0.16702349578E-01  0.11195648061E+00  0.89120023481E+00  0.88000000000E+00 0.  1.
        -11    1    4    4    0    0 -0.36032997642E-01  0.29429216045E-02 -0.60098132204E-01  0.70136184114E-01  0.51100000000E-03 0.  1.
         11    1    4    4    0    0 -0.32629290345E-01  0.23982405556E-01 -0.49818976986E-01  0.64202943496E-01  0.51100000000E-03 0. -1.
</event>
<event>
 8    1  0.1123285E+005  0.1043930E+01  0.7957747E-01            NaN
         13   -1    0    0    0    0  0.00000000000E+00  0.00000000000E+00  0.74505805969E-08  0.10566000000E+00  0.10566000000E+00 0.  1.
     999900   -1    0    0    0    0 -0.00000000000E+00 -0.00000000000E+00 -0.74505805969E-08  0.93827000000E+00  0.93827000000E+00 0. -1.
     999902    2    1    2    0    0  0.15609232683E-01  0.16155626400E-01 -0.13934329566E-02  0.10214223554E+01  0.10211743407E+01 0.  0.
     999903    2    3    3    0    0  0.11403426520E+00  0.31036367683E-01 -0.59025286466E-01  0.13393694482E+00  0.22091876012E-01 0.  0.
         14    1    1    2    0    0 -0.15609232683E-01 -0.16155626400E-01  0.13934329566E-02  0.22507644584E-01  0.00000000000E+00 0. -1.
     999901    1    3    3    0    0 -0.98425032517E-01 -0.14880741283E-01  0.57631853509E-01  0.88748541060E+00  0.88000000000E+00 0.  1.
        -11    1    4    4    0    0  0.45446803352E-01  0.34440473974E-02 -0.29697489893E-01  0.54401060876E-01  0.51100000000E-03 0.  1.
         11    1    4    4    0    0  0.68587461848E-01  0.27592320286E-01 -0.29327796572E-01  0.79535883941E-01  0.51100000000E-03 0. -1.
</event>
<event>
 8    1  0.1123285E+005  0.1043930E+01  0.7957747E-01            NaN
         13   -1    0    0    0    0  0.00000000000E+00  0.00000000000E+00  0.74505805969E-08  0.10566000000E+00  0.10566000000E+00 0. -1.
     999900   -1    0    0    0    0 -0.00000000000E+00 -0.00000000000E+00 -0.74505805969E-08  0.93827000000E+00  0.93827000000E+00 0.  1.
     999902    2    1    2    0    0  0.12361712684E-01  0.11596078311E-01 -0.15891132865E-01  0.10206962083E+01  0.10204317422E+01 0.  0.
     999903    2    3    3    0    0 -0.12130090566E-02  0.12573806299E+00 -0.38031093569E-01  0.13294464193E+00  0.20405437138E-01 0.  0.
         14    1    1    2    0    0 -0.12361712684E-01 -0.11596078311E-01  0.15891132865E-01  0.23233791693E-01  0.00000000000E+00 0. -1.
     999901    1    3    3    0    0  0.13574721741E-01 -0.11414198468E+00  0.22139960704E-01  0.88775156637E+00  0.88000000000E+00 0.  1.
        -11    1    4    4    0    0  0.78524039255E-02  0.50404772441E-01 -0.95768980112E-02  0.51906448817E-01  0.51100000000E-03 0. -1.
         11    1    4    4    0    0 -0.90654129821E-02  0.75333290552E-01 -0.28454195558E-01  0.81038193118E-01  0.51100000000E-03 0.  1.
</event>
<event>
 8    1  0.1123285E+005  0.1043930E+01  0.7957747E-01            NaN
         13   -1    0    0    0    0  0.00000000000E+00  0.00000000000E+00  0.74505805969E-08  0.10566000000E+00  0.10566000000E+00 0. -1.
     999900   -1    0    0    0    0 -0.00000000000E+00 -0.00000000000E+00 -0.74505805969E-08  0.93827000000E+00  0.93827000000E+00 0. -1.
     999902    2    1    2    0    0  0.18576681551E-02 -0.23028092166E-01 -0.12638475359E-02  0.10207925570E+01  0.10205303048E+01 0.  0.
     999903    2    3    3    0    0 -0.47284999714E-01 -0.46474918719E-01 -0.11253719628E+00  0.13211572390E+00  0.19853329343E-01 0.  0.
         14    1    1    2    0    0 -0.18576681551E-02  0.23028092166E-01  0.12638475359E-02  0.23137443039E-01  0.00000000000E+00 0. -1.
     999901    1    3    3    0    0  0.49142667869E-01  0.23446826553E-01  0.11127334875E+00  0.88867683306E+00  0.88000000000E+00 0.  1.
        -11    1    4    4    0    0 -0.16647606936E-01 -0.29155536851E-01 -0.47573017049E-01  0.58229212753E-01  0.51100000000E-03 0. -1.
         11    1    4    4    0    0 -0.30637392779E-01 -0.17319381868E-01 -0.64964179235E-01  0.73886511145E-01  0.51100000000E-03 0.  1.
</event>
<event>
 8    1  0.1123285E+005  0.1043930E+01  0.7957747E-01            NaN
         13   -1    0    0    0    0  0.00000000000E+00  0.00000000000E+00  0.74505805969E-08  0.10566000000E+00  0.10566000000E+00 0. -1.
     999900   -1    0    0    0    0 -0.00000000000E+00 -0.00000000000E+00 -0.74505805969E-08  0.93827000000E+00  0.93827000000E+00 0. -1.
     999902    2    1    2    0    0  0.32506131445E-02  0.13005496327E-01  0.17693549457E-01  0.10217315516E+01  0.10214903780E+01 0.  0.
     999903    2    3    3    0    0 -0.34425637232E-01  0.15472811818E-01 -0.12270969497E+00  0.12980181300E+00  0.19139200977E-01 0.  0.
         14    1    1    2    0    0 -0.32506131445E-02 -0.13005496327E-01 -0.17693549457E-01  0.22198448435E-01  0.00000000000E+00 0.  1.
     999901    1    3    3    0    0  0.37676250377E-01 -0.24673154905E-02  0.14040324443E+00  0.89192973856E+00  0.88000000000E+00 0.  1.
        -11    1    4    4    0    0 -0.36448510426E-01  0.13946017428E-01 -0.10731968659E+00  0.11419615390E+00  0.51100000000E-03 0. -1.
         11    1    4    4    0    0  0.20228731933E-02  0.15267943893E-02 -0.15390008380E-01  0.15605659102E-01  0.51100000000E-03 0.  1.
</event>
<event>
 8    1  0.1268088E+005  0.1043930E+01  0.7957747E-01            NaN
         13   -1    0    0    0    0  0.00000000000E+00  0.00000000000E+00  0.74505805969E-08  0.10566000000E+00  0.10566000000E+00 0. -1.
     999900   -1    0    0    0    0 -0.00000000000E+00 -0.00000000000E+00 -0.74505805969E-08  0.93827000000E+00  0.93827000000E+00 0.  1.
     999902    2    1    2    0    0 -0.85157561400E-02  0.21488418916E-01 -0.86509491995E-02  0.10192498628E+01  0.10189510163E+01 0.  0.
     999903    2    3    3    0    0  0.76645317944E-01 -0.98377928432E-01  0.10232304592E-01  0.12685032950E+00  0.20822691253E-01 0.  0.
         14    1    1    2    0    0  0.85157561400E-02 -0.21488418916E-01  0.86509491995E-02  0.24680137200E-01  0.00000000000E+00 0. -1.
     999901    1    3    3    0    0 -0.85161074084E-01  0.11986634735E+00 -0.18883253791E-01  0.89239953330E+00  0.88000000000E+00 0. -1.
        -11    1    4    4    0    0  0.46607549760E-01 -0.73896282939E-01  0.11207213473E-01  0.88083977440E-01  0.51100000000E-03 0.  1.
         11    1    4    4    0    0  0.30037768183E-01 -0.24481645493E-01 -0.97490888103E-03  0.38766352057E-01  0.51100000000E-03 0. -1.
</event>
<event>
 8    1  0.1123285E+005  0.1043930E+01  0.7957747E-01            NaN
         13   -1    0    0    0    0  0.00000000000E+00  0.00000000000E+00  0.74505805969E-08  0.10566000000E+00  0.10566000000E+00 0.  1.
     999900   -1    0    0    0    0 -0.00000000000E+00 -0.00000000000E+00 -0.74505805969E-08  0.93827000000E+00  0.93827000000E+00 0.  1.
     999902    2    1    2    0    0  0.15859735050E-01  0.64831317468E-02 -0.16552122929E-01  0.10201070076E+01  0.10198287954E+01 0.  0.
     999903    2    3    3    0    0  0.45855018069E-01  0.11339138197E+00  0.42804980279E-01  0.13114561549E+00  0.20164769739E-01 0.  0.
         14    1    1    2    0    0 -0.15859735050E-01 -0.64831317468E-02  0.16552122929E-01  0.23822992393E-01  0.00000000000E+00 0.  1.
     999901    1    3    3    0    0 -0.29995283019E-01 -0.10690825022E+00 -0.59357103208E-01  0.88896139211E+00  0.88000000000E+00 0.  1.
        -11    1    4    4    0    0  0.12199562720E-01  0.38484798529E-01  0.23749004086E-01  0.46842132365E-01  0.51100000000E-03 0.  1.
         11    1    4    4    0    0  0.33655455349E-01  0.74906583442E-01  0.19055976193E-01  0.84303483127E-01  0.51100000000E-03 0. -1.
</event>
<event>
 8    1  0.1123285E+005  0.1043930E+01  0.7957747E-01            NaN
         13   -1    0    0    0    0  0.00000000000E+00  0.00000000000E+00  0.74505805969E-08  0.10566000000E+00  0.10566000000E+00 0. -1.
     999900   -1    0    0    0    0 -0.00000000000E+00 -0.00000000000E+00 -0.74505805969E-08  0.93827000000E+00  0.93827000000E+00 0. -1.
     999902    2    1    2    0    0 -0.68864919131E-02  0.12160805347E-01  0.18800721078E-01  0.10205040300E+01  0.10202351196E+01 0.  0.
     999903    2    3    3    0    0  0.12576685327E+00  0.19905858641E-01  0.20606505753E-01  0.13052641416E+00  0.19974286555E-01 0.  0.
         14    1    1    2    0    0  0.68864919131E-02 -0.12160805347E-01 -0.18800721078E-01  0.23425970004E-01  0.00000000000E+00 0.  1.
     999901    1    3    3    0    0 -0.13265334518E+00 -0.77450532939E-02 -0.18057846747E-02  0.88997761584E+00  0.88000000000E+00 0.  1.
        -11    1    4    4    0    0  0.11557150773E+00  0.19992844469E-01  0.24094552165E-01  0.11973844743E+00  0.51100000000E-03 0.  1.
         11    1    4    4    0    0  0.10195345543E-01 -0.86985828045E-04 -0.34880464120E-02  0.10787966725E-01  0.51100000000E-03 0. -1.
</event>
<event>
 8    1  0.1123285E+005  0.1043930E+01  0.7957747E-01            NaN
         13   -1    0    0    0    0  0.00000000000E+00  0.00000000000E+00  0.74505805969E-08  0.10566000000E+00  0.10566000000E+00 0.  1.
     999900   -1    0    0    0    0 -0.00000000000E+00 -0.00000000000E+00 -0.74505805969E-08  0.93827000000E+00  0.93827000000E+00 0. -1.
     999902    2    1    2    0    0 -0.68164462091E-02  0.22090055184E-01 -0.49239144924E-02  0.10202935999E+01  0.10200197795E+01 0.  0.
     999903    2    3    3    0    0  0.54288597482E-01 -0.10960141797E+00  0.30078056449E-01  0.12771217029E+00  0.21118388252E-01 0.  0.
         14    1    1    2    0    0  0.68164462091E-02 -0.22090055184E-01  0.49239144924E-02  0.23636400126E-01  0.00000000000E+00 0. -1.
     999901    1    3    3    0    0 -0.61105043691E-01  0.13169147316E+00 -0.35001970941E-01  0.89258142958E+00  0.88000000000E+00 0.  1.
        -11    1    4    4    0    0  0.49946675846E-01 -0.84607957520E-01  0.19223065154E-01  0.10011475545E+00  0.51100000000E-03 0. -1.
         11    1    4    4    0    0  0.43419216363E-02 -0.24993460454E-01  0.10854991295E-01  0.27597414842E-01  0.51100000000E-03 0.  1.
</event>
<event>
 8    1  0.1123285E+005  0.1043930E+01  0.7957747E-01            NaN
         13   -1    0    0    0    0  0.00000000000E+00  0.00000000000E+00  0.74505805969E-08  0.10566000000E+00  0.10566000000E+00 0.  1.
     999900   -1    0    0    0    0 -0.00000000000E+00 -0.00000000000E+00 -0.74505805969E-08  0.93827000000E+00  0.93827000000E+00 0.  1.
     999902    2    1    2    0    0  0.29989473635E-02  0.11895469014E-01  0.29374468616E-01  0.10120967583E+01  0.10115960127E+01 0.  0.
     999903    2    3    3    0    0  0.54453832073E-01  0.10109263054E+00 -0.40939725125E-01  0.12330666803E+00  0.18534657013E-01 0.  0.
         14    1    1    2    0    0 -0.29989473635E-02 -0.11895469014E-01 -0.29374468616E-01  0.31833241664E-01  0.00000000000E+00 0. -1.
     999901    1    3    3    0    0 -0.51454884709E-01 -0.89197161526E-01  0.70314193741E-01  0.88879009031E+00  0.88000000000E+00 0. -1.
        -11    1    4    4    0    0  0.18646104494E-01  0.23571266825E-01 -0.17384613108E-01  0.34724166318E-01  0.51100000000E-03 0.  1.
         11    1    4    4    0    0  0.35807727579E-01  0.77521363714E-01 -0.23555112017E-01  0.88582501712E-01  0.51100000000E-03 0. -1.
</event>
<event>
 8    1  0.1123285E+005  0.1043930E+01  0.7957747E-01            NaN
         13   -1    0    0    0    0  0.00000000000E+00  0.00000000000E+00  0.74505805969E-08  0.10566000000E+00  0.10566000000E+00 0.  1.
     999900   -1    0    0    0    0 -0.00000000000E+00 -0.00000000000E+00 -0.74505805969E-08  0.93827000000E+00  0.93827000000E+00 0.  1.
     999902    2    1    2    0    0 -0.13286612664E-02  0.19027039018E-01 -0.11320147791E-01  0.10217502953E+01  0.10215095333E+01 0.  0.
     999903    2    3    3    0    0  0.11674633730E+00 -0.68871682676E-02 -0.58673627606E-01  0.13222480186E+00  0.19069957857E-01 0.  0.
         14    1    1    2    0    0  0.13286612664E-02 -0.19027039018E-01  0.11320147791E-01  0.22179704699E-01  0.00000000000E+00 0.  1.
     999901    1    3    3    0    0 -0.11807499856E+00  0.25914207286E-01  0.47353479815E-01  0.88952549344E+00  0.88000000000E+00 0. -1.
        -11    1    4    4    0    0  0.41937243026E-01 -0.11654909390E-01 -0.21219710097E-01  0.48426299498E-01  0.51100000000E-03 0.  1.
         11    1    4    4    0    0  0.74809094270E-01  0.47677411221E-02 -0.37453917509E-01  0.83798502365E-01  0.51100000000E-03 0. -1.
</event>
<event>
 8    1  0.1123285E+005  0.1043930E+01  0.7957747E-01            NaN
         13   -1    0    0    0    0  0.00000000000E+00  0.00000000000E+00  0.74505805969E-08  0.10566000000E+00  0.10566000000E+00 0. -1.
     999900   -1    0    0    0    0 -0.00000000000E+00 -0.00000000000E+00 -0.74505805969E-08  0.93827000000E+00  0.93827000000E+00 0. -1.
     999902    2    1    2    0    0 -0.53188542852E-02 -0.18276465633E-01  0.13597906417E-01  0.10205372134E+01  0.10202690731E+01 0.  0.
     999903    2    3    3    0    0  0.94088425000E-01  0.16779210387E-01  0.86185908341E-01  0.13127924990E+00  0.25924062886E-01 0.  0.
         14    1    1    2    0    0  0.53188542852E-02  0.18276465633E-01 -0.13597906417E-01  0.23392786620E-01  0.00000000000E+00 0.  1.
     999901    1    3    3    0    0 -0.99407279285E-01 -0.35055676019E-01 -0.72588001924E-01  0.88925796348E+00  0.88000000000E+00 0. -1.
        -11    1    4    4    0    0  0.88425244233E-01  0.11660163913E-01  0.70016821649E-01  0.11339135626E+00  0.51100000000E-03 0. -1.
         11    1    4    4    0    0  0.56631807667E-02  0.51190464736E-02  0.16169086692E-01  0.17887893634E-01  0.51100000000E-03 0.  1.
</event>
<event>
 8    1  0.1123285E+005  0.1043930E+01  0.7957747E-01            NaN
         13   -1    0    0    0    0  0.00000000000E+00  0.00000000000E+00  0.74505805969E-08  0.10566000000E+00  0.10566000000E+00 0. -1.
     999900   -1    0    0    0    0 -0.00000000000E+00 -0.00000000000E+00 -0.74505805969E-08  0.93827000000E+00  0.93827000000E+00 0.  1.
     999902    2    1    2    0    0 -0.81510798818E-03  0.24016064805E-01 -0.40302836891E-03  0.10198967272E+01  0.10196135228E+01 0.  0.
     999903    2    3    3    0    0 -0.69338961538E-01  0.79533138806E-01 -0.77067096519E-01  0.13217208331E+00  0.19917592377E-01 0.  0.
         14    1    1    2    0    0  0.81510798818E-03 -0.24016064805E-01  0.40302836891E-03  0.24033272803E-01  0.00000000000E+00 0. -1.
     999901    1    3    3    0    0  0.68523853550E-01 -0.55517074001E-01  0.76664068150E-01  0.88772464388E+00  0.88000000000E+00 0. -1.
        -11    1    4    4    0    0 -0.37115985098E-01  0.52492124179E-01 -0.37546752561E-01  0.74451589637E-01  0.51100000000E-03 0. -1.
         11    1    4    4    0    0 -0.32222976440E-01  0.27041014627E-01 -0.39520343958E-01  0.57720493677E-01  0.51100000000E-03 0.  1.
</event>
<event>
 8    1  0.1123285E+005  0.1043930E+01  0.7957747E-01            NaN
         13   -1    0    0    0    0  0.00000000000E+00  0.00000000000E+00  0.74505805969E-08  0.10566000000E+00  0.10566000000E+00 0.  1.
     999900   -1    0    0    0    0 -0.00000000000E+00 -0.00000000000E+00 -0.74505805969E-08  0.93827000000E+00  0.93827000000E+00 0. -1.
     999902    2    1    2    0    0  0.83654630298E-02  0.21265377835E-01 -0.56291063638E-02  0.10203952575E+01  0.10201238148E+01 0.  0.
     999903    2    3    3    0    0 -0.28100532465E-01  0.12052219722E+00 -0.44879134504E-01  0.13319615373E+00  0.20293809575E-01 0.  0.
         14    1    1    2    0    0 -0.83654630298E-02 -0.21265377835E-01  0.56291063638E-02  0.23534742502E-01  0.00000000000E+00 0.  1.
     999901    1    3    3    0    0  0.36465995495E-01 -0.99256819383E-01  0.39250028141E-01  0.88719910377E+00  0.88000000000E+00 0. -1.
        -11    1    4    4    0    0 -0.26392972799E-01  0.70842933435E-01 -0.29604915868E-01  0.81191270438E-01  0.51100000000E-03 0.  1.
         11    1    4    4    0    0 -0.17075596655E-02  0.49679263783E-01 -0.15274218637E-01  0.52004883290E-01  0.51100000000E-03 0. -1.
</event>
<event>
 7    1  0.1123285E+005  0.1043930E+01  0.7957747E-01            NaN
         13   -1    0    0    0    0  0.00000000000E+00  0.00000000000E+00  0.74505805969E-08  0.10566000000E+00  0.10566000000E+00 0. -1.
     999900   -1    0    0    0    0 -0.00000000000E+00 -0.00000000000E+00 -0.74505805969E-08  0.93827000000E+00  0.93827000000E+00 0. -1.
     999903    2    1    2    0    0  0.70424085556E-02  0.10789837780E-01  0.10917467747E+00  0.11209932334E+00  0.21934720805E-01 0.  0.
         14    1    1    2    0    0  0.10119132714E-03  0.43599533198E-01 -0.21759690854E-02  0.43653915933E-01  0.00000000000E+00 0. -1.
     999901    1    1    2    0    0 -0.71435998827E-02 -0.54389370978E-01 -0.10699870838E+00  0.88817676072E+00  0.88000000000E+00 0. -1.
        -11    1    3    3    0    0 -0.67274070733E-02  0.53520287826E-02  0.63530249784E-01  0.64111278077E-01  0.51100000000E-03 0.  1.
         11    1    3    3    0    0  0.13769815629E-01  0.54378089976E-02  0.45644427682E-01  0.47988045267E-01  0.51100000000E-03 0. -1.
</event>
<event>
 8    1  0.1123285E+005  0.1043930E+01  0.7957747E-01            NaN
         13   -1    0    0    0    0  0.00000000000E+00  0.00000000000E+00  0.74505805969E-08  0.10566000000E+00  0.10566000000E+00 0. -1.
     999900   -1    0    0    0    0 -0.00000000000E+00 -0.00000000000E+00 -0.74505805969E-08  0.93827000000E+00  0.93827000000E+00 0.  1.
     999902    2    1    2    0    0  0.21825971439E-01 -0.14350376066E-02 -0.95519535118E-02  0.10200621937E+01  0.10197829214E+01 0.  0.
     999903    2    3    3    0    0  0.97733393479E-01 -0.67563963497E-01  0.53986685995E-01  0.13204635471E+00  0.20123920203E-01 0.  0.
         14    1    1    2    0    0 -0.21825971439E-01  0.14350376066E-02  0.95519535118E-02  0.23867806310E-01  0.00000000000E+00 0. -1.
     999901    1    3    3    0    0 -0.75907422041E-01  0.66128925890E-01 -0.63538639507E-01  0.88801583898E+00  0.88000000000E+00 0. -1.
        -11    1    4    4    0    0  0.90287068262E-01 -0.54796449173E-01  0.45544043828E-01  0.11501707085E+00  0.51100000000E-03 0.  1.
         11    1    4    4    0    0  0.74463252172E-02 -0.12767514323E-01  0.84426421664E-02  0.17029283866E-01  0.51100000000E-03 0. -1.
</event>
<event>
 8    1  0.1123285E+005  0.1043930E+01  0.7957747E-01            NaN
         13   -1    0    0    0    0  0.00000000000E+00  0.00000000000E+00  0.74505805969E-08  0.10566000000E+00  0.10566000000E+00 0.  1.
     999900   -1    0    0    0    0 -0.00000000000E+00 -0.00000000000E+00 -0.74505805969E-08  0.93827000000E+00  0.93827000000E+00 0.  1.
     999902    2    1    2    0    0 -0.17976075869E-01 -0.22288303318E-02 -0.15271867947E-01  0.10202374497E+01  0.10199623115E+01 0.  0.
     999903    2    3    3    0    0 -0.67976865954E-01 -0.29189013117E-01 -0.10938314877E+00  0.13339819504E+00  0.18909056386E-01 0.  0.
         14    1    1    2    0    0  0.17976075869E-01  0.22288303318E-02  0.15271867947E-01  0.23692550282E-01  0.00000000000E+00 0. -1.
     999901    1    3    3    0    0  0.50000790085E-01  0.26960182785E-01  0.94111280819E-01  0.88683925468E+00  0.88000000000E+00 0. -1.
        -11    1    4    4    0    0 -0.45923981698E-01 -0.26349159068E-01 -0.65711131676E-01  0.84389005360E-01  0.51100000000E-03 0.  1.
         11    1    4    4    0    0 -0.22052884257E-01 -0.28398540494E-02 -0.43672017090E-01  0.49009189677E-01  0.51100000000E-03 0. -1.
</event>
<event>
 8    1  0.1123285E+005  0.1043930E+01  0.7957747E-01            NaN
         13   -1    0    0    0    0  0.00000000000E+00  0.00000000000E+00  0.74505805969E-08  0.10566000000E+00  0.10566000000E+00 0.  1.
     999900   -1    0    0    0    0 -0.00000000000E+00 -0.00000000000E+00 -0.74505805969E-08  0.93827000000E+00  0.93827000000E+00 0.  1.
     999902    2    1    2    0    0  0.14261087732E-01 -0.18439491627E-01 -0.93863845500E-05  0.10206191964E+01  0.10203529539E+01 0.  0.
     999903    2    3    3    0    0  0.51256851404E-02 -0.82416272069E-01 -0.10152436445E+00  0.13242902829E+00  0.20286360124E-01 0.  0.
         14    1    1    2    0    0 -0.14261087732E-01  0.18439491627E-01  0.93863845500E-05  0.23310803565E-01  0.00000000000E+00 0.  1.
     999901    1    3    3    0    0  0.91354025912E-02  0.63976780442E-01  0.10151497807E+00  0.88819016814E+00  0.88000000000E+00 0. -1.
        -11    1    4    4    0    0  0.23370000403E-02 -0.10309375085E-01 -0.25502298478E-01  0.27611105238E-01  0.51100000000E-03 0.  1.
         11    1    4    4    0    0  0.27886851001E-02 -0.72106896985E-01 -0.76022065972E-01  0.10481792305E+00  0.51100000000E-03 0. -1.
</event>
<event>
 8    1  0.1123285E+005  0.1043930E+01  0.7957747E-01            NaN
         13   -1    0    0    0    0  0.00000000000E+00  0.00000000000E+00  0.74505805969E-08  0.10566000000E+00  0.10566000000E+00 0. -1.
     999900   -1    0    0    0    0 -0.00000000000E+00 -0.00000000000E+00 -0.74505805969E-08  0.93827000000E+00  0.93827000000E+00 0. -1.
     999902    2    1    2    0    0  0.58220376310E-03 -0.22252673367E-01 -0.77869535467E-02  0.10203470172E+01  0.10200744475E+01 0.  0.
     999903    2    3    3    0    0  0.71028591241E-01 -0.10930731077E+00  0.85296237996E-02  0.13309990724E+00  0.25488857640E-01 0.  0.
         14    1    1    2    0    0 -0.58220376310E-03  0.22252673367E-01  0.77869535467E-02  0.23582982821E-01  0.00000000000E+00 0. -1.
     999901    1    3    3    0    0 -0.70446387478E-01  0.87054637402E-01 -0.16316577346E-01  0.88724710994E+00  0.88000000000E+00 0.  1.
        -11    1    4    4    0    0  0.22611291095E-01 -0.54352374435E-01 -0.30399504957E-02  0.58948736303E-01  0.51100000000E-03 0. -1.
         11    1    4    4    0    0  0.48417300146E-01 -0.54954936333E-01  0.11569574295E-01  0.74151170936E-01  0.51100000000E-03 0.  1.
</event>
<event>
 8    1  0.1123285E+005  0.1043930E+01  0.7957747E-01            NaN
         13   -1    0    0    0    0  0.00000000000E+00  0.00000000000E+00  0.74505805969E-08  0.10566000000E+00  0.10566000000E+00 0. -1.
     999900   -1    0    0    0    0 -0.00000000000E+00 -0.00000000000E+00 -0.74505805969E-08  0.93827000000E+00  0.93827000000E+00 0. -1.
     999902    2    1    2    0    0  0.18254575794E-01  0.49688511375E-03  0.13654045037E-01  0.10211284786E+01  0.10208738710E+01 0.  0.
     999903    2    3    3    0    0 -0.70628733705E-01  0.64645355916E-01 -0.84105921881E-01  0.12895569256E+00  0.19705950439E-01 0.  0.
         14    1    1    2    0    0 -0.18254575794E-01 -0.49688511375E-03 -0.13654045037E-01  0.22801521399E-01  0.00000000000E+00 0.  1.
     999901    1    3    3    0    0  0.88883309499E-01 -0.64148470803E-01  0.97759966918E-01  0.89217278604E+00  0.88000000000E+00 0.  1.
        -11    1    4    4    0    0 -0.10697518242E-01  0.59397126041E-02 -0.19671695856E-01  0.23172264050E-01  0.51100000000E-03 0. -1.
         11    1    4    4    0    0 -0.59931215463E-01  0.58705643312E-01 -0.64434226026E-01  0.10578342851E+00  0.51100000000E-03 0.  1.
</event>
<event>
 8    1  0.1123285E+005  0.1043930E+01  0.7957747E-01            NaN
         13   -1    0    0    0    0  0.00000000000E+00  0.00000000000E+00  0.74505805969E-08  0.10566000000E+00  0.10566000000E+00 0.  1.
     999900   -1    0    0    0    0 -0.00000000000E+00 -0.00000000000E+00 -0.74505805969E-08  0.93827000000E+00  0.93827000000E+00 0.  1.
     999902    2    1    2    0    0 -0.10583696478E-01 -0.31810389212E-02 -0.21443782788E-01  0.10198059568E+01  0.10195205834E+01 0.  0.
     999903    2    3    3    0    0 -0.46482700368E-01  0.12000007476E+00 -0.60225618082E-02  0.13036785367E+00  0.19971145290E-01 0.  0.
         14    1    1    2    0    0  0.10583696478E-01  0.31810389212E-02  0.21443782788E-01  0.24124043194E-01  0.00000000000E+00 0.  1.
     999901    1    3    3    0    0  0.35899003889E-01 -0.12318111368E+00 -0.15421220979E-01  0.88943810313E+00  0.88000000000E+00 0.  1.
        -11    1    4    4    0    0 -0.12755567618E-01  0.49295684609E-01  0.53752514723E-02  0.51204721225E-01  0.51100000000E-03 0. -1.
         11    1    4    4    0    0 -0.33727132749E-01  0.70704390153E-01 -0.11397813281E-01  0.79163132448E-01  0.51100000000E-03 0.  1.
</event>
<event>
 8    1  0.1123285E+005  0.1043930E+01  0.7957747E-01            NaN
         13   -1    0    0    0    0  0.00000000000E+00  0.00000000000E+00  0.74505805969E-08  0.10566000000E+00  0.10566000000E+00 0.  1.
     999900   -1    0    0    0    0 -0.00000000000E+00 -0.00000000000E+00 -0.74505805969E-08  0.93827000000E+00  0.93827000000E+00 0.  1.
     999902    2    1    2    0    0 -0.10564678649E-01 -0.87286053060E-02 -0.21652952823E-01  0.10183047907E+01  0.10179823159E+01 0.  0.
     999903    2    3    3    0    0  0.12524193228E+00 -0.11959317301E-01 -0.10121165271E-01  0.12780669683E+00  0.20088476676E-01 0.  0.
         14    1    1    2    0    0  0.10564678649E-01  0.87286053060E-02  0.21652952823E-01  0.25625209297E-01  0.00000000000E+00 0.  1.
     999901    1    3    3    0    0 -0.13580661093E+00  0.32307119954E-02 -0.11531787552E-01  0.89049809388E+00  0.88000000000E+00 0. -1.
        -11    1    4    4    0    0  0.10660277930E+00 -0.30683386674E-02 -0.66079827065E-02  0.10685267340E+00  0.51100000000E-03 0.  1.
         11    1    4    4    0    0  0.18639152985E-01 -0.88909786339E-02 -0.35131825650E-02  0.20954023427E-01  0.51100000000E-03 0. -1.
</event>
<event>
 7    1  0.1123285E+005  0.1043930E+01  0.7957747E-01            NaN
         13   -1    0    0    0    0  0.00000000000E+00  0.00000000000E+00  0.74505805969E-08  0.10566000000E+00  0.10566000000E+00 0. -1.
     999900   -1    0    0    0    0 -0.00000000000E+00 -0.00000000000E+00 -0.74505805969E-08  0.93827000000E+00  0.93827000000E+00 0. -1.
     999902    2    1    2    0    0  0.19029555463E-01  0.26451124398E-02  0.13608052412E-01  0.10203864299E+01  0.10201147811E+01 0.  0.
         14    1    1    2    0    0 -0.19029555463E-01 -0.26451124398E-02 -0.13608052412E-01  0.23543570064E-01  0.00000000000E+00 0. -1.
     999901    1    3    3    0    0 -0.64840493275E-01 -0.52343526811E-01 -0.74181415883E-01  0.88704397683E+00  0.88000000000E+00 0. -1.
        -11    1    3    3    0    0  0.25744850496E-01  0.18897987978E-01  0.28541852912E-01  0.42834912925E-01  0.51100000000E-03 0. -1.
         11    1    3    3    0    0  0.58125198243E-01  0.36090651273E-01  0.59247615382E-01  0.90507540181E-01  0.51100000000E-03 0.  1.
</event>
<event>
 8    1  0.1123285E+005  0.1043930E+01  0.7957747E-01            NaN
         13   -1    0    0    0    0  0.00000000000E+00  0.00000000000E+00  0.74505805969E-08  0.10566000000E+00  0.10566000000E+00 0.  1.
     999900   -1    0    0    0    0 -0.00000000000E+00 -0.00000000000E+00 -0.74505805969E-08  0.93827000000E+00  0.93827000000E+00 0. -1.
     999902    2    1    2    0    0 -0.84995636022E-02  0.70174437203E-03  0.21743181987E-01  0.10205740374E+01  0.10203067503E+01 0.  0.
     999903    2    3    3    0    0  0.11976031812E+00 -0.25773198889E-01 -0.35539547067E-01  0.12904006107E+00  0.19531676252E-01 0.  0.
         14    1    1    2    0    0  0.84995636022E-02 -0.70174437203E-03 -0.21743181987E-01  0.23355962612E-01  0.00000000000E+00 0. -1.
     999901    1    3    3    0    0 -0.12825988173E+00  0.26474943261E-01  0.57282729055E-01  0.89153397632E+00  0.88000000000E+00 0.  1.
        -11    1    4    4    0    0  0.85417001440E-01 -0.13403421594E-01 -0.17091023088E-01  0.88136712196E-01  0.51100000000E-03 0.  1.
         11    1    4    4    0    0  0.34343316684E-01 -0.12369777295E-01 -0.18448523979E-01  0.40903348875E-01  0.51100000000E-03 0. -1.
</event>
<event>
 8    1  0.1123285E+005  0.1043930E+01  0.7957747E-01            NaN
         13   -1    0    0    0    0  0.00000000000E+00  0.00000000000E+00  0.74505805969E-08  0.10566000000E+00  0.10566000000E+00 0.  1.
     999900   -1    0    0    0    0 -0.00000000000E+00 -0.00000000000E+00 -0.74505805969E-08  0.93827000000E+00  0.93827000000E+00 0.  1.
     999902    2    1    2    0    0  0.13362743349E-01 -0.61316347399E-02 -0.28108579806E-01  0.10122085228E+01  0.10117113430E+01 0.  0.
     999903    2    3    3    0    0 -0.13711044029E-01  0.11616155815E+00 -0.34696512895E-01  0.12331481949E+00  0.17921952442E-01 0.  0.
         14    1    1    2    0    0 -0.13362743349E-01  0.61316347399E-02  0.28108579806E-01  0.31721477159E-01  0.00000000000E+00 0.  1.
     999901    1    3    3    0    0  0.27073787378E-01 -0.12229319289E+00  0.65879330891E-02  0.88889370335E+00  0.88000000000E+00 0. -1.
        -11    1    4    4    0    0 -0.16027718985E-01  0.64095377947E-01 -0.22388324623E-01  0.69761045366E-01  0.51100000000E-03 0.  1.
         11    1    4    4    0    0  0.23166749563E-02  0.52066180202E-01 -0.12308188272E-01  0.53553774127E-01  0.51100000000E-03 0. -1.
</event>
<event>
 8    1  0.1123285E+005  0.1043930E+01  0.7957747E-01            NaN
         13   -1    0    0    0    0  0.00000000000E+00  0.00000000000E+00  0.74505805969E-08  0.10566000000E+00  0.10566000000E+00 0. -1.
     999900   -1    0    0    0    0 -0.00000000000E+00 -0.00000000000E+00 -0.74505805969E-08  0.93827000000E+00  0.93827000000E+00 0. -1.
     999902    2    1    2    0    0 -0.99199106879E-02  0.22081319543E-01  0.36481335405E-03  0.10197200353E+01  0.10194326010E+01 0.  0.
     999903    2    3    3    0    0 -0.50692662690E-01  0.83839846119E-01 -0.86634302142E-01  0.13233884384E+00  0.20228727893E-01 0.  0.
         14    1    1    2    0    0  0.99199106879E-02 -0.22081319543E-01 -0.36481335405E-03  0.24209964676E-01  0.00000000000E+00 0.  1.
     999901    1    3    3    0    0  0.40772752003E-01 -0.61758526576E-01  0.86999115496E-01  0.88738119149E+00  0.88000000000E+00 0.  1.
        -11    1    4    4    0    0 -0.14283822736E-01  0.42664620644E-01 -0.36383705434E-01  0.57864778482E-01  0.51100000000E-03 0. -1.
         11    1    4    4    0    0 -0.36408839955E-01  0.41175225475E-01 -0.50250596709E-01  0.74474065354E-01  0.51100000000E-03 0.  1.
</event>
<event>
 8    1  0.1123285E+005  0.1043930E+01  0.7957747E-01            NaN
         13   -1    0    0    0    0  0.00000000000E+00  0.00000000000E+00  0.74505805969E-08  0.10566000000E+00  0.10566000000E+00 0.  1.
     999900   -1    0    0    0    0 -0.00000000000E+00 -0.00000000000E+00 -0.74505805969E-08  0.93827000000E+00  0.93827000000E+00 0.  1.
     999902    2    1    2    0    0 -0.10836839531E-01  0.19624727305E-01  0.54204393526E-03  0.10215054415E+01  0.10212592747E+01 0.  0.
     999903    2    3    3    0    0 -0.53960251397E-02  0.50084579381E-01 -0.12100755387E+00  0.13261191031E+00  0.20137241210E-01 0.  0.
         14    1    1    2    0    0  0.10836839531E-01 -0.19624727305E-01 -0.54204393526E-03  0.22424558512E-01  0.00000000000E+00 0. -1.
     999901    1    3    3    0    0 -0.54408143913E-02 -0.30459852076E-01  0.12154959780E+00  0.88889353118E+00  0.88000000000E+00 0. -1.
        -11    1    4    4    0    0 -0.21531966958E-02  0.18377006139E-01 -0.70473838323E-01  0.72864076331E-01  0.51100000000E-03 0. -1.
         11    1    4    4    0    0 -0.32428284439E-02  0.31707573241E-01 -0.50533715544E-01  0.59747833976E-01  0.51100000000E-03 0.  1.
</event>
<event>
 8    1  0.1123285E+005  0.1043930E+01  0.7957747E-01            NaN
         13   -1    0    0    0    0  0.00000000000E+00  0.00000000000E+00  0.74505805969E-08  0.10566000000E+00  0.10566000000E+00 0.  1.
     999900   -1    0    0    0    0 -0.00000000000E+00 -0.00000000000E+00 -0.74505805969E-08  0.93827000000E+00  0.93827000000E+00 0.  1.
     999902    2    1    2    0    0 -0.11403875578E-03  0.21365016667E-01 -0.98072414710E-02  0.10204213010E+01  0.10201504657E+01 0.  0.
     999903    2    3    3    0    0 -0.15264480282E-01  0.84334324145E-01  0.97663905548E-01  0.13152045335E+00  0.20349658851E-01 0.  0.
         14    1    1    2    0    0  0.11403875578E-03 -0.21365016667E-01  0.98072414710E-02  0.23508698970E-01  0.00000000000E+00 0.  1.
     999901    1    3    3    0    0  0.15150441527E-01 -0.62969307478E-01 -0.10747114702E+00  0.88890084768E+00  0.88000000000E+00 0.  1.
        -11    1    4    4    0    0  0.37061156483E-02  0.17905876150E-01  0.27702769452E-01  0.33197292814E-01  0.51100000000E-03 0.  1.
         11    1    4    4    0    0 -0.18970595931E-01  0.66428447995E-01  0.69961136097E-01  0.98323160536E-01  0.51100000000E-03 0. -1.
</event>
<event>
 8    1  0.1123285E+005  0.1043930E+01  0.7957747E-01            NaN
         13   -1    0    0    0    0  0.00000000000E+00  0.00000000000E+00  0.74505805969E-08  0.10566000000E+00  0.10566000000E+00 0. -1.
     999900   -1    0    0    0    0 -0.00000000000E+00 -0.00000000000E+00 -0.74505805969E-08  0.93827000000E+00  0.93827000000E+00 0.  1.
     999902    2    1    2    0    0  0.12211288688E-01 -0.82132369821E-02 -0.18786882776E-01  0.10200653861E+01  0.10197861894E+01 0.  0.
     999903    2    3    3    0    0 -0.70699984177E-01  0.80938366986E-01 -0.70522448649E-01  0.13017839526E+00  0.20578916768E-01 0.  0.
         14    1    1    2    0    0 -0.12211288688E-01  0.82132369821E-02  0.18786882776E-01  0.23864613921E-01  0.00000000000E+00 0. -1.
     999901    1    3    3    0    0  0.82911272865E-01 -0.89151603968E-01  0.51735565873E-01  0.88988699082E+00  0.88000000000E+00 0. -1.
        -11    1    4    4    0    0 -0.22722224205E-01  0.31993787536E-01 -0.15156339472E-01  0.42069913964E-01  0.51100000000E-03 0. -1.
         11    1    4    4    0    0 -0.47977759972E-01  0.48944579450E-01 -0.55366109177E-01  0.88108481293E-01  0.51100000000E-03 0.  1.
</event>
<event>
 8    1  0.1123285E+005  0.1043930E+01  0.7957747E-01            NaN
         13   -1    0    0    0    0  0.00000000000E+00  0.00000000000E+00  0.74505805969E-08  0.10566000000E+00  0.10566000000E+00 0. -1.
     999900   -1    0    0    0    0 -0.00000000000E+00 -0.00000000000E+00 -0.74505805969E-08  0.93827000000E+00  0.93827000000E+00 0.  1.
     999902    2    1    2    0    0 -0.21765359464E-02  0.12808595303E-01  0.17349244619E-01  0.10222552748E+01  0.10220254660E+01 0.  0.
     999903    2    3    3    0    0  0.22127784905E-02 -0.93973307139E-01 -0.86425703651E-01  0.12973587411E+00  0.22937217280E-01 0.  0.
         14    1    1    2    0    0  0.21765359464E-02 -0.12808595303E-01 -0.17349244619E-01  0.21674725171E-01  0.00000000000E+00 0.  1.
     999901    1    3    3    0    0 -0.43893144369E-02  0.10678190244E+00  0.10377494827E+00  0.89251940072E+00  0.88000000000E+00 0. -1.
        -11    1    4    4    0    0 -0.72545566604E-02 -0.37708766896E-01 -0.45376149799E-01  0.59446074595E-01  0.51100000000E-03 0. -1.
         11    1    4    4    0    0  0.94673351509E-02 -0.56264540243E-01 -0.41049553852E-01  0.70289799516E-01  0.51100000000E-03 0.  1.
</event>
<event>
 8    1  0.1123285E+005  0.1043930E+01  0.7957747E-01            NaN
         13   -1    0    0    0    0  0.00000000000E+00  0.00000000000E+00  0.74505805969E-08  0.10566000000E+00  0.10566000000E+00 0.  1.
     999900   -1    0    0    0    0 -0.00000000000E+00 -0.00000000000E+00 -0.74505805969E-08  0.93827000000E+00  0.93827000000E+00 0. -1.
     999902    2    1    2    0    0  0.17575658812E-01 -0.11570711333E-01 -0.12854532156E-01  0.10192718545E+01  0.10189735469E+01 0.  0.
     999903    2    3    3    0    0 -0.25031456187E-01 -0.96334644979E-01 -0.83531218954E-01  0.13135548187E+00  0.19231756432E-01 0.  0.
         14    1    1    2    0    0 -0.17575658812E-01  0.11570711333E-01  0.12854532156E-01  0.24658145517E-01  0.00000000000E+00 0.  1.
     999901    1    3    3    0    0  0.42607114998E-01  0.84763933646E-01  0.70676686798E-01  0.88791637261E+00  0.88000000000E+00 0.  1.
        -11    1    4    4    0    0 -0.22110184147E-01 -0.54843906220E-01 -0.41672951203E-01  0.72343695478E-01  0.51100000000E-03 0. -1.
         11    1    4    4    0    0 -0.29212720398E-02 -0.41490738759E-01 -0.41858267751E-01  0.59011786392E-01  0.51100000000E-03 0.  1.
</event>
<event>
 8    1  0.1123285E+005  0.1043930E+01  0.7957747E-01            NaN
         13   -1    0    0    0    0  0.00000000000E+00  0.00000000000E+00  0.74505805969E-08  0.10566000000E+00  0.10566000000E+00 0.  1.
     999900   -1    0    0    0    0 -0.00000000000E+00 -0.00000000000E+00 -0.74505805969E-08  0.93827000000E+00  0.93827000000E+00 0. -1.
     999902    2    1    2    0    0 -0.18143606068E-02 -0.14585665430E-01  0.17738190903E-01  0.10208935733E+01  0.10206336321E+01 0.  0.
     999903    2    3    3    0    0  0.55444187878E-01  0.97117479187E-01  0.64495891562E-01  0.13075739465E+00  0.20782528604E-01 0.  0.
         14    1    1    2    0    0  0.18143606068E-02  0.14585665430E-01 -0.17738190903E-01  0.23036426740E-01  0.00000000000E+00 0. -1.
     999901    1    3    3    0    0 -0.57258548485E-01 -0.11170314462E+00 -0.46757700659E-01  0.89013617861E+00  0.88000000000E+00 0.  1.
        -11    1    4    4    0    0  0.26500910430E-01  0.64728664138E-01  0.34689988004E-01  0.78075313662E-01  0.51100000000E-03 0. -1.
         11    1    4    4    0    0  0.28943277448E-01  0.32388815050E-01  0.29805903558E-01  0.52682080992E-01  0.51100000000E-03 0.  1.
</event>
<event>
 8    1  0.1123285E+005  0.1043930E+01  0.7957747E-01            NaN
         13   -1    0    0    0    0  0.00000000000E+00  0.00000000000E+00  0.74505805969E-08  0.10566000000E+00  0.10566000000E+00 0.  1.
     999900   -1    0    0    0    0 -0.00000000000E+00 -0.00000000000E+00 -0.74505805969E-08  0.93827000000E+00  0.93827000000E+00 0. -1.
     999902    2    1    2    0    0  0.20240268289E-01 -0.12763283087E-01 -0.15014721120E-02  0.10199545068E+01  0.10196726787E+01 0.  0.
     999903    2    3    3    0    0 -0.16512500222E-01 -0.78923121635E-01 -0.10145352273E+00  0.13106851712E+00  0.19611657607E-01 0.  0.
         14    1    1    2    0    0 -0.20240268289E-01  0.12763283087E-01  0.15014721120E-02  0.23975493197E-01  0.00000000000E+00 0.  1.
     999901    1    3    3    0    0  0.36752768511E-01  0.66159838549E-01  0.99952050616E-01  0.88888598968E+00  0.88000000000E+00 0.  1.
        -11    1    4    4    0    0 -0.17011445662E-01 -0.58051771641E-01 -0.63205063291E-01  0.87490220143E-01  0.51100000000E-03 0.  1.
         11    1    4    4    0    0  0.49894543952E-03 -0.20871349995E-01 -0.38248459438E-01  0.43578296978E-01  0.51100000000E-03 0. -1.
</event>
<event>
 8    1  0.1123285E+005  0.1043930E+01  0.7957747E-01            NaN
         13   -1    0    0    0    0  0.00000000000E+00  0.00000000000E+00  0.74505805969E-08  0.10566000000E+00  0.10566000000E+00 0. -1.
     999900   -1    0    0    0    0 -0.00000000000E+00 -0.00000000000E+00 -0.74505805969E-08  0.93827000000E+00  0.93827000000E+00 0.  1.
     999902    2    1    2    0    0 -0.91199419056E-02 -0.21829593649E-01 -0.41738566859E-02  0.10199065619E+01  0.10196235920E+01 0.  0.
     999903    2    3    3    0    0  0.69529859259E-01  0.49730722333E-01  0.93335070151E-01  0.12815846917E+00  0.20139807040E-01 0.  0.
         14    1    1    2    0    0  0.91199419056E-02  0.21829593649E-01  0.41738566859E-02  0.24023438115E-01  0.00000000000E+00 0. -1.
     999901    1    3    3    0    0 -0.78649801165E-01 -0.71560315982E-01 -0.97508926837E-01  0.89174809271E+00  0.88000000000E+00 0.  1.
        -11    1    4    4    0    0  0.35430983349E-01  0.14198162433E-01  0.46878538694E-01  0.60454949414E-01  0.51100000000E-03 0.  1.
         11    1    4    4    0    0  0.34098875910E-01  0.35532559900E-01  0.46456531457E-01  0.67703519756E-01  0.51100000000E-03 0. -1.
</event>
<event>
 8    1  0.1123285E+005  0.1043930E+01  0.7957747E-01            NaN
         13   -1    0    0    0    0  0.00000000000E+00  0.00000000000E+00  0.74505805969E-08  0.10566000000E+00  0.10566000000E+00 0. -1.
     999900   -1    0    0    0    0 -0.00000000000E+00 -0.00000000000E+00 -0.74505805969E-08  0.93827000000E+00  0.93827000000E+00 0.  1.
     999902    2    1    2    0    0 -0.20136433753E-01  0.87760742831E-02 -0.81269198344E-02  0.10205090207E+01  0.10202402262E+01 0.  0.
     999903    2    3    3    0    0  0.64110362245E-01 -0.46391337349E-01 -0.10107735390E+00  0.12990206525E+00  0.19890207563E-01 0.  0.
         14    1    1    2    0    0  0.20136433753E-01 -0.87760742831E-02  0.81269198344E-02  0.23420979273E-01  0.00000000000E+00 0. -1.
     999901    1    3    3    0    0 -0.84246795998E-01  0.55167411632E-01  0.92950434069E-01  0.89060695547E+00  0.88000000000E+00 0. -1.
        -11    1    4    4    0    0  0.31023356698E-01 -0.13121219167E-01 -0.52360396923E-01  0.62261443448E-01  0.51100000000E-03 0. -1.
         11    1    4    4    0    0  0.33087005547E-01 -0.33270118182E-01 -0.48716956980E-01  0.67640621806E-01  0.51100000000E-03 0.  1.
</event>
<event>
 8    1  0.1123285E+005  0.1043930E+01  0.7957747E-01            NaN
         13   -1    0    0    0    0  0.00000000000E+00  0.00000000000E+00  0.74505805969E-08  0.10566000000E+00  0.10566000000E+00 0.  1.
     999900   -1    0    0    0    0 -0.00000000000E+00 -0.00000000000E+00 -0.74505805969E-08  0.93827000000E+00  0.93827000000E+00 0. -1.
     999902    2    1    2    0    0  0.22470567107E-01  0.57969906773E-02  0.41272279448E-02  0.10203595631E+01  0.10200872867E+01 0.  0.
     999903    2    3    3    0    0  0.30168921891E-01 -0.10447229541E+00 -0.69077332168E-01  0.13042839283E+00  0.20378014637E-01 0.  0.
         14    1    1    2    0    0 -0.22470567107E-01 -0.57969906773E-02 -0.41272279448E-02  0.23570436940E-01  0.00000000000E+00 0.  1.
     999901    1    3    3    0    0 -0.76983547834E-02  0.11026928609E+00  0.73204560113E-01  0.88993117023E+00  0.88000000000E+00 0.  1.
        -11    1    4    4    0    0  0.21669619493E-01 -0.58387130176E-01 -0.28730187569E-01  0.68588003163E-01  0.51100000000E-03 0.  1.
         11    1    4    4    0    0  0.84993023978E-02 -0.46085165236E-01 -0.40347144599E-01  0.61840389669E-01  0.51100000000E-03 0. -1.
</event>
<event>
 8    1  0.1123285E+005  0.1043930E+01  0.7957747E-01            NaN
         13   -1    0    0    0    0  0.00000000000E+00  0.00000000000E+00  0.74505805969E-08  0.10566000000E+00  0.10566000000E+00 0.  1.
     999900   -1    0    0    0    0 -0.00000000000E+00 -0.00000000000E+00 -0.74505805969E-08  0.93827000000E+00  0.93827000000E+00 0.  1.
     999902    2    1    2    0    0 -0.16656445607E-01  0.15966480975E-01  0.15944776208E-02  0.10208019207E+01  0.10205398832E+01 0.  0.
     999903    2    3    3    0    0 -0.30429010924E-01  0.10255891797E+00  0.74633556998E-01  0.13343354123E+00  0.28108463756E-01 0.  0.
         14    1    1    2    0    0  0.16656445607E-01 -0.15966480975E-01 -0.15944776208E-02  0.23128079338E-01  0.00000000000E+00 0. -1.
     999901    1    3    3    0    0  0.13772565318E-01 -0.86592436992E-01 -0.73039079377E-01  0.88736837943E+00  0.88000000000E+00 0.  1.
        -11    1    4    4    0    0 -0.30602046093E-01  0.54367098650E-01  0.43483019947E-01  0.76048016315E-01  0.51100000000E-03 0.  1.
         11    1    4    4    0    0  0.17303516907E-03  0.48191819317E-01  0.31150537051E-01  0.57385524915E-01  0.51100000000E-03 0. -1.
</event>
<event>
 7    1  0.1123285E+005  0.1043930E+01  0.7957747E-01            NaN
         13   -1    0    0    0    0  0.00000000000E+00  0.00000000000E+00  0.74505805969E-08  0.10566000000E+00  0.10566000000E+00 0. -1.
     999900   -1    0    0    0    0 -0.00000000000E+00 -0.00000000000E+00 -0.74505805969E-08  0.93827000000E+00  0.93827000000E+00 0. -1.
     999903    2    1    2    0    0  0.93690012614E-01 -0.60131829083E-01 -0.71417973191E-02  0.11397728325E+00  0.23370076910E-01 0.  0.
         14    1    1    2    0    0  0.10153001978E-01 -0.35311197059E-01  0.12177989952E-01  0.38707460860E-01  0.00000000000E+00 0. -1.
     999901    1    1    2    0    0 -0.10384301459E+00  0.95443026142E-01 -0.50361926328E-02  0.89124525589E+00  0.88000000000E+00 0. -1.
        -11    1    3    3    0    0  0.57660998027E-01 -0.44812403912E-01  0.43893679854E-02  0.73160576201E-01  0.51100000000E-03 0. -1.
         11    1    3    3    0    0  0.36029014587E-01 -0.15319425171E-01 -0.11531165304E-01  0.40816707044E-01  0.51100000000E-03 0.  1.
</event>
<event>
 8    1  0.1123285E+005  0.1043930E+01  0.7957747E-01            NaN
         13   -1    0    0    0    0  0.00000000000E+00  0.00000000000E+00  0.74505805969E-08  0.10566000000E+00  0.10566000000E+00 0. -1.
     999900   -1    0    0    0    0 -0.00000000000E+00 -0.00000000000E+00 -0.74505805969E-08  0.93827000000E+00  0.93827000000E+00 0.  1.
     999902    2    1    2    0    0 -0.15213438209E-01 -0.11365732068E-01 -0.30905264503E-02  0.10246899397E+01  0.10245092935E+01 0.  0.
     999903    2    3    3    0    0 -0.77323301130E-01  0.10685235549E+00  0.11952079923E-01  0.13448803488E+00  0.23406420887E-01 0.  0.
         14    1    1    2    0    0  0.15213438209E-01  0.11365732068E-01  0.30905264503E-02  0.19240060326E-01  0.00000000000E+00 0. -1.
     999901    1    3    3    0    0  0.62109862921E-01 -0.11821808756E+00 -0.15042606373E-01  0.89020190480E+00  0.88000000000E+00 0.  1.
        -11    1    4    4    0    0 -0.58350321699E-01  0.78175850024E-01 -0.14946003703E-02  0.97563920179E-01  0.51100000000E-03 0.  1.
         11    1    4    4    0    0 -0.18972979430E-01  0.28676505468E-01  0.13446680293E-01  0.36924114698E-01  0.51100000000E-03 0. -1.
</event>
<event>
 8    1  0.1123285E+005  0.1043930E+01  0.7957747E-01            NaN
         13   -1    0    0    0    0  0.00000000000E+00  0.00000000000E+00  0.74505805969E-08  0.10566000000E+00  0.10566000000E+00 0.  1.
     999900   -1    0    0    0    0 -0.00000000000E+00 -0.00000000000E+00 -0.74505805969E-08  0.93827000000E+00  0.93827000000E+00 0. -1.
     999902    2    1    2    0    0 -0.68155281834E-03 -0.58358808528E-02  0.22192633358E-01  0.10209727572E+01  0.10207146203E+01 0.  0.
     999903    2    3    3    0    0  0.12246028342E-01  0.12577440856E+00 -0.22848796362E-01  0.12995248754E+00  0.19910159804E-01 0.  0.
         14    1    1    2    0    0  0.68155281834E-03  0.58358808528E-02 -0.22192633358E-01  0.22957242756E-01  0.00000000000E+00 0. -1.
     999901    1    3    3    0    0 -0.12927581160E-01 -0.13161028941E+00  0.45041429720E-01  0.89102026971E+00  0.88000000000E+00 0.  1.
        -11    1    4    4    0    0  0.29028150323E-02  0.40823241377E-01 -0.16898219722E-01  0.44280631459E-01  0.51100000000E-03 0.  1.
         11    1    4    4    0    0  0.93432133096E-02  0.84951167184E-01 -0.59505766396E-02  0.85671856080E-01  0.51100000000E-03 0. -1.
</event>
<event>
 8    1  0.1123285E+005  0.1043930E+01  0.7957747E-01            NaN
         13   -1    0    0    0    0  0.00000000000E+00  0.00000000000E+00  0.74505805969E-08  0.10566000000E+00  0.10566000000E+00 0.  1.
     999900   -1    0    0    0    0 -0.00000000000E+00 -0.00000000000E+00 -0.74505805969E-08  0.93827000000E+00  0.93827000000E+00 0.  1.
     999902    2    1    2    0    0  0.19319229805E-01  0.48897097372E-02  0.14811599868E-01  0.10191000706E+01  0.10187975405E+01 0.  0.
     999903    2    3    3    0    0 -0.74363921070E-01  0.59723704336E-01 -0.81657290733E-01  0.12719786379E+00  0.20358531540E-01 0.  0.
         14    1    1    2    0    0 -0.19319229805E-01 -0.48897097372E-02 -0.14811599868E-01  0.24829929364E-01  0.00000000000E+00 0. -1.
     999901    1    3    3    0    0  0.93683150875E-01 -0.54833994599E-01  0.96468890601E-01  0.89190220685E+00  0.88000000000E+00 0. -1.
        -11    1    4    4    0    0 -0.53590259259E-01  0.31360321768E-01 -0.47513965214E-01  0.78187106867E-01  0.51100000000E-03 0. -1.
         11    1    4    4    0    0 -0.20773661811E-01  0.28363382569E-01 -0.34143325519E-01  0.49010756924E-01  0.51100000000E-03 0.  1.
</event>
<event>
 8    1  0.1123285E+005  0.1043930E+01  0.7957747E-01            NaN
         13   -1    0    0    0    0  0.00000000000E+00  0.00000000000E+00  0.74505805969E-08  0.10566000000E+00  0.10566000000E+00 0.  1.
     999900   -1    0    0    0    0 -0.00000000000E+00 -0.00000000000E+00 -0.74505805969E-08  0.93827000000E+00  0.93827000000E+00 0.  1.
     999902    2    1    2    0    0 -0.22186115888E-01 -0.57116452804E-02 -0.12960078087E-02  0.10209838398E+01  0.10207259549E+01 0.  0.
     999903    2    3    3    0    0 -0.87000333892E-01  0.99745444292E-02  0.97993883857E-01  0.13289295373E+00  0.19727803811E-01 0.  0.
         14    1    1    2    0    0  0.22186115888E-01  0.57116452804E-02  0.12960078087E-02  0.22946160163E-01  0.00000000000E+00 0. -1.
     999901    1    3    3    0    0  0.64814218004E-01 -0.15686189710E-01 -0.99289891666E-01  0.88809088611E+00  0.88000000000E+00 0.  1.
        -11    1    4    4    0    0 -0.56727741423E-01  0.33413465308E-02  0.75956234406E-01  0.94862067813E-01  0.51100000000E-03 0.  1.
         11    1    4    4    0    0 -0.30272592468E-01  0.66331978984E-02  0.22037649451E-01  0.38030885915E-01  0.51100000000E-03 0. -1.
</event>
<event>
 8    1  0.1123285E+005  0.1043930E+01  0.7957747E-01            NaN
         13   -1    0    0    0    0  0.00000000000E+00  0.00000000000E+00  0.74505805969E-08  0.10566000000E+00  0.10566000000E+00 0.  1.
     999900   -1    0    0    0    0 -0.00000000000E+00 -0.00000000000E+00 -0.74505805969E-08  0.93827000000E+00  0.93827000000E+00 0.  1.
     999902    2    1    2    0    0 -0.12506710648E-02  0.24113996476E-01 -0.17486409933E-02  0.10197203583E+01  0.10194329318E+01 0.  0.
     999903    2    3    3    0    0 -0.13347677888E-01  0.42749499190E-01 -0.12160597262E+00  0.13131763464E+00  0.21228009899E-01 0.  0.
         14    1    1    2    0    0  0.12506710648E-02 -0.24113996476E-01  0.17486409933E-02  0.24209641664E-01  0.00000000000E+00 0.  1.
     999901    1    3    3    0    0  0.12097006823E-01 -0.18635502714E-01  0.11985733162E+00  0.88840272370E+00  0.88000000000E+00 0. -1.
        -11    1    4    4    0    0 -0.15329376838E-01  0.37041146705E-01 -0.82287922406E-01  0.91534690901E-01  0.51100000000E-03 0. -1.
         11    1    4    4    0    0  0.19816989498E-02  0.57083524847E-02 -0.39318050211E-01  0.39782943735E-01  0.51100000000E-03 0.  1.
</event>
<event>
 8    1  0.1123285E+005  0.1043930E+01  0.7957747E-01            NaN
         13   -1    0    0    0    0  0.00000000000E+00  0.00000000000E+00  0.74505805969E-08  0.10566000000E+00  0.10566000000E+00 0.  1.
     999900   -1    0    0    0    0 -0.00000000000E+00 -0.00000000000E+00 -0.74505805969E-08  0.93827000000E+00  0.93827000000E+00 0. -1.
     999902    2    1    2    0    0 -0.15579412798E-02 -0.16513530923E-01  0.17780100868E-01  0.10196142464E+01  0.10193242642E+01 0.  0.
     999903    2    3    3    0    0 -0.12034594580E+00 -0.94430206861E-02 -0.42393723754E-01  0.12956847722E+00  0.20455932245E-01 0.  0.
         14    1    1    2    0    0  0.15579412798E-02  0.16513530923E-01 -0.17780100868E-01  0.24315753565E-01  0.00000000000E+00 0. -1.
     999901    1    3    3    0    0  0.11878800452E+00 -0.70705102365E-02  0.60173824622E-01  0.89004576922E+00  0.88000000000E+00 0.  1.
        -11    1    4    4    0    0 -0.67555709578E-01 -0.14520985848E-01 -0.28462820652E-01  0.74733032904E-01  0.51100000000E-03 0.  1.
         11    1    4    4    0    0 -0.52790236223E-01  0.50779651622E-02 -0.13930903101E-01  0.54835444312E-01  0.51100000000E-03 0. -1.
</event>
<event>
 8    1  0.1123285E+005  0.1043930E+01  0.7957747E-01            NaN
         13   -1    0    0    0    0  0.00000000000E+00  0.00000000000E+00  0.74505805969E-08  0.10566000000E+00  0.10566000000E+00 0.  1.
     999900   -1    0    0    0    0 -0.00000000000E+00 -0.00000000000E+00 -0.74505805969E-08  0.93827000000E+00  0.93827000000E+00 0.  1.
     999902    2    1    2    0    0  0.19507499560E-01 -0.59743737710E-02  0.10168660148E-01  0.10211344449E+01  0.10208799720E+01 0.  0.
     999903    2    3    3    0    0  0.41465798524E-02 -0.11166213406E+00  0.68818098380E-01  0.13273947809E+00  0.19955251702E-01 0.  0.
         14    1    1    2    0    0 -0.19507499560E-01  0.59743737710E-02 -0.10168660148E-01  0.22795555055E-01  0.00000000000E+00 0.  1.
     999901    1    3    3    0    0  0.15360919708E-01  0.10568776029E+00 -0.58649438232E-01  0.88839496686E+00  0.88000000000E+00 0.  1.
        -11    1    4    4    0    0  0.25873844480E-02 -0.23766146174E-01  0.24701795021E-01  0.34379704194E-01  0.51100000000E-03 0. -1.
         11    1    4    4    0    0  0.15591954044E-02 -0.87895987891E-01  0.44116303359E-01  0.98359773895E-01  0.51100000000E-03 0.  1.
</event>
<event>
 8    1  0.1123285E+005  0.1043930E+01  0.7957747E-01            NaN
         13   -1    0    0    0    0  0.00000000000E+00  0.00000000000E+00  0.74505805969E-08  0.10566000000E+00  0.10566000000E+00 0.  1.
     999900   -1    0    0    0    0 -0.00000000000E+00 -0.00000000000E+00 -0.74505805969E-08  0.93827000000E+00  0.93827000000E+00 0. -1.
     999902    2    1    2    0    0  0.14118951657E-01 -0.62048659536E-02  0.94082364531E-02  0.10258645614E+01  0.10257054832E+01 0.  0.
     999903    2    3    3    0    0  0.12896152395E+00  0.84294910536E-03  0.43902203396E-01  0.13770448472E+00  0.20083237445E-01 0.  0.
         14    1    1    2    0    0 -0.14118951657E-01  0.62048659536E-02 -0.94082364531E-02  0.18065438565E-01  0.00000000000E+00 0. -1.
     999901    1    3    3    0    0 -0.11484257230E+00 -0.70478150589E-02 -0.34493966943E-01  0.88816007671E+00  0.88000000000E+00 0.  1.
        -11    1    4    4    0    0  0.90734466551E-01  0.91025734242E-02  0.34315934148E-01  0.97434309772E-01  0.51100000000E-03 0. -1.
         11    1    4    4    0    0  0.38227057402E-01 -0.82596243188E-02  0.95862692481E-02  0.40270174952E-01  0.51100000000E-03 0.  1.
</event>
<event>
 8    1  0.1123285E+005  0.1043930E+01  0.7957747E-01            NaN
         13   -1    0    0    0    0  0.00000000000E+00  0.00000000000E+00  0.74505805969E-08  0.10566000000E+00  0.10566000000E+00 0. -1.
     999900   -1    0    0    0    0 -0.00000000000E+00 -0.00000000000E+00 -0.74505805969E-08  0.93827000000E+00  0.93827000000E+00 0.  1.
     999902    2    1    2    0    0 -0.98804349024E-02 -0.20325715074E-01  0.12268176798E-01  0.10182149101E+01  0.10178901401E+01 0.  0.
     999903    2    3    3    0    0 -0.98163773041E-01  0.24729656208E-01  0.79383912318E-01  0.13011105567E+00  0.19478168292E-01 0.  0.
         14    1    1    2    0    0  0.98804349024E-02  0.20325715074E-01 -0.12268176798E-01  0.25715089910E-01  0.00000000000E+00 0. -1.
     999901    1    3    3    0    0  0.88283338139E-01 -0.45055371282E-01 -0.67115735520E-01  0.88810385442E+00  0.88000000000E+00 0.  1.
        -11    1    4    4    0    0 -0.76119567722E-01  0.12094408033E-01  0.53413650990E-01  0.93774956832E-01  0.51100000000E-03 0.  1.
         11    1    4    4    0    0 -0.22044205319E-01  0.12635248176E-01  0.25970261328E-01  0.36336098842E-01  0.51100000000E-03 0. -1.
</event>
<event>
 8    1  0.1123285E+005  0.1043930E+01  0.7957747E-01            NaN
         13   -1    0    0    0    0  0.00000000000E+00  0.00000000000E+00  0.74505805969E-08  0.10566000000E+00  0.10566000000E+00 0. -1.
     999900   -1    0    0    0    0 -0.00000000000E+00 -0.00000000000E+00 -0.74505805969E-08  0.93827000000E+00  0.93827000000E+00 0. -1.
     999902    2    1    2    0    0 -0.13797916241E-01  0.49812431671E-02  0.17813546805E-01  0.10208536544E+01  0.10205928013E+01 0.  0.
     999903    2    3    3    0    0 -0.29872404492E-02 -0.11728137842E+00  0.56770016863E-01  0.13148161420E+00  0.17341704839E-01 0.  0.
         14    1    1    2    0    0  0.13797916241E-01 -0.49812431671E-02 -0.17813546805E-01  0.23076345591E-01  0.00000000000E+00 0.  1.
     999901    1    3    3    0    0 -0.10810675792E-01  0.12226262159E+00 -0.38956470058E-01  0.88937204021E+00  0.88000000000E+00 0.  1.
        -11    1    4    4    0    0 -0.10634877683E-02 -0.10502395738E+00  0.56031205157E-01  0.11904167213E+00  0.51100000000E-03 0.  1.
         11    1    4    4    0    0 -0.19237526809E-02 -0.12257421041E-01  0.73881170608E-03  0.12439942069E-01  0.51100000000E-03 0. -1.
</event>
<event>
 8    1  0.1123285E+005  0.1043930E+01  0.7957747E-01            NaN
         13   -1    0    0    0    0  0.00000000000E+00  0.00000000000E+00  0.74505805969E-08  0.10566000000E+00  0.10566000000E+00 0.  1.
     999900   -1    0    0    0    0 -0.00000000000E+00 -0.00000000000E+00 -0.74505805969E-08  0.93827000000E+00  0.93827000000E+00 0.  1.
     999902    2    1    2    0    0  0.13045848798E-01  0.12421697255E-02 -0.19289407042E-01  0.10206100862E+01  0.10203436331E+01 0.  0.
     999903    2    3    3    0    0  0.32841951803E-02  0.12605271358E+00  0.26910191393E-01  0.13054977101E+00  0.20469777050E-01 0.  0.
         14    1    1    2    0    0 -0.13045848798E-01 -0.12421697255E-02  0.19289407042E-01  0.23319913819E-01  0.00000000000E+00 0.  1.
     999901    1    3    3    0    0  0.97616536179E-02 -0.12481054385E+00 -0.46199598434E-01  0.89006031517E+00  0.88000000000E+00 0.  1.
        -11    1    4    4    0    0  0.11799002179E-01  0.66603934860E-01  0.12512288406E-01  0.68790399573E-01  0.51100000000E-03 0. -1.
         11    1    4    4    0    0 -0.85148069991E-02  0.59448778720E-01  0.14397902986E-01  0.61759371442E-01  0.51100000000E-03 0.  1.
</event>
<event>
 8    1  0.1123285E+005  0.1043930E+01  0.7957747E-01            NaN
         13   -1    0    0    0    0  0.00000000000E+00  0.00000000000E+00  0.74505805969E-08  0.10566000000E+00  0.10566000000E+00 0. -1.
     999900   -1    0    0    0    0 -0.00000000000E+00 -0.00000000000E+00 -0.74505805969E-08  0.93827000000E+00  0.93827000000E+00 0.  1.
     999902    2    1    2    0    0  0.39052614541E-04  0.59837533176E-02  0.22682756128E-01  0.10204712222E+01  0.10202015493E+01 0.  0.
     999903    2    3    3    0    0  0.11186967529E+00  0.18805570879E-02  0.67857890256E-01  0.13223492646E+00  0.19053129942E-01 0.  0.
         14    1    1    2    0    0 -0.39052614541E-04 -0.59837533176E-02 -0.22682756128E-01  0.23458777770E-01  0.00000000000E+00 0.  1.
     999901    1    3    3    0    0 -0.11183062267E+00  0.41031962297E-02 -0.45175134128E-01  0.88823629577E+00  0.88000000000E+00 0.  1.
        -11    1    4    4    0    0  0.10055696277E+00 -0.78532898492E-03  0.66411165192E-01  0.12051150769E+00  0.51100000000E-03 0. -1.
         11    1    4    4    0    0  0.11312712521E-01  0.26658860728E-02  0.14467250642E-02  0.11723418765E-01  0.51100000000E-03 0.  1.
</event>
<event>
 8    1  0.1123285E+005  0.1043930E+01  0.7957747E-01            NaN
         13   -1    0    0    0    0  0.00000000000E+00  0.00000000000E+00  0.74505805969E-08  0.10566000000E+00  0.10566000000E+00 0.  1.
     999900   -1    0    0    0    0 -0.00000000000E+00 -0.00000000000E+00 -0.74505805969E-08  0.93827000000E+00  0.93827000000E+00 0.  1.
     999902    2    1    2    0    0 -0.96939121951E-02  0.63451394787E-02 -0.20198945675E-01  0.10206441645E+01  0.10203784986E+01 0.  0.
     999903    2    3    3    0    0  0.45205096402E-01  0.12034630182E+00  0.15764945444E-01  0.13086690719E+00  0.18731812276E-01 0.  0.
         14    1    1    2    0    0  0.96939121951E-02 -0.63451394787E-02  0.20198945675E-01  0.23285835502E-01  0.00000000000E+00 0.  1.
     999901    1    3    3    0    0 -0.54899008597E-01 -0.11400116234E+00 -0.35963891119E-01  0.88977725731E+00  0.88000000000E+00 0.  1.
        -11    1    4    4    0    0  0.10379456380E-01  0.53416826289E-01  0.48891446377E-02  0.54637489893E-01  0.51100000000E-03 0. -1.
         11    1    4    4    0    0  0.34825640022E-01  0.66929475526E-01  0.10875800806E-01  0.76229417296E-01  0.51100000000E-03 0.  1.
</event>
<event>
 8    1  0.1123285E+005  0.1043930E+01  0.7957747E-01            NaN
         13   -1    0    0    0    0  0.00000000000E+00  0.00000000000E+00  0.74505805969E-08  0.10566000000E+00  0.10566000000E+00 0.  1.
     999900   -1    0    0    0    0 -0.00000000000E+00 -0.00000000000E+00 -0.74505805969E-08  0.93827000000E+00  0.93827000000E+00 0.  1.
     999902    2    1    2    0    0  0.33140466629E-02  0.12819624837E-01 -0.20566003508E-01  0.10194701107E+01  0.10191766384E+01 0.  0.
     999903    2    3    3    0    0 -0.10146805436E+00  0.45798462382E-01 -0.66973422612E-01  0.13142701431E+00  0.19858387198E-01 0.  0.
         14    1    1    2    0    0 -0.33140466629E-02 -0.12819624837E-01  0.20566003508E-01  0.24459889340E-01  0.00000000000E+00 0.  1.
     999901    1    3    3    0    0  0.10478210103E+00 -0.32978837544E-01  0.46407419105E-01  0.88804309635E+00  0.88000000000E+00 0. -1.
        -11    1    4    4    0    0 -0.27104807567E-01  0.48468062204E-02 -0.10546653360E-01  0.29489915935E-01  0.51100000000E-03 0.  1.
         11    1    4    4    0    0 -0.74363246796E-01  0.40951656161E-01 -0.56426769252E-01  0.10193709838E+00  0.51100000000E-03 0. -1.
</event>
<event>
 8    1  0.1123285E+005  0.1043930E+01  0.7957747E-01            NaN
         13   -1    0    0    0    0  0.00000000000E+00  0.00000000000E+00  0.74505805969E-08  0.10566000000E+00  0.10566000000E+00 0. -1.
     999900   -1    0    0    0    0 -0.00000000000E+00 -0.00000000000E+00 -0.74505805969E-08  0.93827000000E+00  0.93827000000E+00 0.  1.
     999902    2    1    2    0    0  0.15291432571E-01  0.17295891454E-01  0.14541712305E-01  0.10166456241E+01  0.10162794339E+01 0.  0.
     999903    2    3    3    0    0  0.11584803689E+00 -0.42054090538E-03  0.54785061762E-01  0.12982826420E+00  0.20809389398E-01 0.  0.
         14    1    1    2    0    0 -0.15291432571E-01 -0.17295891454E-01 -0.14541712305E-01  0.27284375895E-01  0.00000000000E+00 0.  1.
     999901    1    3    3    0    0 -0.10055660432E+00  0.17716432359E-01 -0.40243349457E-01  0.88681735990E+00  0.88000000000E+00 0.  1.
        -11    1    4    4    0    0  0.24596201406E-01 -0.18624210214E-02  0.21365440045E-01  0.32637170297E-01  0.51100000000E-03 0.  1.
         11    1    4    4    0    0  0.91251835486E-01  0.14418801160E-02  0.33419621717E-01  0.97191093906E-01  0.51100000000E-03 0. -1.
</event>
<event>
 8    1  0.1123285E+005  0.1043930E+01  0.7957747E-01            NaN
         13   -1    0    0    0    0  0.00000000000E+00  0.00000000000E+00  0.74505805969E-08  0.10566000000E+00  0.10566000000E+00 0.  1.
     999900   -1    0    0    0    0 -0.00000000000E+00 -0.00000000000E+00 -0.74505805969E-08  0.93827000000E+00  0.93827000000E+00 0. -1.
     999902    2    1    2    0    0 -0.18814227108E-01 -0.10328244324E-01  0.82725919477E-02  0.10209281838E+01  0.10206690320E+01 0.  0.
     999903    2    3    3    0    0 -0.12294067110E+00 -0.41829065929E-01  0.26642554623E-01  0.13403919769E+00  0.19814172497E-01 0.  0.
         14    1    1    2    0    0  0.18814227108E-01  0.10328244324E-01 -0.82725919477E-02  0.23001816233E-01  0.00000000000E+00 0.  1.
     999901    1    3    3    0    0  0.10412644400E+00  0.31500821605E-01 -0.18369962675E-01  0.88688898608E+00  0.88000000000E+00 0. -1.
        -11    1    4    4    0    0 -0.66161040388E-01 -0.19000364015E-01  0.23578645658E-01  0.72763388802E-01  0.51100000000E-03 0.  1.
         11    1    4    4    0    0 -0.56779630716E-01 -0.22828701914E-01  0.30639089646E-02  0.61275808885E-01  0.51100000000E-03 0. -1.
</event>
<event>
 8    1  0.1123285E+005  0.1043930E+01  0.7957747E-01            NaN
         13   -1    0    0    0    0  0.00000000000E+00  0.00000000000E+00  0.74505805969E-08  0.10566000000E+00  0.10566000000E+00 0. -1.
     999900   -1    0    0    0    0 -0.00000000000E+00 -0.00000000000E+00 -0.74505805969E-08  0.93827000000E+00  0.93827000000E+00 0.  1.
     999902    2    1    2    0    0  0.11966038842E-01 -0.16018573273E-01  0.12810757391E-01  0.10201834996E+01  0.10199070922E+01 0.  0.
     999903    2    3    3    0    0  0.49129352477E-02  0.11383384575E+00 -0.54581042491E-01  0.12807753524E+00  0.21035290888E-01 0.  0.
         14    1    1    2    0    0 -0.11966038842E-01  0.16018573273E-01 -0.12810757391E-01  0.23746500378E-01  0.00000000000E+00 0. -1.
     999901    1    3    3    0    0  0.70531035944E-02 -0.12985241902E+00  0.67391799882E-01  0.89210596438E+00  0.88000000000E+00 0.  1.
        -11    1    4    4    0    0  0.24283395219E-02  0.34169821717E-01 -0.61350580937E-02  0.34804792886E-01  0.51100000000E-03 0.  1.
         11    1    4    4    0    0  0.24845957258E-02  0.79664024032E-01 -0.48445984397E-01  0.93272742353E-01  0.51100000000E-03 0. -1.
</event>
<event>
 8    1  0.1123285E+005  0.1043930E+01  0.7957747E-01            NaN
         13   -1    0    0    0    0  0.00000000000E+00  0.00000000000E+00  0.74505805969E-08  0.10566000000E+00  0.10566000000E+00 0.  1.
     999900   -1    0    0    0    0 -0.00000000000E+00 -0.00000000000E+00 -0.74505805969E-08  0.93827000000E+00  0.93827000000E+00 0. -1.
     999902    2    1    2    0    0  0.13066523427E-01 -0.19082771914E-01 -0.50426724518E-02  0.10202590312E+01  0.10199843999E+01 0.  0.
     999903    2    3    3    0    0 -0.13993818456E-01 -0.11023128545E+00  0.68401927763E-01  0.13209551984E+00  0.20582502092E-01 0.  0.
         14    1    1    2    0    0 -0.13066523427E-01  0.19082771914E-01  0.50426724518E-02  0.23670968798E-01  0.00000000000E+00 0.  1.
     999901    1    3    3    0    0  0.27060341883E-01  0.91148513533E-01 -0.73444600215E-01  0.88816351137E+00  0.88000000000E+00 0. -1.
        -11    1    4    4    0    0 -0.12019227118E-01 -0.31012809616E-01  0.25999311231E-01  0.42219444410E-01  0.51100000000E-03 0. -1.
         11    1    4    4    0    0 -0.19745913383E-02 -0.79218475832E-01  0.42402616532E-01  0.89876075425E-01  0.51100000000E-03 0.  1.
</event>
<event>
 8    1  0.1123285E+005  0.1043930E+01  0.7957747E-01            NaN
         13   -1    0    0    0    0  0.00000000000E+00  0.00000000000E+00  0.74505805969E-08  0.10566000000E+00  0.10566000000E+00 0. -1.
     999900   -1    0    0    0    0 -0.00000000000E+00 -0.00000000000E+00 -0.74505805969E-08  0.93827000000E+00  0.93827000000E+00 0. -1.
     999902    2    1    2    0    0 -0.11718829651E-01  0.80840223246E-02  0.18691113876E-01  0.10204344659E+01  0.10201639373E+01 0.  0.
     999903    2    3    3    0    0 -0.81690929854E-01  0.10216321799E+00 -0.49705207778E-03  0.13245069600E+00  0.20789629183E-01 0.  0.
         14    1    1    2    0    0  0.11718829651E-01 -0.80840223246E-02 -0.18691113876E-01  0.23495534113E-01  0.00000000000E+00 0.  1.
     999901    1    3    3    0    0  0.69972100202E-01 -0.94079195661E-01  0.19188165953E-01  0.88798376988E+00  0.88000000000E+00 0.  1.
        -11    1    4    4    0    0 -0.58925868793E-01  0.87036336806E-01 -0.79382031651E-03  0.10511171775E+00  0.51100000000E-03 0. -1.
         11    1    4    4    0    0 -0.22765061061E-01  0.15126881180E-01  0.29676823873E-03  0.27338978250E-01  0.51100000000E-03 0.  1.
</event>
<event>
 8    1  0.1179490E+005  0.1043930E+01  0.7957747E-01            NaN
         13   -1    0    0    0    0  0.00000000000E+00  0.00000000000E+00  0.74505805969E-08  0.10566000000E+00  0.10566000000E+00 0.  1.
     999900   -1    0    0    0    0 -0.00000000000E+00 -0.00000000000E+00 -0.74505805969E-08  0.93827000000E+00  0.93827000000E+00 0. -1.
     999902    2    1    2    0    0  0.20641136528E-01  0.69805458023E-02  0.11320529717E-01  0.10193751852E+01  0.10190794028E+01 0.  0.
     999903    2    3    3    0    0  0.94357418174E-01 -0.82187766494E-03  0.90739765091E-01  0.13269464355E+00  0.21683302573E-01 0.  0.
         14    1    1    2    0    0 -0.20641136528E-01 -0.69805458023E-02 -0.11320529717E-01  0.24554814802E-01  0.00000000000E+00 0. -1.
     999901    1    3    3    0    0 -0.73716281646E-01  0.78024234673E-02 -0.79419235374E-01  0.88668054165E+00  0.88000000000E+00 0. -1.
        -11    1    4    4    0    0  0.36355906706E-01  0.99057947343E-02  0.38981084926E-01  0.54218657533E-01  0.51100000000E-03 0.  1.
         11    1    4    4    0    0  0.58001511468E-01 -0.10727672399E-01  0.51758680166E-01  0.78475986016E-01  0.51100000000E-03 0. -1.
</event>
<event>
 8    1  0.1123285E+005  0.1043930E+01  0.7957747E-01            NaN
         13   -1    0    0    0    0  0.00000000000E+00  0.00000000000E+00  0.74505805969E-08  0.10566000000E+00  0.10566000000E+00 0. -1.
     999900   -1    0    0    0    0 -0.00000000000E+00 -0.00000000000E+00 -0.74505805969E-08  0.93827000000E+00  0.93827000000E+00 0. -1.
     999902    2    1    2    0    0  0.20688186927E-01 -0.89967657738E-02 -0.12531973769E-01  0.10181231552E+01  0.10177960335E+01 0.  0.
     999903    2    3    3    0    0 -0.14540278052E-01 -0.10257583790E+00  0.73097015889E-01  0.12833081348E+00  0.19809133004E-01 0.  0.
         14    1    1    2    0    0 -0.20688186927E-01  0.89967657738E-02  0.12531973769E-01  0.25806844814E-01  0.00000000000E+00 0. -1.
     999901    1    3    3    0    0  0.35228464979E-01  0.93579072126E-01 -0.85628989658E-01  0.88979234170E+00  0.88000000000E+00 0.  1.
        -11    1    4    4    0    0 -0.15875730409E-01 -0.67731541876E-01  0.39983427910E-01  0.80240489838E-01  0.51100000000E-03 0.  1.
         11    1    4    4    0    0  0.13354523563E-02 -0.34844296024E-01  0.33113587979E-01  0.48090323645E-01  0.51100000000E-03 0. -1.
</event>
<event>
 8    1  0.1123285E+005  0.1043930E+01  0.7957747E-01            NaN
         13   -1    0    0    0    0  0.00000000000E+00  0.00000000000E+00  0.74505805969E-08  0.10566000000E+00  0.10566000000E+00 0. -1.
     999900   -1    0    0    0    0 -0.00000000000E+00 -0.00000000000E+00 -0.74505805969E-08  0.93827000000E+00  0.93827000000E+00 0. -1.
     999902    2    1    2    0    0 -0.81125796801E-02 -0.18877295717E-01 -0.11811381758E-01  0.10202303168E+01  0.10199550110E+01 0.  0.
     999903    2    3    3    0    0  0.11763907072E+00  0.36967846413E-01 -0.34014398289E-01  0.12926166901E+00  0.18601805178E-01 0.  0.
         14    1    1    2    0    0  0.81125796801E-02  0.18877295717E-01  0.11811381758E-01  0.23699683156E-01  0.00000000000E+00 0. -1.
     999901    1    3    3    0    0 -0.12575165040E+00 -0.55845142130E-01  0.22203016531E-01  0.89096864783E+00  0.88000000000E+00 0.  1.
        -11    1    4    4    0    0  0.71293369131E-01  0.26462599073E-01 -0.12396003542E-01  0.77051513006E-01  0.51100000000E-03 0. -1.
         11    1    4    4    0    0  0.46345701591E-01  0.10505247341E-01 -0.21618394747E-01  0.52210156005E-01  0.51100000000E-03 0.  1.
</event>
<event>
 8    1  0.1123285E+005  0.1043930E+01  0.7957747E-01            NaN
         13   -1    0    0    0    0  0.00000000000E+00  0.00000000000E+00  0.74505805969E-08  0.10566000000E+00  0.10566000000E+00 0.  1.
     999900   -1    0    0    0    0 -0.00000000000E+00 -0.00000000000E+00 -0.74505805969E-08  0.93827000000E+00  0.93827000000E+00 0.  1.
     999902    2    1    2    0    0  0.21466987085E-01  0.10212338220E-01  0.22539855239E-02  0.10200510587E+01  0.10197715227E+01 0.  0.
     999903    2    3    3    0    0 -0.90530299702E-01 -0.86798173123E-01  0.13107936416E-01  0.12759812448E+00  0.19488595457E-01 0.  0.
         14    1    1    2    0    0 -0.21466987085E-01 -0.10212338220E-01 -0.22539855239E-02  0.23878941291E-01  0.00000000000E+00 0. -1.
     999901    1    3    3    0    0  0.11199728679E+00  0.97010511343E-01 -0.10853950892E-01  0.89245293423E+00  0.88000000000E+00 0. -1.
        -11    1    4    4    0    0 -0.30668978316E-01 -0.17398879376E-01  0.42770876051E-02  0.35522694631E-01  0.51100000000E-03 0. -1.
         11    1    4    4    0    0 -0.59861321386E-01 -0.69399293747E-01  0.88308488109E-02  0.92075429852E-01  0.51100000000E-03 0.  1.
</event>
<event>
 8    1  0.1123285E+005  0.1043930E+01  0.7957747E-01            NaN
         13   -1    0    0    0    0  0.00000000000E+00  0.00000000000E+00  0.74505805969E-08  0.10566000000E+00  0.10566000000E+00 0. -1.
     999900   -1    0    0    0    0 -0.00000000000E+00 -0.00000000000E+00 -0.74505805969E-08  0.93827000000E+00  0.93827000000E+00 0. -1.
     999902    2    1    2    0    0 -0.23117896832E-01  0.14856687867E-02  0.77402414239E-02  0.10195055102E+01  0.10192128971E+01 0.  0.
     999903    2    3    3    0    0 -0.10443953211E-01 -0.27367545916E-02  0.12900494532E+00  0.13108917415E+00  0.20628370735E-01 0.  0.
         14    1    1    2    0    0  0.23117896832E-01 -0.14856687867E-02 -0.77402414239E-02  0.24424489821E-01  0.00000000000E+00 0.  1.
     999901    1    3    3    0    0 -0.12673943622E-01  0.42224233782E-02 -0.12126470390E+00  0.88841633603E+00  0.88000000000E+00 0. -1.
        -11    1    4    4    0    0  0.26079389936E-02 -0.41394364932E-02  0.85564358090E-01  0.85705640285E-01  0.51100000000E-03 0.  1.
         11    1    4    4    0    0 -0.13051892204E-01  0.14026819016E-02  0.43440587229E-01  0.45383533869E-01  0.51100000000E-03 0. -1.
</event>
<event>
 8    1  0.1123285E+005  0.1043930E+01  0.7957747E-01            NaN
         13   -1    0    0    0    0  0.00000000000E+00  0.00000000000E+00  0.74505805969E-08  0.10566000000E+00  0.10566000000E+00 0.  1.
     999900   -1    0    0    0    0 -0.00000000000E+00 -0.00000000000E+00 -0.74505805969E-08  0.93827000000E+00  0.93827000000E+00 0. -1.
     999902    2    1    2    0    0  0.14251158872E-01  0.11469741572E-01  0.14510867386E-01  0.10205801440E+01  0.10203129984E+01 0.  0.
     999903    2    3    3    0    0 -0.21190430340E-01  0.99803008321E-01  0.82645840274E-01  0.13282947702E+00  0.20091297722E-01 0.  0.
         14    1    1    2    0    0 -0.14251158872E-01 -0.11469741572E-01 -0.14510867386E-01  0.23349855958E-01  0.00000000000E+00 0. -1.
     999901    1    3    3    0    0  0.35441589212E-01 -0.88333266749E-01 -0.68134972888E-01  0.88775066702E+00  0.88000000000E+00 0. -1.
        -11    1    4    4    0    0 -0.36486341892E-02  0.39350741101E-01  0.43159915597E-01  0.58522070982E-01  0.51100000000E-03 0. -1.
         11    1    4    4    0    0 -0.17541796151E-01  0.60452267220E-01  0.39485924677E-01  0.74307406043E-01  0.51100000000E-03 0.  1.
</event>
<event>
 8    1  0.1123285E+005  0.1043930E+01  0.7957747E-01            NaN
         13   -1    0    0    0    0  0.00000000000E+00  0.00000000000E+00  0.74505805969E-08  0.10566000000E+00  0.10566000000E+00 0. -1.
     999900   -1    0    0    0    0 -0.00000000000E+00 -0.00000000000E+00 -0.74505805969E-08  0.93827000000E+00  0.93827000000E+00 0. -1.
     999902    2    1    2    0    0  0.89546617489E-02 -0.24209565066E-01  0.17415264623E-01  0.10127919132E+01  0.10123131329E+01 0.  0.
     999903    2    3    3    0    0  0.48775903792E-01 -0.95705588991E-01  0.66153868264E-01  0.12765188798E+00  0.19494144364E-01 0.  0.
         14    1    1    2    0    0 -0.89546617489E-02  0.24209565066E-01 -0.17415264623E-01  0.31138086801E-01  0.00000000000E+00 0.  1.
     999901    1    3    3    0    0 -0.39821242043E-01  0.71496023926E-01 -0.48738603640E-01  0.88514002522E+00  0.88000000000E+00 0.  1.
        -11    1    4    4    0    0  0.16566152728E-01 -0.43520915900E-01  0.19018082638E-01  0.50303639284E-01  0.51100000000E-03 0.  1.
         11    1    4    4    0    0  0.32209751065E-01 -0.52184673091E-01  0.47135785625E-01  0.77348248699E-01  0.51100000000E-03 0. -1.
</event>
<event>
 8    1  0.1326293E+005  0.1043930E+01  0.7957747E-01            NaN
         13   -1    0    0    0    0  0.00000000000E+00  0.00000000000E+00  0.74505805969E-08  0.10566000000E+00  0.10566000000E+00 0.  1.
     999900   -1    0    0    0    0 -0.00000000000E+00 -0.00000000000E+00 -0.74505805969E-08  0.93827000000E+00  0.93827000000E+00 0. -1.
     999902    2    1    2    0    0  0.17375440716E-03  0.71181502459E-02  0.21622210003E-01  0.10211655932E+01  0.10209118230E+01 0.  0.
     999903    2    3    3    0    0  0.12631621415E+00  0.24874822189E-01  0.20108239928E-01  0.13199209397E+00  0.21048249868E-01 0.  0.
         14    1    1    2    0    0 -0.17375440716E-03 -0.71181502459E-02 -0.21622210003E-01  0.22764406843E-01  0.00000000000E+00 0. -1.
     999901    1    3    3    0    0 -0.12614245974E+00 -0.17756671943E-01  0.15139700750E-02  0.88917349919E+00  0.88000000000E+00 0.  1.
        -11    1    4    4    0    0  0.46148465728E-01  0.12844442920E-01  0.17111608455E-01  0.50869724472E-01  0.51100000000E-03 0.  1.
         11    1    4    4    0    0  0.80167748420E-01  0.12030379269E-01  0.29966314734E-02  0.81122369499E-01  0.51100000000E-03 0. -1.
</event>
<event>
 8    1  0.1123285E+005  0.1043930E+01  0.7957747E-01            NaN
         13   -1    0    0    0    0  0.00000000000E+00  0.00000000000E+00  0.74505805969E-08  0.10566000000E+00  0.10566000000E+00 0.  1.
     999900   -1    0    0    0    0 -0.00000000000E+00 -0.00000000000E+00 -0.74505805969E-08  0.93827000000E+00  0.93827000000E+00 0.  1.
     999902    2    1    2    0    0  0.15336962658E-01  0.14749120493E-01 -0.78462944472E-02  0.10212513026E+01  0.10209994612E+01 0.  0.
     999903    2    3    3    0    0  0.10825810410E+00  0.36251255097E-01  0.65106815369E-01  0.13309656578E+00  0.21019700619E-01 0.  0.
         14    1    1    2    0    0 -0.15336962658E-01 -0.14749120493E-01  0.78462944472E-02  0.22678697394E-01  0.00000000000E+00 0.  1.
     999901    1    3    3    0    0 -0.92921141445E-01 -0.21502134604E-01 -0.72953109816E-01  0.88815473683E+00  0.88000000000E+00 0.  1.
        -11    1    4    4    0    0  0.92994051713E-01  0.25035058744E-01  0.60015065452E-01  0.11347562303E+00  0.51100000000E-03 0.  1.
         11    1    4    4    0    0  0.15264052390E-01  0.11216196353E-01  0.50917499171E-02  0.19620942745E-01  0.51100000000E-03 0. -1.
</event>
<event>
 8    1  0.1123285E+005  0.1043930E+01  0.7957747E-01            NaN
         13   -1    0    0    0    0  0.00000000000E+00  0.00000000000E+00  0.74505805969E-08  0.10566000000E+00  0.10566000000E+00 0.  1.
     999900   -1    0    0    0    0 -0.00000000000E+00 -0.00000000000E+00 -0.74505805969E-08  0.93827000000E+00  0.93827000000E+00 0. -1.
     999902    2    1    2    0    0  0.12674354710E-01 -0.10003848592E-01  0.17113618018E-01  0.10204014604E+01  0.10201301624E+01 0.  0.
     999903    2    3    3    0    0 -0.11075841153E+00 -0.64665593897E-01 -0.38428043818E-02  0.12986076744E+00  0.19999675387E-01 0.  0.
         14    1    1    2    0    0 -0.12674354710E-01  0.10003848592E-01 -0.17113618018E-01  0.23528539599E-01  0.00000000000E+00 0. -1.
     999901    1    3    3    0    0  0.12343276624E+00  0.54661745304E-01  0.20956422400E-01  0.89054069296E+00  0.88000000000E+00 0.  1.
        -11    1    4    4    0    0 -0.99487758698E-01 -0.58642131799E-01 -0.95001280099E-02  0.11587591340E+00  0.51100000000E-03 0.  1.
         11    1    4    4    0    0 -0.11270652832E-01 -0.60234620982E-02  0.56573236280E-02  0.13984854041E-01  0.51100000000E-03 0. -1.
</event>
<event>
 8    1  0.1123285E+005  0.1043930E+01  0.7957747E-01            NaN
         13   -1    0    0    0    0  0.00000000000E+00  0.00000000000E+00  0.74505805969E-08  0.10566000000E+00  0.10566000000E+00 0. -1.
     999900   -1    0    0    0    0 -0.00000000000E+00 -0.00000000000E+00 -0.74505805969E-08  0.93827000000E+00  0.93827000000E+00 0.  1.
     999902    2    1    2    0    0 -0.89755400936E-02  0.12750732434E-01  0.17517056913E-01  0.10204781604E+01  0.10202086488E+01 0.  0.
     999903    2    3    3    0    0 -0.97159916785E-01  0.42687245645E-02 -0.83998273210E-01  0.13022325814E+00  0.21074050857E-01 0.  0.
         14    1    1    2    0    0  0.89755400936E-02 -0.12750732434E-01 -0.17517056913E-01  0.23451839597E-01  0.00000000000E+00 0.  1.
     999901    1    3    3    0    0  0.88184376692E-01  0.84820078698E-02  0.10151533012E+00  0.89025490226E+00  0.88000000000E+00 0. -1.
        -11    1    4    4    0    0 -0.50540506731E-01  0.70666725365E-03 -0.29943443474E-01  0.58751281920E-01  0.51100000000E-03 0. -1.
         11    1    4    4    0    0 -0.46619410055E-01  0.35620573109E-02 -0.54054829737E-01  0.71471976221E-01  0.51100000000E-03 0.  1.
</event>
<event>
 8    1  0.1123285E+005  0.1043930E+01  0.7957747E-01            NaN
         13   -1    0    0    0    0  0.00000000000E+00  0.00000000000E+00  0.74505805969E-08  0.10566000000E+00  0.10566000000E+00 0.  1.
     999900   -1    0    0    0    0 -0.00000000000E+00 -0.00000000000E+00 -0.74505805969E-08  0.93827000000E+00  0.93827000000E+00 0.  1.
     999902    2    1    2    0    0  0.20377159794E-01  0.28363357413E-02 -0.11037389683E-01  0.10205826787E+01  0.10203155917E+01 0.  0.
     999903    2    3    3    0    0  0.44861211749E-01 -0.12168724765E+00 -0.71829105744E-02  0.13147050993E+00  0.20312218391E-01 0.  0.
         14    1    1    2    0    0 -0.20377159794E-01 -0.28363357413E-02  0.11037389683E-01  0.23347321317E-01  0.00000000000E+00 0.  1.
     999901    1    3    3    0    0 -0.24484051955E-01  0.12452358339E+00 -0.38544791084E-02  0.88911216876E+00  0.88000000000E+00 0.  1.
        -11    1    4    4    0    0  0.12853351888E-01 -0.57535653212E-01  0.31214581614E-02  0.59038670949E-01  0.51100000000E-03 0. -1.
         11    1    4    4    0    0  0.32007859861E-01 -0.64151594437E-01 -0.10304368736E-01  0.72431838978E-01  0.51100000000E-03 0.  1.
</event>
<event>
 8    1  0.1123285E+005  0.1043930E+01  0.7957747E-01            NaN
         13   -1    0    0    0    0  0.00000000000E+00  0.00000000000E+00  0.74505805969E-08  0.10566000000E+00  0.10566000000E+00 0.  1.
     999900   -1    0    0    0    0 -0.00000000000E+00 -0.00000000000E+00 -0.74505805969E-08  0.93827000000E+00  0.93827000000E+00 0.  1.
     999902    2    1    2    0    0 -0.17189872861E-02  0.22690217504E-01 -0.48591882618E-02  0.10206617255E+01  0.10203964648E+01 0.  0.
     999903    2    3    3    0    0  0.64210951020E-02 -0.17564949155E-01 -0.12907781467E+00  0.13098931021E+00  0.12139161695E-01 0.  0.
         14    1    1    2    0    0  0.17189872861E-02 -0.22690217504E-01  0.48591882618E-02  0.23268274501E-01  0.00000000000E+00 0. -1.
     999901    1    3    3    0    0 -0.81400823881E-02  0.40255166659E-01  0.12421862641E+00  0.88967241529E+00  0.88000000000E+00 0. -1.
        -11    1    4    4    0    0  0.19837959303E-03 -0.35217999909E-02 -0.64869269522E-01  0.64967112287E-01  0.51100000000E-03 0.  1.
         11    1    4    4    0    0  0.62227155090E-02 -0.14043149164E-01 -0.64208545152E-01  0.66022197920E-01  0.51100000000E-03 0. -1.
</event>
<event>
 8    1  0.1123285E+005  0.1043930E+01  0.7957747E-01            NaN
         13   -1    0    0    0    0  0.00000000000E+00  0.00000000000E+00  0.74505805969E-08  0.10566000000E+00  0.10566000000E+00 0. -1.
     999900   -1    0    0    0    0 -0.00000000000E+00 -0.00000000000E+00 -0.74505805969E-08  0.93827000000E+00  0.93827000000E+00 0. -1.
     999902    2    1    2    0    0 -0.20522001792E-01  0.71734066093E-02 -0.87548924119E-02  0.10204937362E+01  0.10202245866E+01 0.  0.
     999903    2    3    3    0    0  0.66735260182E-02  0.74363041172E-02 -0.12988990466E+00  0.13177929553E+00  0.19863555331E-01 0.  0.
         14    1    1    2    0    0  0.20522001792E-01 -0.71734066093E-02  0.87548924119E-02  0.23436263804E-01  0.00000000000E+00 0. -1.
     999901    1    3    3    0    0 -0.27195527810E-01 -0.26289750782E-03  0.12113501225E+00  0.88871444066E+00  0.88000000000E+00 0.  1.
        -11    1    4    4    0    0 -0.28946367621E-02 -0.15075892499E-03 -0.26706367049E-02  0.39743014037E-02  0.51100000000E-03 0.  1.
         11    1    4    4    0    0  0.95681627803E-02  0.75870630421E-02 -0.12721926796E+00  0.12780499413E+00  0.51100000000E-03 0. -1.
</event>
<event>
 8    1  0.1123285E+005  0.1043930E+01  0.7957747E-01            NaN
         13   -1    0    0    0    0  0.00000000000E+00  0.00000000000E+00  0.74505805969E-08  0.10566000000E+00  0.10566000000E+00 0. -1.
     999900   -1    0    0    0    0 -0.00000000000E+00 -0.00000000000E+00 -0.74505805969E-08  0.93827000000E+00  0.93827000000E+00 0.  1.
     999902    2    1    2    0    0  0.19062170037E-01  0.53523839828E-02  0.13725236791E-01  0.10198385811E+01  0.10195539883E+01 0.  0.
     999903    2    3    3    0    0 -0.35953355416E-01  0.10995911892E+00 -0.54447920587E-01  0.12932364217E+00  0.19400432129E-01 0.  0.
         14    1    1    2    0    0 -0.19062170037E-01 -0.53523839828E-02 -0.13725236791E-01  0.24091418925E-01  0.00000000000E+00 0.  1.
     999901    1    3    3    0    0  0.55015525454E-01 -0.10460673494E+00  0.68173157378E-01  0.89051493891E+00  0.88000000000E+00 0. -1.
        -11    1    4    4    0    0 -0.89971441769E-02  0.55554393479E-01 -0.21549214628E-01  0.60264989921E-01  0.51100000000E-03 0.  1.
         11    1    4    4    0    0 -0.26956211240E-01  0.54404725443E-01 -0.32898705959E-01  0.69058652244E-01  0.51100000000E-03 0. -1.
</event>
<event>
 8    1  0.1123285E+005  0.1043930E+01  0.7957747E-01            NaN
         13   -1    0    0    0    0  0.00000000000E+00  0.00000000000E+00  0.74505805969E-08  0.10566000000E+00  0.10566000000E+00 0. -1.
     999900   -1    0    0    0    0 -0.00000000000E+00 -0.00000000000E+00 -0.74505805969E-08  0.93827000000E+00  0.93827000000E+00 0. -1.
     999902    2    1    2    0    0 -0.22529268797E-01 -0.14294841678E-04  0.46291859052E-02  0.10209300539E+01  0.10206709448E+01 0.  0.
     999903    2    3    3    0    0  0.32370519729E-01  0.89516579568E-01  0.87173541409E-01  0.13084953236E+00  0.21478017444E-01 0.  0.
         14    1    1    2    0    0  0.22529268797E-01  0.14294841678E-04 -0.46291859052E-02  0.22999946065E-01  0.00000000000E+00 0. -1.
     999901    1    3    3    0    0 -0.54899788526E-01 -0.89530874410E-01 -0.82544355503E-01  0.89008052157E+00  0.88000000000E+00 0. -1.
        -11    1    4    4    0    0  0.32251535081E-01  0.60562476689E-01  0.60572710291E-01  0.91527533840E-01  0.51100000000E-03 0. -1.
         11    1    4    4    0    0  0.11898464810E-03  0.28954102879E-01  0.26600831118E-01  0.39321998525E-01  0.51100000000E-03 0.  1.
</event>
<event>
 8    1  0.1123285E+005  0.1043930E+01  0.7957747E-01            NaN
         13   -1    0    0    0    0  0.00000000000E+00  0.00000000000E+00  0.74505805969E-08  0.10566000000E+00  0.10566000000E+00 0. -1.
     999900   -1    0    0    0    0 -0.00000000000E+00 -0.00000000000E+00 -0.74505805969E-08  0.93827000000E+00  0.93827000000E+00 0.  1.
     999902    2    1    2    0    0 -0.71126532788E-03 -0.11723418955E-01 -0.21920972289E-01  0.10190608730E+01  0.10187573752E+01 0.  0.
     999903    2    3    3    0    0  0.56405228042E-01 -0.15171798734E-01  0.11102061473E+00  0.12723821650E+00  0.21266255313E-01 0.  0.
         14    1    1    2    0    0  0.71126532788E-03  0.11723418955E-01  0.21920972289E-01  0.24869126974E-01  0.00000000000E+00 0. -1.
     999901    1    3    3    0    0 -0.57116493370E-01  0.34483797793E-02 -0.13294158702E+00  0.89182265653E+00  0.88000000000E+00 0.  1.
        -11    1    4    4    0    0  0.43938238591E-01 -0.40903561244E-02  0.91285370505E-01  0.10139319412E+00  0.51100000000E-03 0. -1.
         11    1    4    4    0    0  0.12466989451E-01 -0.11081442610E-01  0.19735244226E-01  0.25845022382E-01  0.51100000000E-03 0.  1.
</event>
<event>
 8    1  0.1123285E+005  0.1043930E+01  0.7957747E-01            NaN
         13   -1    0    0    0    0  0.00000000000E+00  0.00000000000E+00  0.74505805969E-08  0.10566000000E+00  0.10566000000E+00 0.  1.
     999900   -1    0    0    0    0 -0.00000000000E+00 -0.00000000000E+00 -0.74505805969E-08  0.93827000000E+00  0.93827000000E+00 0. -1.
     999902    2    1    2    0    0 -0.17649844707E-01 -0.18403200515E-01 -0.50764563454E-02  0.10179306689E+01  0.10175985857E+01 0.  0.
     999903    2    3    3    0    0  0.69296744089E-02  0.10677875939E+00 -0.64877396486E-01  0.12672315757E+00  0.19998956102E-01 0.  0.
         14    1    1    2    0    0  0.17649844707E-01  0.18403200515E-01  0.50764563454E-02  0.25999331076E-01  0.00000000000E+00 0.  1.
     999901    1    3    3    0    0 -0.24579519116E-01 -0.12518195991E+00  0.59800940141E-01  0.89120751135E+00  0.88000000000E+00 0.  1.
        -11    1    4    4    0    0  0.86994379152E-02  0.81790794738E-01 -0.58296865976E-01  0.10081765732E+00  0.51100000000E-03 0.  1.
         11    1    4    4    0    0 -0.17697635063E-02  0.24987964657E-01 -0.65805305106E-02  0.25905500254E-01  0.51100000000E-03 0. -1.
</event>
<event>
 8    1  0.1123285E+005  0.1043930E+01  0.7957747E-01            NaN
         13   -1    0    0    0    0  0.00000000000E+00  0.00000000000E+00  0.74505805969E-08  0.10566000000E+00  0.10566000000E+00 0.  1.
     999900   -1    0    0    0    0 -0.00000000000E+00 -0.00000000000E+00 -0.74505805969E-08  0.93827000000E+00  0.93827000000E+00 0. -1.
     999902    2    1    2    0    0 -0.63709094649E-02  0.22031105850E-01  0.65827973524E-02  0.10200701732E+01  0.10197910899E+01 0.  0.
     999903    2    3    3    0    0  0.90862802369E-02  0.25493055385E-01 -0.12524455331E+00  0.13010985940E+00  0.22581430849E-01 0.  0.
         14    1    1    2    0    0  0.63709094649E-02 -0.22031105850E-01 -0.65827973524E-02  0.23859826767E-01  0.00000000000E+00 0. -1.
     999901    1    3    3    0    0 -0.15457189702E-01 -0.34619495354E-02  0.13182735066E+00  0.88996031383E+00  0.88000000000E+00 0.  1.
        -11    1    4    4    0    0 -0.51533817957E-02 -0.81530724123E-03 -0.22124656287E-01  0.22737273510E-01  0.51100000000E-03 0. -1.
         11    1    4    4    0    0  0.14239662033E-01  0.26308362627E-01 -0.10311989702E+00  0.10737258589E+00  0.51100000000E-03 0.  1.
</event>
<event>
 8    1  0.1123285E+005  0.1043930E+01  0.7957747E-01            NaN
         13   -1    0    0    0    0  0.00000000000E+00  0.00000000000E+00  0.74505805969E-08  0.10566000000E+00  0.10566000000E+00 0. -1.
     999900   -1    0    0    0    0 -0.00000000000E+00 -0.00000000000E+00 -0.74505805969E-08  0.93827000000E+00  0.93827000000E+00 0.  1.
     999902    2    1    2    0    0 -0.15861956380E-01  0.99015344343E-02 -0.15196892251E-01  0.10198346150E+01  0.10195499274E+01 0.  0.
     999903    2    3    3    0    0 -0.10325329390E+00  0.80703455142E-01  0.27981685608E-02  0.13249365456E+00  0.19298921732E-01 0.  0.
         14    1    1    2    0    0  0.15861956380E-01 -0.99015344343E-02  0.15196892251E-01  0.24095385003E-01  0.00000000000E+00 0. -1.
     999901    1    3    3    0    0  0.87391337517E-01 -0.70801920708E-01 -0.17995060811E-01  0.88734096043E+00  0.88000000000E+00 0.  1.
        -11    1    4    4    0    0 -0.55572450898E-01  0.37880775564E-01  0.10015643799E-01  0.67998711001E-01  0.51100000000E-03 0.  1.
         11    1    4    4    0    0 -0.47680842999E-01  0.42822679579E-01 -0.72174752383E-02  0.64494943563E-01  0.51100000000E-03 0. -1.
</event>
<event>
 8    1  0.1123285E+005  0.1043930E+01  0.7957747E-01            NaN
         13   -1    0    0    0    0  0.00000000000E+00  0.00000000000E+00  0.74505805969E-08  0.10566000000E+00  0.10566000000E+00 0. -1.
     999900   -1    0    0    0    0 -0.00000000000E+00 -0.00000000000E+00 -0.74505805969E-08  0.93827000000E+00  0.93827000000E+00 0.  1.
     999902    2    1    2    0    0  0.76787421079E-02 -0.74022880259E-02 -0.21351739397E-01  0.10200625803E+01  0.10197833172E+01 0.  0.
     999903    2    3    3    0    0 -0.50812201765E-01  0.23638582085E-01  0.11289455501E+00  0.12742223071E+00  0.18723832904E-01 0.  0.
         14    1    1    2    0    0 -0.76787421079E-02  0.74022880259E-02  0.21351739397E-01  0.23867419711E-01  0.00000000000E+00 0. -1.
     999901    1    3    3    0    0  0.58490943873E-01 -0.31040870111E-01 -0.13424629440E+00  0.89264034958E+00  0.88000000000E+00 0.  1.
        -11    1    4    4    0    0 -0.23882584269E-01  0.10119246669E-02  0.45819383146E-01  0.51682480743E-01  0.51100000000E-03 0. -1.
         11    1    4    4    0    0 -0.26929617496E-01  0.22626657418E-01  0.67075171859E-01  0.75739749969E-01  0.51100000000E-03 0.  1.
</event>
<event>
 8    1  0.1123285E+005  0.1043930E+01  0.7957747E-01            NaN
         13   -1    0    0    0    0  0.00000000000E+00  0.00000000000E+00  0.74505805969E-08  0.10566000000E+00  0.10566000000E+00 0.  1.
     999900   -1    0    0    0    0 -0.00000000000E+00 -0.00000000000E+00 -0.74505805969E-08  0.93827000000E+00  0.93827000000E+00 0.  1.
     999902    2    1    2    0    0 -0.21238222786E-01 -0.66168709478E-02 -0.53934717384E-02  0.10210403817E+01  0.10207837805E+01 0.  0.
     999903    2    3    3    0    0  0.38475706828E-01 -0.12414735135E+00 -0.52173799616E-02  0.13122062568E+00  0.17282554393E-01 0.  0.
         14    1    1    2    0    0  0.21238222786E-01  0.66168709478E-02  0.53934717384E-02  0.22889618294E-01  0.00000000000E+00 0.  1.
     999901    1    3    3    0    0 -0.59713929613E-01  0.11753048040E+00 -0.17609177682E-03  0.88981975603E+00  0.88000000000E+00 0.  1.
        -11    1    4    4    0    0  0.17638940205E-01 -0.76899772531E-01  0.28689435681E-02  0.78950612316E-01  0.51100000000E-03 0.  1.
         11    1    4    4    0    0  0.20836766623E-01 -0.47247578818E-01 -0.80863235297E-02  0.52270013360E-01  0.51100000000E-03 0. -1.
</event>
<event>
 8    1  0.1123285E+005  0.1043930E+01  0.7957747E-01            NaN
         13   -1    0    0    0    0  0.00000000000E+00  0.00000000000E+00  0.74505805969E-08  0.10566000000E+00  0.10566000000E+00 0. -1.
     999900   -1    0    0    0    0 -0.00000000000E+00 -0.00000000000E+00 -0.74505805969E-08  0.93827000000E+00  0.93827000000E+00 0. -1.
     999902    2    1    2    0    0 -0.11311200354E-01  0.20707091611E-01 -0.45130513605E-02  0.10199072081E+01  0.10196242537E+01 0.  0.
     999903    2    3    3    0    0 -0.78906512856E-01  0.10298477513E+00  0.21697886965E-01  0.13310071472E+00  0.20319947822E-01 0.  0.
         14    1    1    2    0    0  0.11311200354E-01 -0.20707091611E-01  0.45130513605E-02  0.24022791865E-01  0.00000000000E+00 0. -1.
     999901    1    3    3    0    0  0.67595312502E-01 -0.82277683523E-01 -0.26210938325E-01  0.88680649342E+00  0.88000000000E+00 0.  1.
        -11    1    4    4    0    0 -0.29757393124E-01  0.45399135401E-01  0.18401714804E-01  0.57319003563E-01  0.51100000000E-03 0. -1.
         11    1    4    4    0    0 -0.49149119731E-01  0.57585639732E-01  0.32961721612E-02  0.75781711155E-01  0.51100000000E-03 0.  1.
</event>
<event>
 8    1  0.1123285E+005  0.1043930E+01  0.7957747E-01            NaN
         13   -1    0    0    0    0  0.00000000000E+00  0.00000000000E+00  0.74505805969E-08  0.10566000000E+00  0.10566000000E+00 0. -1.
     999900   -1    0    0    0    0 -0.00000000000E+00 -0.00000000000E+00 -0.74505805969E-08  0.93827000000E+00  0.93827000000E+00 0. -1.
     999902    2    1    2    0    0 -0.32488588594E-03 -0.16470768921E-01 -0.15888829150E-01  0.10210423031E+01  0.10207857454E+01 0.  0.
     999903    2    3    3    0    0 -0.12184921188E+00  0.13580555303E-01 -0.43907869454E-01  0.13174127949E+00  0.19904818581E-01 0.  0.
         14    1    1    2    0    0  0.32488588594E-03  0.16470768921E-01  0.15888829150E-01  0.22887696945E-01  0.00000000000E+00 0. -1.
     999901    1    3    3    0    0  0.12152432600E+00 -0.30051324224E-01  0.28019040304E-01  0.88930102357E+00  0.88000000000E+00 0. -1.
        -11    1    4    4    0    0 -0.79100511902E-01  0.13038232944E-01 -0.19489513223E-01  0.82504477140E-01  0.51100000000E-03 0. -1.
         11    1    4    4    0    0 -0.42748699980E-01  0.54232235990E-03 -0.24418356231E-01  0.49236802349E-01  0.51100000000E-03 0.  1.
</event>
<event>
 8    1  0.1123285E+005  0.1043930E+01  0.7957747E-01            NaN
         13   -1    0    0    0    0  0.00000000000E+00  0.00000000000E+00  0.74505805969E-08  0.10566000000E+00  0.10566000000E+00 0.  1.
     999900   -1    0    0    0    0 -0.00000000000E+00 -0.00000000000E+00 -0.74505805969E-08  0.93827000000E+00  0.93827000000E+00 0.  1.
     999902    2    1    2    0    0  0.13921334057E-01 -0.85962866418E-02 -0.16946958989E-01  0.10203737035E+01  0.10201017575E+01 0.  0.
     999903    2    3    3    0    0  0.11837409004E+00  0.45774936635E-01  0.27867417249E-01  0.13139961137E+00  0.19531894629E-01 0.  0.
         14    1    1    2    0    0 -0.13921334057E-01  0.85962866418E-02  0.16946958989E-01  0.23556296503E-01  0.00000000000E+00 0. -1.
     999901    1    3    3    0    0 -0.10445275598E+00 -0.54371223276E-01 -0.44814376238E-01  0.88897409213E+00  0.88000000000E+00 0. -1.
        -11    1    4    4    0    0  0.90570803487E-01  0.30476070452E-01  0.28278317384E-01  0.99658344706E-01  0.51100000000E-03 0.  1.
         11    1    4    4    0    0  0.27803286553E-01  0.15298866183E-01 -0.41090013486E-03  0.31741266666E-01  0.51100000000E-03 0. -1.
</event>
<event>
 8    1  0.1123285E+005  0.1043930E+01  0.7957747E-01            NaN
         13   -1    0    0    0    0  0.00000000000E+00  0.00000000000E+00  0.74505805969E-08  0.10566000000E+00  0.10566000000E+00 0. -1.
     999900   -1    0    0    0    0 -0.00000000000E+00 -0.00000000000E+00 -0.74505805969E-08  0.93827000000E+00  0.93827000000E+00 0. -1.
     999902    2    1    2    0    0  0.22679435042E-02 -0.24332075954E-01  0.13822310765E-02  0.10194533979E+01  0.10191595196E+01 0.  0.
     999903    2    3    3    0    0 -0.49855881835E-02  0.88523723822E-01 -0.89817594939E-01  0.12754171307E+00  0.18395174431E-01 0.  0.
         14    1    1    2    0    0 -0.22679435042E-02  0.24332075954E-01 -0.13822310765E-02  0.24476602107E-01  0.00000000000E+00 0. -1.
     999901    1    3    3    0    0  0.72535316878E-02 -0.11285579978E+00  0.91199826016E-01  0.89191168483E+00  0.88000000000E+00 0.  1.
        -11    1    4    4    0    0 -0.90048308024E-02  0.44637019500E-01 -0.36466182706E-01  0.58340329873E-01  0.51100000000E-03 0.  1.
         11    1    4    4    0    0  0.40192426188E-02  0.43886704322E-01 -0.53351412234E-01  0.69201383193E-01  0.51100000000E-03 0. -1.
</event>
<event>
 8    1  0.1123285E+005  0.1043930E+01  0.7957747E-01            NaN
         13   -1    0    0    0    0  0.00000000000E+00  0.00000000000E+00  0.74505805969E-08  0.10566000000E+00  0.10566000000E+00 0. -1.
     999900   -1    0    0    0    0 -0.00000000000E+00 -0.00000000000E+00 -0.74505805969E-08  0.93827000000E+00  0.93827000000E+00 0. -1.
     999902    2    1    2    0    0 -0.10993516975E-01 -0.13732161449E-01 -0.16284170427E-01  0.10199591035E+01  0.10196773847E+01 0.  0.
     999903    2    3    3    0    0 -0.10976681662E+00 -0.53030981533E-01  0.44932277709E-01  0.13145023155E+00  0.19980359380E-01 0.  0.
         14    1    1    2    0    0  0.10993516975E-01  0.13732161449E-01  0.16284170427E-01  0.23970896521E-01  0.00000000000E+00 0. -1.
     999901    1    3    3    0    0  0.98773299641E-01  0.39298820084E-01 -0.61216448137E-01  0.88850887193E+00  0.88000000000E+00 0. -1.
        -11    1    4    4    0    0 -0.58236881581E-01 -0.31031512163E-01  0.34466755917E-01  0.74449362038E-01  0.51100000000E-03 0.  1.
         11    1    4    4    0    0 -0.51529935034E-01 -0.21999469369E-01  0.10465521792E-01  0.57000869507E-01  0.51100000000E-03 0. -1.
</event>
<event>
 8    1  0.1123285E+005  0.1043930E+01  0.7957747E-01            NaN
         13   -1    0    0    0    0  0.00000000000E+00  0.00000000000E+00  0.74505805969E-08  0.10566000000E+00  0.10566000000E+00 0. -1.
     999900   -1    0    0    0    0 -0.00000000000E+00 -0.00000000000E+00 -0.74505805969E-08  0.93827000000E+00  0.93827000000E+00 0. -1.
     999902    2    1    2    0    0  0.75427313279E-02 -0.16880122938E-01  0.14043226668E-01  0.10207126883E+01  0.10204486016E+01 0.  0.
     999903    2    3    3    0    0 -0.10008244262E+00  0.74439689046E-01 -0.24146047680E-01  0.12864716001E+00  0.20231103104E-01 0.  0.
         14    1    1    2    0    0 -0.75427313279E-02  0.16880122938E-01 -0.14043226668E-01  0.23217311678E-01  0.00000000000E+00 0.  1.
     999901    1    3    3    0    0  0.10762517395E+00 -0.91319811985E-01  0.38189274348E-01  0.89206552831E+00  0.88000000000E+00 0. -1.
        -11    1    4    4    0    0 -0.20988468225E-01  0.22141050229E-01  0.10638393923E-02  0.30530882381E-01  0.51100000000E-03 0. -1.
         11    1    4    4    0    0 -0.79093974400E-01  0.52298638817E-01 -0.25209887073E-01  0.98116277629E-01  0.51100000000E-03 0.  1.
</event>
<event>
 8    1  0.1170618E+005  0.1043930E+01  0.7957747E-01            NaN
         13   -1    0    0    0    0  0.00000000000E+00  0.00000000000E+00  0.74505805969E-08  0.10566000000E+00  0.10566000000E+00 0.  1.
     999900   -1    0    0    0    0 -0.00000000000E+00 -0.00000000000E+00 -0.74505805969E-08  0.93827000000E+00  0.93827000000E+00 0. -1.
     999902    2    1    2    0    0  0.18523880099E-01  0.19873614598E-02 -0.14619023291E-01  0.10202487927E+01  0.10199739209E+01 0.  0.
     999903    2    3    3    0    0 -0.20157891658E-01  0.38793442286E-01  0.11921212870E+00  0.12853037056E+00  0.19931200843E-01 0.  0.
         14    1    1    2    0    0 -0.18523880099E-01 -0.19873614598E-02  0.14619023291E-01  0.23681207348E-01  0.00000000000E+00 0.  1.
     999901    1    3    3    0    0  0.38681771757E-01 -0.36806080827E-01 -0.13383115199E+00  0.89171842209E+00  0.88000000000E+00 0. -1.
        -11    1    4    4    0    0  0.29192701362E-03  0.70642999300E-02  0.41876909499E-01  0.42472652673E-01  0.51100000000E-03 0.  1.
         11    1    4    4    0    0 -0.20449818672E-01  0.31729142356E-01  0.77335219200E-01  0.86057717888E-01  0.51100000000E-03 0. -1.
</event>
<event>
 8    1  0.1123285E+005  0.1043930E+01  0.7957747E-01            NaN
         13   -1    0    0    0    0  0.00000000000E+00  0.00000000000E+00  0.74505805969E-08  0.10566000000E+00  0.10566000000E+00 0.  1.
     999900   -1    0    0    0    0 -0.00000000000E+00 -0.00000000000E+00 -0.74505805969E-08  0.93827000000E+00  0.93827000000E+00 0.  1.
     999902    2    1    2    0    0  0.58947064432E-02  0.81663865286E-02 -0.21797777406E-01  0.10199179086E+01  0.10196352092E+01 0.  0.
     999903    2    3    3    0    0 -0.96646575742E-01  0.81146282333E-01  0.25346821563E-01  0.12971377868E+00  0.16059989913E-01 0.  0.
         14    1    1    2    0    0 -0.58947064432E-02 -0.81663865286E-02  0.21797777406E-01  0.24012091388E-01  0.00000000000E+00 0.  1.
     999901    1    3    3    0    0  0.10254128218E+00 -0.72979895804E-01 -0.47144598969E-01  0.89020412994E+00  0.88000000000E+00 0.  1.
        -11    1    4    4    0    0 -0.58263778235E-01  0.44701769775E-01  0.22063208611E-01  0.76680912686E-01  0.51100000000E-03 0.  1.
         11    1    4    4    0    0 -0.38382797507E-01  0.36444512557E-01  0.32836129515E-02  0.53032865989E-01  0.51100000000E-03 0. -1.
</event>
<event>
 8    1  0.1123285E+005  0.1043930E+01  0.7957747E-01            NaN
         13   -1    0    0    0    0  0.00000000000E+00  0.00000000000E+00  0.74505805969E-08  0.10566000000E+00  0.10566000000E+00 0. -1.
     999900   -1    0    0    0    0 -0.00000000000E+00 -0.00000000000E+00 -0.74505805969E-08  0.93827000000E+00  0.93827000000E+00 0. -1.
     999902    2    1    2    0    0  0.19814385408E-01  0.12592335194E-01 -0.53290589809E-02  0.10198556227E+01  0.10195714371E+01 0.  0.
     999903    2    3    3    0    0  0.55285514557E-01  0.10438047288E+00 -0.57265144164E-01  0.13284907242E+00  0.20440353944E-01 0.  0.
         14    1    1    2    0    0 -0.19814385408E-01 -0.12592335194E-01  0.53290589809E-02  0.24074377341E-01  0.00000000000E+00 0.  1.
     999901    1    3    3    0    0 -0.35471129149E-01 -0.91788137681E-01  0.51936085183E-01  0.88700655024E+00  0.88000000000E+00 0.  1.
        -11    1    4    4    0    0 -0.55332216463E-03  0.83848256876E-02 -0.69951375328E-02  0.10945525905E-01  0.51100000000E-03 0.  1.
         11    1    4    4    0    0  0.55838836722E-01  0.95995647188E-01 -0.50270006631E-01  0.12190354652E+00  0.51100000000E-03 0. -1.
</event>
<event>
 8    1  0.1123285E+005  0.1043930E+01  0.7957747E-01            NaN
         13   -1    0    0    0    0  0.00000000000E+00  0.00000000000E+00  0.74505805969E-08  0.10566000000E+00  0.10566000000E+00 0. -1.
     999900   -1    0    0    0    0 -0.00000000000E+00 -0.00000000000E+00 -0.74505805969E-08  0.93827000000E+00  0.93827000000E+00 0.  1.
     999902    2    1    2    0    0  0.20386053675E-01 -0.50873793284E-02  0.86208071803E-02  0.10212189690E+01  0.10209664009E+01 0.  0.
     999903    2    3    3    0    0  0.10059952617E+00 -0.74116639709E-01  0.44699802734E-01  0.13414460127E+00  0.19574491989E-01 0.  0.
         14    1    1    2    0    0 -0.20386053675E-01  0.50873793284E-02 -0.86208071803E-02  0.22711031005E-01  0.00000000000E+00 0.  1.
     999901    1    3    3    0    0 -0.80213472499E-01  0.69029260381E-01 -0.36078995554E-01  0.88707436773E+00  0.88000000000E+00 0.  1.
        -11    1    4    4    0    0  0.10301022154E-01 -0.12162977430E-02  0.45965935559E-02  0.11356946373E-01  0.51100000000E-03 0.  1.
         11    1    4    4    0    0  0.90298504020E-01 -0.72900341966E-01  0.40103209178E-01  0.12278765489E+00  0.51100000000E-03 0. -1.
</event>
<event>
 8    1  0.1123285E+005  0.1043930E+01  0.7957747E-01            NaN
         13   -1    0    0    0    0  0.00000000000E+00  0.00000000000E+00  0.74505805969E-08  0.10566000000E+00  0.10566000000E+00 0. -1.
     999900   -1    0    0    0    0 -0.00000000000E+00 -0.00000000000E+00 -0.74505805969E-08  0.93827000000E+00  0.93827000000E+00 0.  1.
     999902    2    1    2    0    0  0.24071784558E-01 -0.99240252722E-03  0.70684395867E-02  0.10188222619E+01  0.10185128388E+01 0.  0.
     999903    2    3    3    0    0 -0.69850906441E-01 -0.56156408986E-01  0.89598932434E-01  0.12827421617E+00  0.19839718748E-01 0.  0.
         14    1    1    2    0    0 -0.24071784558E-01  0.99240252722E-03 -0.70684395867E-02  0.25107738106E-01  0.00000000000E+00 0.  1.
     999901    1    3    3    0    0  0.93922690999E-01  0.55164006459E-01 -0.82530492847E-01  0.89054804572E+00  0.88000000000E+00 0.  1.
        -11    1    4    4    0    0 -0.89351062913E-02 -0.16360364254E-01  0.23218388874E-01  0.29780066251E-01  0.51100000000E-03 0. -1.
         11    1    4    4    0    0 -0.60915800150E-01 -0.39796044732E-01  0.66380543559E-01  0.98494149920E-01  0.51100000000E-03 0.  1.
</event>
<event>
 8    1  0.1123285E+005  0.1043930E+01  0.7957747E-01            NaN
         13   -1    0    0    0    0  0.00000000000E+00  0.00000000000E+00  0.74505805969E-08  0.10566000000E+00  0.10566000000E+00 0.  1.
     999900   -1    0    0    0    0 -0.00000000000E+00 -0.00000000000E+00 -0.74505805969E-08  0.93827000000E+00  0.93827000000E+00 0. -1.
     999902    2    1    2    0    0  0.77161216734E-02 -0.99491067411E-02 -0.19269010920E-01  0.10209122234E+01  0.10206527077E+01 0.  0.
     999903    2    3    3    0    0 -0.10827249237E+00  0.76220912224E-02  0.66794734829E-01  0.12896543466E+00  0.19736206770E-01 0.  0.
         14    1    1    2    0    0 -0.77161216734E-02  0.99491067411E-02  0.19269010920E-01  0.23017776618E-01  0.00000000000E+00 0.  1.
     999901    1    3    3    0    0  0.11598861404E+00 -0.17571197963E-01 -0.86063745749E-01  0.89194678873E+00  0.88000000000E+00 0.  1.
        -11    1    4    4    0    0 -0.34980007745E-01 -0.67426942580E-02  0.22082180529E-01  0.41915971725E-01  0.51100000000E-03 0.  1.
         11    1    4    4    0    0 -0.73292484620E-01  0.14364785480E-01  0.44712554300E-01  0.87049462932E-01  0.51100000000E-03 0. -1.
</event>
<event>
 8    1  0.1123285E+005  0.1043930E+01  0.7957747E-01            NaN
         13   -1    0    0    0    0  0.00000000000E+00  0.00000000000E+00  0.74505805969E-08  0.10566000000E+00  0.10566000000E+00 0. -1.
     999900   -1    0    0    0    0 -0.00000000000E+00 -0.00000000000E+00 -0.74505805969E-08  0.93827000000E+00  0.93827000000E+00 0. -1.
     999902    2    1    2    0    0  0.11165792719E-01  0.17231504976E-01  0.10165514183E-01  0.10210184883E+01  0.10207613904E+01 0.  0.
     999903    2    3    3    0    0 -0.10892183079E-01  0.30712464493E-01  0.12730574778E+00  0.13287991525E+00  0.19708458434E-01 0.  0.
         14    1    1    2    0    0 -0.11165792719E-01 -0.17231504976E-01 -0.10165514183E-01  0.22911511722E-01  0.00000000000E+00 0. -1.
     999901    1    3    3    0    0  0.22057975798E-01 -0.13480959517E-01 -0.11714023359E+00  0.88813857302E+00  0.88000000000E+00 0. -1.
        -11    1    4    4    0    0  0.49510171776E-02  0.49734493735E-02  0.14856262661E-01  0.16438291609E-01  0.51100000000E-03 0. -1.
         11    1    4    4    0    0 -0.15843200256E-01  0.25739015119E-01  0.11244948511E+00  0.11644162365E+00  0.51100000000E-03 0.  1.
</event>
<event>
 8    1  0.1123285E+005  0.1043930E+01  0.7957747E-01            NaN
         13   -1    0    0    0    0  0.00000000000E+00  0.00000000000E+00  0.74505805969E-08  0.10566000000E+00  0.10566000000E+00 0.  1.
     999900   -1    0    0    0    0 -0.00000000000E+00 -0.00000000000E+00 -0.74505805969E-08  0.93827000000E+00  0.93827000000E+00 0. -1.
     999902    2    1    2    0    0  0.14668748888E-01  0.16572043710E-01 -0.19586617261E-01  0.10143759749E+01  0.10139453525E+01 0.  0.
     999903    2    3    3    0    0  0.27266923964E-01  0.74637388602E-01  0.93429159087E-01  0.12516122914E+00  0.24941944433E-01 0.  0.
         14    1    1    2    0    0 -0.14668748888E-01 -0.16572043710E-01  0.19586617261E-01  0.29554025147E-01  0.00000000000E+00 0. -1.
     999901    1    3    3    0    0 -0.12598175076E-01 -0.58065344891E-01 -0.11301577635E+00  0.88921474571E+00  0.88000000000E+00 0. -1.
        -11    1    4    4    0    0  0.89824319728E-02  0.10607282091E-01  0.30579890077E-01  0.33594483410E-01  0.51100000000E-03 0. -1.
         11    1    4    4    0    0  0.18284491991E-01  0.64030106511E-01  0.62849269010E-01  0.91566745728E-01  0.51100000000E-03 0.  1.
</event>
<event>
 7    1  0.1123285E+005  0.1043930E+01  0.7957747E-01            NaN
         13   -1    0    0    0    0  0.00000000000E+00  0.00000000000E+00  0.74505805969E-08  0.10566000000E+00  0.10566000000E+00 0. -1.
     999900   -1    0    0    0    0 -0.00000000000E+00 -0.00000000000E+00 -0.74505805969E-08  0.93827000000E+00  0.93827000000E+00 0.  1.
     999903    2    1    2    0    0 -0.58309590518E-01 -0.68106292356E-01  0.54906600314E-01  0.10705591335E+00  0.20193028978E-01 0.  0.
         14    1    1    2    0    0 -0.17248359211E-01 -0.35257274687E-01  0.20747350635E-01  0.44396327238E-01  0.00000000000E+00 0.  1.
     999901    1    1    2    0    0  0.75557949729E-01  0.10336356704E+00 -0.75653950949E-01  0.89247775942E+00  0.88000000000E+00 0.  1.
        -11    1    3    3    0    0 -0.24825803862E-01 -0.30682565322E-01  0.35915203774E-01  0.53365750583E-01  0.51100000000E-03 0.  1.
         11    1    3    3    0    0 -0.33483786656E-01 -0.37423727033E-01  0.18991396540E-01  0.53690162762E-01  0.51100000000E-03 0. -1.
</event>
<event>
 8    1  0.1123285E+005  0.1043930E+01  0.7957747E-01            NaN
         13   -1    0    0    0    0  0.00000000000E+00  0.00000000000E+00  0.74505805969E-08  0.10566000000E+00  0.10566000000E+00 0. -1.
     999900   -1    0    0    0    0 -0.00000000000E+00 -0.00000000000E+00 -0.74505805969E-08  0.93827000000E+00  0.93827000000E+00 0.  1.
     999902    2    1    2    0    0  0.65227793832E-02  0.20463224478E-01  0.56166717900E-02  0.10217300629E+01  0.10214888566E+01 0.  0.
     999903    2    3    3    0    0 -0.81255956473E-02 -0.92102252393E-01 -0.88545667289E-01  0.12945650191E+00  0.19230197364E-01 0.  0.
         14    1    1    2    0    0 -0.65227793832E-02 -0.20463224478E-01 -0.56166717900E-02  0.22199937137E-01  0.00000000000E+00 0.  1.
     999901    1    3    3    0    0  0.14648375030E-01  0.11256547687E+00  0.94162339079E-01  0.89227356095E+00  0.88000000000E+00 0.  1.
        -11    1    4    4    0    0  0.34147950460E-02 -0.32872782440E-01 -0.40788243682E-01  0.52499738992E-01  0.51100000000E-03 0.  1.
         11    1    4    4    0    0 -0.11540390693E-01 -0.59229469953E-01 -0.47757423607E-01  0.76956762918E-01  0.51100000000E-03 0. -1.
</event>
<event>
 8    1  0.1123285E+005  0.1043930E+01  0.7957747E-01            NaN
         13   -1    0    0    0    0  0.00000000000E+00  0.00000000000E+00  0.74505805969E-08  0.10566000000E+00  0.10566000000E+00 0.  1.
     999900   -1    0    0    0    0 -0.00000000000E+00 -0.00000000000E+00 -0.74505805969E-08  0.93827000000E+00  0.93827000000E+00 0.  1.
     999902    2    1    2    0    0  0.17507931287E-01 -0.93663734599E-02  0.12115831762E-01  0.10206695187E+01  0.10204044377E+01 0.  0.
     999903    2    3    3    0    0 -0.10345421851E+00  0.71411841648E-01 -0.15329786661E-01  0.12830735924E+00  0.20624005949E-01 0.  0.
         14    1    1    2    0    0 -0.17507931287E-01  0.93663734599E-02 -0.12115831762E-01  0.23260481272E-01  0.00000000000E+00 0. -1.
     999901    1    3    3    0    0  0.12096214979E+00 -0.80778215108E-01  0.27445618423E-01  0.89236215949E+00  0.88000000000E+00 0.  1.
        -11    1    4    4    0    0 -0.82504482069E-01  0.56336635918E-01 -0.20481999113E-01  0.10198323155E+00  0.51100000000E-03 0. -1.
         11    1    4    4    0    0 -0.20949736437E-01  0.15075205730E-01  0.51522124517E-02  0.26324127691E-01  0.51100000000E-03 0.  1.
</event>
<event>
 8    1  0.1123285E+005  0.1043930E+01  0.7957747E-01            NaN
         13   -1    0    0    0    0  0.00000000000E+00  0.00000000000E+00  0.74505805969E-08  0.10566000000E+00  0.10566000000E+00 0. -1.
     999900   -1    0    0    0    0 -0.00000000000E+00 -0.00000000000E+00 -0.74505805969E-08  0.93827000000E+00  0.93827000000E+00 0.  1.
     999902    2    1    2    0    0  0.10748133145E-02 -0.80095162000E-02  0.22557460129E-01  0.10199686440E+01  0.10196871521E+01 0.  0.
     999903    2    3    3    0    0 -0.12701438509E+00  0.17354251433E-01  0.85924111188E-02  0.13022419415E+00  0.21229393557E-01 0.  0.
         14    1    1    2    0    0 -0.10748133145E-02  0.80095162000E-02 -0.22557460129E-01  0.23961355990E-01  0.00000000000E+00 0.  1.
     999901    1    3    3    0    0  0.12808919841E+00 -0.25363767633E-01  0.13965049010E-01  0.88974444986E+00  0.88000000000E+00 0.  1.
        -11    1    4    4    0    0 -0.10000746160E+00  0.11128014107E-01  0.15094436154E-01  0.10175179702E+00  0.51100000000E-03 0.  1.
         11    1    4    4    0    0 -0.27006923495E-01  0.62262373260E-02 -0.65020250354E-02  0.28472397132E-01  0.51100000000E-03 0. -1.
</event>
<event>
 8    1  0.1123285E+005  0.1043930E+01  0.7957747E-01            NaN
         13   -1    0    0    0    0  0.00000000000E+00  0.00000000000E+00  0.74505805969E-08  0.10566000000E+00  0.10566000000E+00 0.  1.
     999900   -1    0    0    0    0 -0.00000000000E+00 -0.00000000000E+00 -0.74505805969E-08  0.93827000000E+00  0.93827000000E+00 0. -1.
     999902    2    1    2    0    0 -0.17951063329E-01 -0.12379595910E-01 -0.89098781633E-02  0.10203740878E+01  0.10201021508E+01 0.  0.
     999903    2    3    3    0    0 -0.12301602948E+00  0.28399333292E-01 -0.35611996251E-01  0.13278489721E+00  0.20594878239E-01 0.  0.
         14    1    1    2    0    0  0.17951063329E-01  0.12379595910E-01  0.89098781633E-02  0.23555912176E-01  0.00000000000E+00 0.  1.
     999901    1    3    3    0    0  0.10506496615E+00 -0.40778929202E-01  0.26702118088E-01  0.88758919061E+00  0.88000000000E+00 0.  1.
        -11    1    4    4    0    0 -0.59010769157E-01  0.88182587635E-02 -0.73187664701E-02  0.60115372641E-01  0.51100000000E-03 0.  1.
         11    1    4    4    0    0 -0.64005260326E-01  0.19581074529E-01 -0.28293229781E-01  0.72669524572E-01  0.51100000000E-03 0. -1.
</event>
<event>
 8    1  0.1123285E+005  0.1043930E+01  0.7957747E-01            NaN
         13   -1    0    0    0    0  0.00000000000E+00  0.00000000000E+00  0.74505805969E-08  0.10566000000E+00  0.10566000000E+00 0. -1.
     999900   -1    0    0    0    0 -0.00000000000E+00 -0.00000000000E+00 -0.74505805969E-08  0.93827000000E+00  0.93827000000E+00 0.  1.
     999902    2    1    2    0    0  0.19927602990E-02  0.23072142057E-01  0.31168951741E-02  0.10205631459E+01  0.10202956067E+01 0.  0.
     999903    2    3    3    0    0  0.18128006267E-01 -0.26283178729E-01 -0.12444337658E+00  0.12985111797E+00  0.18860773317E-01 0.  0.
         14    1    1    2    0    0 -0.19927602990E-02 -0.23072142057E-01 -0.31168951741E-02  0.23366854051E-01  0.00000000000E+00 0.  1.
     999901    1    3    3    0    0 -0.16135245968E-01  0.49355320787E-01  0.12756027175E+00  0.89071202798E+00  0.88000000000E+00 0. -1.
        -11    1    4    4    0    0  0.13997149372E-01 -0.71726695038E-02 -0.75930591032E-01  0.77544072332E-01  0.51100000000E-03 0.  1.
         11    1    4    4    0    0  0.41308568945E-02 -0.19110509226E-01 -0.48512785543E-01  0.52307045641E-01  0.51100000000E-03 0. -1.
</event>
<event>
 8    1  0.1123285E+005  0.1043930E+01  0.7957747E-01            NaN
         13   -1    0    0    0    0  0.00000000000E+00  0.00000000000E+00  0.74505805969E-08  0.10566000000E+00  0.10566000000E+00 0.  1.
     999900   -1    0    0    0    0 -0.00000000000E+00 -0.00000000000E+00 -0.74505805969E-08  0.93827000000E+00  0.93827000000E+00 0.  1.
     999902    2    1    2    0    0  0.74649847261E-02 -0.23050438354E-01 -0.22601352836E-02  0.10195957255E+01  0.10193052960E+01 0.  0.
     999903    2    3    3    0    0  0.42615526315E-01  0.11507406400E+00 -0.29783041657E-01  0.12770366412E+00  0.19054473821E-01 0.  0.
         14    1    1    2    0    0 -0.74649847261E-02  0.23050438354E-01  0.22601352836E-02  0.24334274527E-01  0.00000000000E+00 0.  1.
     999901    1    3    3    0    0 -0.35150541589E-01 -0.13812450235E+00  0.27522906373E-01  0.89189206135E+00  0.88000000000E+00 0. -1.
        -11    1    4    4    0    0 -0.20507651833E-03  0.15758442775E-01 -0.65915794252E-02  0.17090366157E-01  0.51100000000E-03 0. -1.
         11    1    4    4    0    0  0.42820602834E-01  0.99315621220E-01 -0.23191462231E-01  0.11061329797E+00  0.51100000000E-03 0.  1.
</event>
<event>
 8    1  0.1123285E+005  0.1043930E+01  0.7957747E-01            NaN
         13   -1    0    0    0    0  0.00000000000E+00  0.00000000000E+00  0.74505805969E-08  0.10566000000E+00  0.10566000000E+00 0.  1.
     999900   -1    0    0    0    0 -0.00000000000E+00 -0.00000000000E+00 -0.74505805969E-08  0.93827000000E+00  0.93827000000E+00 0. -1.
     999902    2    1    2    0    0 -0.11371304529E-01  0.11195097621E-01 -0.15879622078E-01  0.10214177994E+01  0.10211696832E+01 0.  0.
     999903    2    3    3    0    0 -0.11018212833E+00 -0.63252838899E-01  0.28183075403E-01  0.13167199558E+00  0.20055065421E-01 0.  0.
         14    1    1    2    0    0  0.11371304529E-01 -0.11195097621E-01  0.15879622078E-01  0.22512200576E-01  0.00000000000E+00 0.  1.
     999901    1    3    3    0    0  0.98810823797E-01  0.74447936520E-01 -0.44062697481E-01  0.88974580385E+00  0.88000000000E+00 0. -1.
        -11    1    4    4    0    0 -0.33554439466E-01 -0.91512264519E-02  0.62914972549E-02  0.35348117520E-01  0.51100000000E-03 0.  1.
         11    1    4    4    0    0 -0.76627688860E-01 -0.54101612447E-01  0.21891578148E-01  0.96323878058E-01  0.51100000000E-03 0. -1.
</event>
<event>
 8    1  0.1123285E+005  0.1043930E+01  0.7957747E-01            NaN
         13   -1    0    0    0    0  0.00000000000E+00  0.00000000000E+00  0.74505805969E-08  0.10566000000E+00  0.10566000000E+00 0. -1.
     999900   -1    0    0    0    0 -0.00000000000E+00 -0.00000000000E+00 -0.74505805969E-08  0.93827000000E+00  0.93827000000E+00 0.  1.
     999902    2    1    2    0    0 -0.26323995190E-02  0.20752633707E-01 -0.94086648291E-02  0.10209926003E+01  0.10207349144E+01 0.  0.
     999903    2    3    3    0    0 -0.80085993547E-02  0.86070238029E-01  0.97788353154E-01  0.13206825386E+00  0.20180141885E-01 0.  0.
         14    1    1    2    0    0  0.26323995190E-02 -0.20752633707E-01  0.94086648291E-02  0.22937399741E-01  0.00000000000E+00 0.  1.
     999901    1    3    3    0    0  0.53761998357E-02 -0.65317604322E-01 -0.10719701798E+00  0.88892434640E+00  0.88000000000E+00 0.  1.
        -11    1    4    4    0    0  0.29403031181E-02  0.53061409515E-01  0.67780672579E-01  0.86131523024E-01  0.51100000000E-03 0. -1.
         11    1    4    4    0    0 -0.10948902473E-01  0.33008828514E-01  0.30007680575E-01  0.45936730834E-01  0.51100000000E-03 0.  1.
</event>
<event>
 8    1  0.1123285E+005  0.1043930E+01  0.7957747E-01            NaN
         13   -1    0    0    0    0  0.00000000000E+00  0.00000000000E+00  0.74505805969E-08  0.10566000000E+00  0.10566000000E+00 0. -1.
     999900   -1    0    0    0    0 -0.00000000000E+00 -0.00000000000E+00 -0.74505805969E-08  0.93827000000E+00  0.93827000000E+00 0. -1.
     999902    2    1    2    0    0 -0.17335918053E-01 -0.90363022884E-02  0.39283038546E-02  0.10239895791E+01  0.10237954082E+01 0.  0.
     999903    2    3    3    0    0  0.11067422037E+00  0.33334705477E-01  0.60367087250E-01  0.13193171434E+00  0.20045108687E-01 0.  0.
         14    1    1    2    0    0  0.17335918053E-01  0.90363022884E-02 -0.39283038546E-02  0.19940420882E-01  0.00000000000E+00 0.  1.
     999901    1    3    3    0    0 -0.12801013842E+00 -0.42371007765E-01 -0.56438783396E-01  0.89205786478E+00  0.88000000000E+00 0. -1.
        -11    1    4    4    0    0  0.52009987699E-01  0.19517722845E-01  0.18530204287E-01  0.58562871492E-01  0.51100000000E-03 0. -1.
         11    1    4    4    0    0  0.58664232671E-01  0.13816982631E-01  0.41836882964E-01  0.73368842849E-01  0.51100000000E-03 0.  1.
</event>
<event>
 8    1  0.1123285E+005  0.1043930E+01  0.7957747E-01            NaN
         13   -1    0    0    0    0  0.00000000000E+00  0.00000000000E+00  0.74505805969E-08  0.10566000000E+00  0.10566000000E+00 0. -1.
     999900   -1    0    0    0    0 -0.00000000000E+00 -0.00000000000E+00 -0.74505805969E-08  0.93827000000E+00  0.93827000000E+00 0.  1.
     999902    2    1    2    0    0 -0.25186969816E-02  0.22743682948E-01 -0.48187989071E-02  0.10205453946E+01  0.10202774439E+01 0.  0.
     999903    2    3    3    0    0  0.29418707324E-01 -0.12312570631E+00 -0.12963624301E-01  0.12792889533E+00  0.13128092460E-01 0.  0.
         14    1    1    2    0    0  0.25186969816E-02 -0.22743682948E-01  0.48187989071E-02  0.23384605436E-01  0.00000000000E+00 0.  1.
     999901    1    3    3    0    0 -0.31937404306E-01  0.14586938926E+00  0.81448253938E-02  0.89261649923E+00  0.88000000000E+00 0.  1.
        -11    1    4    4    0    0  0.35666639493E-02 -0.33498712082E-01 -0.73074161531E-02  0.34475270190E-01  0.51100000000E-03 0. -1.
         11    1    4    4    0    0  0.25852043375E-01 -0.89626994227E-01 -0.56562081478E-02  0.93453625144E-01  0.51100000000E-03 0.  1.
</event>
<event>
 8    1  0.1123285E+005  0.1043930E+01  0.7957747E-01            NaN
         13   -1    0    0    0    0  0.00000000000E+00  0.00000000000E+00  0.74505805969E-08  0.10566000000E+00  0.10566000000E+00 0. -1.
     999900   -1    0    0    0    0 -0.00000000000E+00 -0.00000000000E+00 -0.74505805969E-08  0.93827000000E+00  0.93827000000E+00 0.  1.
     999902    2    1    2    0    0 -0.88548650302E-02  0.86470427907E-02  0.16935143035E-01  0.10229543223E+01  0.10227392466E+01 0.  0.
     999903    2    3    3    0    0  0.12846174384E-01  0.33459473644E-01  0.12871755061E+00  0.13527087737E+00  0.21105493509E-01 0.  0.
         14    1    1    2    0    0  0.88548650302E-02 -0.86470427907E-02 -0.16935143035E-01  0.20975677661E-01  0.00000000000E+00 0.  1.
     999901    1    3    3    0    0 -0.21701039414E-01 -0.24812430853E-01 -0.11178240757E+00  0.88768344497E+00  0.88000000000E+00 0.  1.
        -11    1    4    4    0    0  0.89306369408E-02  0.20927689871E-01  0.11044004299E+00  0.11276075867E+00  0.51100000000E-03 0. -1.
         11    1    4    4    0    0  0.39155374430E-02  0.12531783773E-01  0.18277507622E-01  0.22510118699E-01  0.51100000000E-03 0.  1.
</event>
<event>
 8    1  0.1123285E+005  0.1043930E+01  0.7957747E-01            NaN
         13   -1    0    0    0    0  0.00000000000E+00  0.00000000000E+00  0.74505805969E-08  0.10566000000E+00  0.10566000000E+00 0.  1.
     999900   -1    0    0    0    0 -0.00000000000E+00 -0.00000000000E+00 -0.74505805969E-08  0.93827000000E+00  0.93827000000E+00 0.  1.
     999902    2    1    2    0    0 -0.77243616745E-02  0.73956397056E-02  0.21592897833E-01  0.10198340566E+01  0.10195493556E+01 0.  0.
     999903    2    3    3    0    0  0.65681693320E-01 -0.95834976789E-01  0.55159468051E-01  0.13013089056E+00  0.19825593247E-01 0.  0.
         14    1    1    2    0    0  0.77243616745E-02 -0.73956397056E-02 -0.21592897833E-01  0.24095943367E-01  0.00000000000E+00 0. -1.
     999901    1    3    3    0    0 -0.73406054995E-01  0.10323061649E+00 -0.33566570218E-01  0.88970316608E+00  0.88000000000E+00 0. -1.
        -11    1    4    4    0    0  0.15220173922E-01 -0.98714865333E-02  0.74014236656E-02  0.19599544226E-01  0.51100000000E-03 0. -1.
         11    1    4    4    0    0  0.50461519398E-01 -0.85963490255E-01  0.47758044386E-01  0.11053134633E+00  0.51100000000E-03 0.  1.
</event>
<event>
 8    1  0.1123285E+005  0.1043930E+01  0.7957747E-01            NaN
         13   -1    0    0    0    0  0.00000000000E+00  0.00000000000E+00  0.74505805969E-08  0.10566000000E+00  0.10566000000E+00 0.  1.
     999900   -1    0    0    0    0 -0.00000000000E+00 -0.00000000000E+00 -0.74505805969E-08  0.93827000000E+00  0.93827000000E+00 0.  1.
     999902    2    1    2    0    0  0.19914291114E-02  0.16795523559E-02  0.24140659198E-01  0.10196491822E+01  0.10193600427E+01 0.  0.
     999903    2    3    3    0    0 -0.58081149689E-01 -0.75100029586E-01  0.89550450942E-01  0.13185288813E+00  0.18774089888E-01 0.  0.
         14    1    1    2    0    0 -0.19914291114E-02 -0.16795523559E-02 -0.24140659198E-01  0.24280817790E-01  0.00000000000E+00 0. -1.
     999901    1    3    3    0    0  0.60072578800E-01  0.76779581942E-01 -0.65409791744E-01  0.88779629408E+00  0.88000000000E+00 0.  1.
        -11    1    4    4    0    0 -0.57861372254E-01 -0.69922730637E-01  0.80045857321E-01  0.12101540007E+00  0.51100000000E-03 0. -1.
         11    1    4    4    0    0 -0.21977743440E-03 -0.51772989496E-02  0.95045936214E-02  0.10837488060E-01  0.51100000000E-03 0.  1.
</event>
<event>
 8    1  0.1123285E+005  0.1043930E+01  0.7957747E-01            NaN
         13   -1    0    0    0    0  0.00000000000E+00  0.00000000000E+00  0.74505805969E-08  0.10566000000E+00  0.10566000000E+00 0.  1.
     999900   -1    0    0    0    0 -0.00000000000E+00 -0.00000000000E+00 -0.74505805969E-08  0.93827000000E+00  0.93827000000E+00 0.  1.
     999902    2    1    2    0    0 -0.16404160024E-01  0.57111259555E-02  0.15707355197E-01  0.10205113230E+01  0.10202425819E+01 0.  0.
     999903    2    3    3    0    0 -0.29404601573E-01 -0.42906141807E-01  0.12047043360E+00  0.13286952992E+00  0.20871487965E-01 0.  0.
         14    1    1    2    0    0  0.16404160024E-01 -0.57111259555E-02 -0.15707355197E-01  0.23418677013E-01  0.00000000000E+00 0. -1.
     999901    1    3    3    0    0  0.13000441549E-01  0.48617267763E-01 -0.10476307841E+00  0.88764179307E+00  0.88000000000E+00 0.  1.
        -11    1    4    4    0    0 -0.63254614914E-02 -0.17819468762E-01  0.65581428617E-01  0.68254888693E-01  0.51100000000E-03 0. -1.
         11    1    4    4    0    0 -0.23079140081E-01 -0.25086673045E-01  0.54889004985E-01  0.64614641225E-01  0.51100000000E-03 0.  1.
</event>
<event>
 8    1  0.1123285E+005  0.1043930E+01  0.7957747E-01            NaN
         13   -1    0    0    0    0  0.00000000000E+00  0.00000000000E+00  0.74505805969E-08  0.10566000000E+00  0.10566000000E+00 0.  1.
     999900   -1    0    0    0    0 -0.00000000000E+00 -0.00000000000E+00 -0.74505805969E-08  0.93827000000E+00  0.93827000000E+00 0. -1.
     999902    2    1    2    0    0  0.94220427214E-02 -0.24232366209E-01 -0.42302179696E-02  0.10175884510E+01  0.10172474519E+01 0.  0.
     999903    2    3    3    0    0 -0.10607441177E+00  0.11127843995E-01  0.65221813955E-01  0.12662640902E+00  0.20118466635E-01 0.  0.
         14    1    1    2    0    0 -0.94220427214E-02  0.24232366209E-01  0.42302179696E-02  0.26341549028E-01  0.00000000000E+00 0. -1.
     999901    1    3    3    0    0  0.11549645450E+00 -0.35360210204E-01 -0.69452031924E-01  0.89096204196E+00  0.88000000000E+00 0. -1.
        -11    1    4    4    0    0 -0.45728819599E-01  0.84926669332E-02  0.39302949225E-01  0.60895264777E-01  0.51100000000E-03 0.  1.
         11    1    4    4    0    0 -0.60345592176E-01  0.26351770620E-02  0.25918864730E-01  0.65731144240E-01  0.51100000000E-03 0. -1.
</event>
<event>
 8    1  0.1123285E+005  0.1043930E+01  0.7957747E-01            NaN
         13   -1    0    0    0    0  0.00000000000E+00  0.00000000000E+00  0.74505805969E-08  0.10566000000E+00  0.10566000000E+00 0.  1.
     999900   -1    0    0    0    0 -0.00000000000E+00 -0.00000000000E+00 -0.74505805969E-08  0.93827000000E+00  0.93827000000E+00 0. -1.
     999902    2    1    2    0    0  0.47082167396E-02  0.13758206793E-01  0.19160737692E-01  0.10198761141E+01  0.10195924179E+01 0.  0.
     999903    2    3    3    0    0  0.21180649198E-01 -0.87095851724E-01 -0.88595051059E-01  0.12743329117E+00  0.18864075342E-01 0.  0.
         14    1    1    2    0    0 -0.47082167396E-02 -0.13758206793E-01 -0.19160737692E-01  0.24053885921E-01  0.00000000000E+00 0. -1.
     999901    1    3    3    0    0 -0.16472432458E-01  0.10085405852E+00  0.10775578875E+00  0.89244282291E+00  0.88000000000E+00 0.  1.
        -11    1    4    4    0    0  0.13407146063E-01 -0.35209084441E-01 -0.48405259135E-01  0.61341351678E-01  0.51100000000E-03 0.  1.
         11    1    4    4    0    0  0.77735031351E-02 -0.51886767283E-01 -0.40189791924E-01  0.66091939493E-01  0.51100000000E-03 0. -1.
</event>
<event>
 8    1  0.1123285E+005  0.1043930E+01  0.7957747E-01            NaN
         13   -1    0    0    0    0  0.00000000000E+00  0.00000000000E+00  0.74505805969E-08  0.10566000000E+00  0.10566000000E+00 0.  1.
     999900   -1    0    0    0    0 -0.00000000000E+00 -0.00000000000E+00 -0.74505805969E-08  0.93827000000E+00  0.93827000000E+00 0. -1.
     999902    2    1    2    0    0  0.11532824933E-01 -0.61925552832E-02  0.19166972579E-01  0.10207195147E+01  0.10204555850E+01 0.  0.
     999903    2    3    3    0    0  0.11924802054E-01  0.12684078357E+00  0.21095858300E-01  0.13071853517E+00  0.20285830513E-01 0.  0.
         14    1    1    2    0    0 -0.11532824933E-01  0.61925552832E-02 -0.19166972579E-01  0.23210485340E-01  0.00000000000E+00 0. -1.
     999901    1    3    3    0    0 -0.39197712110E-03 -0.13303333885E+00 -0.19288857210E-02  0.89000097949E+00  0.88000000000E+00 0.  1.
        -11    1    4    4    0    0  0.98216763085E-02  0.22986600132E-01  0.18189103972E-02  0.25068280100E-01  0.51100000000E-03 0. -1.
         11    1    4    4    0    0  0.21031257459E-02  0.10385418344E+00  0.19276947903E-01  0.10565025507E+00  0.51100000000E-03 0.  1.
</event>
<event>
 8    1  0.1123285E+005  0.1043930E+01  0.7957747E-01            NaN
         13   -1    0    0    0    0  0.00000000000E+00  0.00000000000E+00  0.74505805969E-08  0.10566000000E+00  0.10566000000E+00 0. -1.
     999900   -1    0    0    0    0 -0.00000000000E+00 -0.00000000000E+00 -0.74505805969E-08  0.93827000000E+00  0.93827000000E+00 0.  1.
     999902    2    1    2    0    0  0.42848623048E-02  0.21717536887E-01 -0.98957671421E-02  0.10196825741E+01  0.10193942389E+01 0.  0.
     999903    2    3    3    0    0 -0.15506657527E-01 -0.88849981503E-01  0.87627265899E-01  0.12719861218E+00  0.19135662298E-01 0.  0.
         14    1    1    2    0    0 -0.42848623048E-02 -0.21717536887E-01  0.98957671421E-02  0.24247425858E-01  0.00000000000E+00 0. -1.
     999901    1    3    3    0    0  0.19791519832E-01  0.11056751839E+00 -0.97523033041E-01  0.89248396196E+00  0.88000000000E+00 0.  1.
        -11    1    4    4    0    0 -0.14076826402E-01 -0.79275003444E-01  0.85155444441E-01  0.11719383112E+00  0.51100000000E-03 0.  1.
         11    1    4    4    0    0 -0.14298311244E-02 -0.95749780595E-02  0.24718214573E-02  0.10004781067E-01  0.51100000000E-03 0. -1.
</event>
<event>
 8    1  0.1123285E+005  0.1043930E+01  0.7957747E-01            NaN
         13   -1    0    0    0    0  0.00000000000E+00  0.00000000000E+00  0.74505805969E-08  0.10566000000E+00  0.10566000000E+00 0. -1.
     999900   -1    0    0    0    0 -0.00000000000E+00 -0.00000000000E+00 -0.74505805969E-08  0.93827000000E+00  0.93827000000E+00 0. -1.
     999902    2    1    2    0    0 -0.95741307280E-02  0.19044508373E-01  0.14018278251E-01  0.10184178577E+01  0.10180982583E+01 0.  0.
     999903    2    3    3    0    0  0.10749243081E+00 -0.57354274339E-01  0.30470250080E-01  0.12723211883E+00  0.20382356495E-01 0.  0.
         14    1    1    2    0    0  0.95741307280E-02 -0.19044508373E-01 -0.14018278251E-01  0.25512142276E-01  0.00000000000E+00 0.  1.
     999901    1    3    3    0    0 -0.11706656154E+00  0.76398782712E-01 -0.16451971829E-01  0.89118573889E+00  0.88000000000E+00 0. -1.
        -11    1    4    4    0    0  0.59281134304E-01 -0.22717058302E-01  0.90942528365E-02  0.64134890488E-01  0.51100000000E-03 0.  1.
         11    1    4    4    0    0  0.48211296505E-01 -0.34637216037E-01  0.21375997243E-01  0.63097228344E-01  0.51100000000E-03 0. -1.
</event>
<event>
 8    1  0.1123285E+005  0.1043930E+01  0.7957747E-01            NaN
         13   -1    0    0    0    0  0.00000000000E+00  0.00000000000E+00  0.74505805969E-08  0.10566000000E+00  0.10566000000E+00 0.  1.
     999900   -1    0    0    0    0 -0.00000000000E+00 -0.00000000000E+00 -0.74505805969E-08  0.93827000000E+00  0.93827000000E+00 0. -1.
     999902    2    1    2    0    0 -0.27456019517E-02  0.78213719159E-02  0.22458851974E-01  0.10199902377E+01  0.10197092589E+01 0.  0.
     999903    2    3    3    0    0  0.98004615784E-01  0.82852443694E-01  0.17559785735E-01  0.13105589309E+00  0.19946651311E-01 0.  0.
         14    1    1    2    0    0  0.27456019517E-02 -0.78213719159E-02 -0.22458851974E-01  0.23939762336E-01  0.00000000000E+00 0. -1.
     999901    1    3    3    0    0 -0.10075021774E+00 -0.75031071778E-01  0.48990662392E-02  0.88893434457E+00  0.88000000000E+00 0.  1.
        -11    1    4    4    0    0  0.23885233858E-01  0.23970361502E-01  0.13094424011E-01  0.36287844909E-01  0.51100000000E-03 0.  1.
         11    1    4    4    0    0  0.74119381926E-01  0.58882082192E-01  0.44653617239E-02  0.94768048185E-01  0.51100000000E-03 0. -1.
</event>
<event>
 8    1  0.1123285E+005  0.1043930E+01  0.7957747E-01            NaN
         13   -1    0    0    0    0  0.00000000000E+00  0.00000000000E+00  0.74505805969E-08  0.10566000000E+00  0.10566000000E+00 0. -1.
     999900   -1    0    0    0    0 -0.00000000000E+00 -0.00000000000E+00 -0.74505805969E-08  0.93827000000E+00  0.93827000000E+00 0. -1.
     999902    2    1    2    0    0 -0.11896465349E-01 -0.78191217274E-02  0.17909283205E-01  0.10210519105E+01  0.10207955706E+01 0.  0.
     999903    2    3    3    0    0 -0.10838756564E+00  0.39347251374E-02 -0.70745863006E-01  0.13127192633E+00  0.21540544618E-01 0.  0.
         14    1    1    2    0    0  0.11896465349E-01  0.78191217274E-02 -0.17909283205E-01  0.22878089460E-01  0.00000000000E+00 0. -1.
     999901    1    3    3    0    0  0.96491100292E-01 -0.11753846865E-01  0.88655146211E-01  0.88977998421E+00  0.88000000000E+00 0.  1.
        -11    1    4    4    0    0 -0.71639838127E-01  0.10310975979E-01 -0.38590648554E-01  0.82024885915E-01  0.51100000000E-03 0. -1.
         11    1    4    4    0    0 -0.36747727514E-01 -0.63762508412E-02 -0.32155214451E-01  0.49247040415E-01  0.51100000000E-03 0.  1.
</event>
<event>
 8    1  0.1123285E+005  0.1043930E+01  0.7957747E-01            NaN
         13   -1    0    0    0    0  0.00000000000E+00  0.00000000000E+00  0.74505805969E-08  0.10566000000E+00  0.10566000000E+00 0.  1.
     999900   -1    0    0    0    0 -0.00000000000E+00 -0.00000000000E+00 -0.74505805969E-08  0.93827000000E+00  0.93827000000E+00 0.  1.
     999902    2    1    2    0    0  0.18087789198E-01  0.14135164237E-01  0.47429341866E-02  0.10204893001E+01  0.10202200475E+01 0.  0.
     999903    2    3    3    0    0  0.47474861539E-01  0.11479397607E+00  0.44585223622E-01  0.13336856175E+00  0.19178417008E-01 0.  0.
         14    1    1    2    0    0 -0.18087789198E-01 -0.14135164237E-01 -0.47429341866E-02  0.23440699878E-01  0.00000000000E+00 0. -1.
     999901    1    3    3    0    0 -0.29387072341E-01 -0.10065881183E+00 -0.39842289436E-01  0.88712073837E+00  0.88000000000E+00 0. -1.
        -11    1    4    4    0    0  0.36125371049E-01  0.62674603988E-01  0.26486899249E-01  0.77038726438E-01  0.51100000000E-03 0. -1.
         11    1    4    4    0    0  0.11349490490E-01  0.52119372079E-01  0.18098324373E-01  0.56329835313E-01  0.51100000000E-03 0.  1.
</event>
<event>
 8    1  0.1123285E+005  0.1043930E+01  0.7957747E-01            NaN
         13   -1    0    0    0    0  0.00000000000E+00  0.00000000000E+00  0.74505805969E-08  0.10566000000E+00  0.10566000000E+00 0.  1.
     999900   -1    0    0    0    0 -0.00000000000E+00 -0.00000000000E+00 -0.74505805969E-08  0.93827000000E+00  0.93827000000E+00 0.  1.
     999902    2    1    2    0    0 -0.21367778511E-01 -0.89061029471E-02 -0.64352087076E-02  0.10199026710E+01  0.10196196084E+01 0.  0.
     999903    2    3    3    0    0 -0.98444891561E-01  0.77019342810E-01 -0.37204410566E-01  0.13183127332E+00  0.19285762037E-01 0.  0.
         14    1    1    2    0    0  0.21367778511E-01  0.89061029471E-02  0.64352087076E-02  0.24027329009E-01  0.00000000000E+00 0.  1.
     999901    1    3    3    0    0  0.77077113050E-01 -0.85925445757E-01  0.30769201859E-01  0.88807139767E+00  0.88000000000E+00 0. -1.
        -11    1    4    4    0    0 -0.50954335930E-01  0.49644479605E-01 -0.26873496850E-01  0.76048436271E-01  0.51100000000E-03 0. -1.
         11    1    4    4    0    0 -0.47490555631E-01  0.27374863204E-01 -0.10330913717E-01  0.55782837045E-01  0.51100000000E-03 0.  1.
</event>
<event>
 8    1  0.1123285E+005  0.1043930E+01  0.7957747E-01            NaN
         13   -1    0    0    0    0  0.00000000000E+00  0.00000000000E+00  0.74505805969E-08  0.10566000000E+00  0.10566000000E+00 0.  1.
     999900   -1    0    0    0    0 -0.00000000000E+00 -0.00000000000E+00 -0.74505805969E-08  0.93827000000E+00  0.93827000000E+00 0. -1.
     999902    2    1    2    0    0  0.69938594560E-02 -0.16320114685E-01 -0.15324246107E-01  0.10204759442E+01  0.10202063811E+01 0.  0.
     999903    2    3    3    0    0  0.74615524140E-01  0.28403231929E-01  0.99685178258E-01  0.12929693025E+00  0.20157911103E-01 0.  0.
         14    1    1    2    0    0 -0.69938594560E-02  0.16320114685E-01  0.15324246107E-01  0.23454055772E-01  0.00000000000E+00 0.  1.
     999901    1    3    3    0    0 -0.67621664684E-01 -0.44723346615E-01 -0.11500942437E+00  0.89117901398E+00  0.88000000000E+00 0. -1.
        -11    1    4    4    0    0  0.16658203322E-01  0.13206406295E-01  0.17222419118E-01  0.27363803581E-01  0.51100000000E-03 0.  1.
         11    1    4    4    0    0  0.57957320818E-01  0.15196825634E-01  0.82462759140E-01  0.10193312667E+00  0.51100000000E-03 0. -1.
</event>
<event>
 8    1  0.1123285E+005  0.1043930E+01  0.7957747E-01            NaN
         13   -1    0    0    0    0  0.00000000000E+00  0.00000000000E+00  0.74505805969E-08  0.10566000000E+00  0.10566000000E+00 0.  1.
     999900   -1    0    0    0    0 -0.00000000000E+00 -0.00000000000E+00 -0.74505805969E-08  0.93827000000E+00  0.93827000000E+00 0.  1.
     999902    2    1    2    0    0  0.22619739940E-01 -0.37152414846E-02  0.55092075758E-02  0.10203544401E+01  0.10200820440E+01 0.  0.
     999903    2    3    3    0    0 -0.98708923692E-01  0.63653863325E-03  0.80180869289E-01  0.12888630293E+00  0.20948758568E-01 0.  0.
         14    1    1    2    0    0 -0.22619739940E-01  0.37152414846E-02 -0.55092075758E-02  0.23575559852E-01  0.00000000000E+00 0. -1.
     999901    1    3    3    0    0  0.12132866363E+00 -0.43517801178E-02 -0.74671661713E-01  0.89146813722E+00  0.88000000000E+00 0. -1.
        -11    1    4    4    0    0 -0.19208231874E-01 -0.82372102235E-02  0.15993082258E-01  0.26321998501E-01  0.51100000000E-03 0. -1.
         11    1    4    4    0    0 -0.79500691818E-01  0.88737488568E-02  0.64187787031E-01  0.10256430443E+00  0.51100000000E-03 0.  1.
</event>
<event>
 8    1  0.1123285E+005  0.1043930E+01  0.7957747E-01            NaN
         13   -1    0    0    0    0  0.00000000000E+00  0.00000000000E+00  0.74505805969E-08  0.10566000000E+00  0.10566000000E+00 0.  1.
     999900   -1    0    0    0    0 -0.00000000000E+00 -0.00000000000E+00 -0.74505805969E-08  0.93827000000E+00  0.93827000000E+00 0.  1.
     999902    2    1    2    0    0 -0.14681458358E-01 -0.17505159147E-01 -0.75491591648E-02  0.10198682956E+01  0.10195844127E+01 0.  0.
     999903    2    3    3    0    0 -0.27586107898E-01 -0.91775897896E-01  0.87823535778E-01  0.13151103435E+00  0.19959206782E-01 0.  0.
         14    1    1    2    0    0  0.14681458358E-01  0.17505159147E-01  0.75491591648E-02  0.24061704436E-01  0.00000000000E+00 0. -1.
     999901    1    3    3    0    0  0.12904649540E-01  0.74270738749E-01 -0.95372694943E-01  0.88835726122E+00  0.88000000000E+00 0.  1.
        -11    1    4    4    0    0 -0.17161989218E-01 -0.26827347883E-01  0.33185171481E-01  0.45997360746E-01  0.51100000000E-03 0. -1.
         11    1    4    4    0    0 -0.10424118680E-01 -0.64948550013E-01  0.54638364297E-01  0.85513673603E-01  0.51100000000E-03 0.  1.
</event>
<event>
 8    1  0.1123285E+005  0.1043930E+01  0.7957747E-01            NaN
         13   -1    0    0    0    0  0.00000000000E+00  0.00000000000E+00  0.74505805969E-08  0.10566000000E+00  0.10566000000E+00 0.  1.
     999900   -1    0    0    0    0 -0.00000000000E+00 -0.00000000000E+00 -0.74505805969E-08  0.93827000000E+00  0.93827000000E+00 0. -1.
     999902    2    1    2    0    0  0.22150837722E-01  0.32266594166E-02  0.44263449889E-02  0.10211119485E+01  0.10208569674E+01 0.  0.
     999903    2    3    3    0    0 -0.14331147214E-01 -0.60989535387E-01 -0.11231198906E+00  0.13033560537E+00  0.21172669496E-01 0.  0.
         14    1    1    2    0    0 -0.22150837722E-01 -0.32266594166E-02 -0.44263449889E-02  0.22818051467E-01  0.00000000000E+00 0.  1.
     999901    1    3    3    0    0  0.36481984936E-01  0.64216194803E-01  0.11673833405E+00  0.89077634316E+00  0.88000000000E+00 0.  1.
        -11    1    4    4    0    0 -0.81033469175E-02 -0.29839437679E-01 -0.34742185896E-01  0.46511685349E-01  0.51100000000E-03 0.  1.
         11    1    4    4    0    0 -0.62278002964E-02 -0.31150097708E-01 -0.77569803165E-01  0.83823920022E-01  0.51100000000E-03 0. -1.
</event>
<event>
 8    1  0.1123285E+005  0.1043930E+01  0.7957747E-01            NaN
         13   -1    0    0    0    0  0.00000000000E+00  0.00000000000E+00  0.74505805969E-08  0.10566000000E+00  0.10566000000E+00 0. -1.
     999900   -1    0    0    0    0 -0.00000000000E+00 -0.00000000000E+00 -0.74505805969E-08  0.93827000000E+00  0.93827000000E+00 0.  1.
     999902    2    1    2    0    0 -0.38313996935E-02  0.21871363939E-01 -0.28864823484E-02  0.10215387525E+01  0.10212933246E+01 0.  0.
     999903    2    3    3    0    0 -0.12478952107E+00 -0.22353211575E-01  0.30304792101E-01  0.13154530258E+00  0.17711453067E-01 0.  0.
         14    1    1    2    0    0  0.38313996935E-02 -0.21871363939E-01  0.28864823484E-02  0.22391247498E-01  0.00000000000E+00 0. -1.
     999901    1    3    3    0    0  0.12095812138E+00  0.44224575515E-01 -0.33191274449E-01  0.88999344992E+00  0.88000000000E+00 0. -1.
        -11    1    4    4    0    0 -0.70281746727E-01 -0.49576659017E-02  0.12019840066E-01  0.71476150221E-01  0.51100000000E-03 0. -1.
         11    1    4    4    0    0 -0.54507774342E-01 -0.17395545674E-01  0.18284952035E-01  0.60069152357E-01  0.51100000000E-03 0.  1.
</event>
<event>
 8    1  0.1123285E+005  0.1043930E+01  0.7957747E-01            NaN
         13   -1    0    0    0    0  0.00000000000E+00  0.00000000000E+00  0.74505805969E-08  0.10566000000E+00  0.10566000000E+00 0.  1.
     999900   -1    0    0    0    0 -0.00000000000E+00 -0.00000000000E+00 -0.74505805969E-08  0.93827000000E+00  0.93827000000E+00 0.  1.
     999902    2    1    2    0    0  0.10106601553E-01 -0.17137282695E-01  0.11980431305E-01  0.10207058620E+01  0.10204416182E+01 0.  0.
     999903    2    3    3    0    0 -0.10986331211E+00  0.38633337771E-01  0.53721558812E-01  0.12983804685E+00  0.20234386383E-01 0.  0.
         14    1    1    2    0    0 -0.10106601553E-01  0.17137282695E-01 -0.11980431305E-01  0.23224138033E-01  0.00000000000E+00 0. -1.
     999901    1    3    3    0    0  0.11996991366E+00 -0.55770620466E-01 -0.41741127507E-01  0.89086781512E+00  0.88000000000E+00 0.  1.
        -11    1    4    4    0    0 -0.65998863892E-01  0.13260996109E-01  0.34433581209E-01  0.75615055966E-01  0.51100000000E-03 0. -1.
         11    1    4    4    0    0 -0.43864448219E-01  0.25372341663E-01  0.19287977603E-01  0.54222990881E-01  0.51100000000E-03 0.  1.
</event>
<event>
 8    1  0.1123285E+005  0.1043930E+01  0.7957747E-01            NaN
         13   -1    0    0    0    0  0.00000000000E+00  0.00000000000E+00  0.74505805969E-08  0.10566000000E+00  0.10566000000E+00 0. -1.
     999900   -1    0    0    0    0 -0.00000000000E+00 -0.00000000000E+00 -0.74505805969E-08  0.93827000000E+00  0.93827000000E+00 0. -1.
     999902    2    1    2    0    0 -0.48331127762E-03  0.20183302823E-01 -0.12060425291E-01  0.10204129177E+01  0.10201418869E+01 0.  0.
     999903    2    3    3    0    0  0.89864084169E-01  0.83089779639E-01  0.44528515324E-01  0.13174977290E+00  0.19893438073E-01 0.  0.
         14    1    1    2    0    0  0.48331127762E-03 -0.20183302823E-01  0.12060425291E-01  0.23517082320E-01  0.00000000000E+00 0. -1.
     999901    1    3    3    0    0 -0.90347395447E-01 -0.62906476815E-01 -0.56588940615E-01  0.88866314478E+00  0.88000000000E+00 0.  1.
        -11    1    4    4    0    0  0.42338010964E-01  0.47094129314E-01  0.31460046887E-01  0.70713222663E-01  0.51100000000E-03 0. -1.
         11    1    4    4    0    0  0.47526073205E-01  0.35995650325E-01  0.13068468437E-01  0.61036550237E-01  0.51100000000E-03 0.  1.
</event>
<event>
 8    1  0.1123285E+005  0.1043930E+01  0.7957747E-01            NaN
         13   -1    0    0    0    0  0.00000000000E+00  0.00000000000E+00  0.74505805969E-08  0.10566000000E+00  0.10566000000E+00 0.  1.
     999900   -1    0    0    0    0 -0.00000000000E+00 -0.00000000000E+00 -0.74505805969E-08  0.93827000000E+00  0.93827000000E+00 0.  1.
     999902    2    1    2    0    0  0.11430928548E-01  0.19458815425E-01  0.56622514752E-02  0.10206625825E+01  0.10203973415E+01 0.  0.
     999903    2    3    3    0    0  0.10742303717E+00  0.36225773486E-01 -0.65651152047E-01  0.13241643569E+00  0.19287900269E-01 0.  0.
         14    1    1    2    0    0 -0.11430928548E-01 -0.19458815425E-01 -0.56622514752E-02  0.23267417497E-01  0.00000000000E+00 0. -1.
     999901    1    3    3    0    0 -0.95992108623E-01 -0.16766958062E-01  0.71313403522E-01  0.88824614681E+00  0.88000000000E+00 0. -1.
        -11    1    4    4    0    0  0.16244433790E-01  0.42172321582E-02 -0.24986271231E-02  0.16975598215E-01  0.51100000000E-03 0.  1.
         11    1    4    4    0    0  0.91178603381E-01  0.32008541328E-01 -0.63152524924E-01  0.11544083748E+00  0.51100000000E-03 0. -1.
</event>
<event>
 8    1  0.1670178E+005  0.1043930E+01  0.7957747E-01            NaN
         13   -1    0    0    0    0  0.00000000000E+00  0.00000000000E+00  0.74505805969E-08  0.10566000000E+00  0.10566000000E+00 0.  1.
     999900   -1    0    0    0    0 -0.00000000000E+00 -0.00000000000E+00 -0.74505805969E-08  0.93827000000E+00  0.93827000000E+00 0.  1.
     999902    2    1    2    0    0  0.58559575098E-02  0.28603640529E-02 -0.22812934446E-01  0.10202044041E+01  0.10199284888E+01 0.  0.
     999903    2    3    3    0    0  0.10224370951E+00 -0.79229571893E-01 -0.46789615289E-02  0.13095854540E+00  0.19928540727E-01 0.  0.
         14    1    1    2    0    0 -0.58559575098E-02 -0.28603640529E-02  0.22812934446E-01  0.23725595860E-01  0.00000000000E+00 0.  1.
     999901    1    3    3    0    0 -0.96387751996E-01  0.82089935946E-01 -0.18133972917E-01  0.88924585874E+00  0.88000000000E+00 0.  1.
        -11    1    4    4    0    0  0.45320588035E-01 -0.28214533935E-01  0.62067541226E-02  0.53747563133E-01  0.51100000000E-03 0. -1.
         11    1    4    4    0    0  0.56923121471E-01 -0.51015037959E-01 -0.10885715651E-01  0.77210982264E-01  0.51100000000E-03 0.  1.
</event>
<event>
 8    1  0.1123285E+005  0.1043930E+01  0.7957747E-01            NaN
         13   -1    0    0    0    0  0.00000000000E+00  0.00000000000E+00  0.74505805969E-08  0.10566000000E+00  0.10566000000E+00 0.  1.
     999900   -1    0    0    0    0 -0.00000000000E+00 -0.00000000000E+00 -0.74505805969E-08  0.93827000000E+00  0.93827000000E+00 0.  1.
     999902    2    1    2    0    0 -0.16493415791E-01  0.61417681141E-03  0.15270244933E-01  0.10214446635E+01  0.10211971456E+01 0.  0.
     999903    2    3    3    0    0 -0.85627745655E-01  0.46154750785E-01 -0.86307855768E-01  0.13174156134E+00  0.21081299057E-01 0.  0.
         14    1    1    2    0    0  0.16493415791E-01 -0.61417681141E-03 -0.15270244933E-01  0.22485336509E-01  0.00000000000E+00 0. -1.
     999901    1    3    3    0    0  0.69134329864E-01 -0.45540573974E-01  0.10157810070E+00  0.88970310216E+00  0.88000000000E+00 0. -1.
        -11    1    4    4    0    0 -0.49783749524E-01  0.15539478358E-01 -0.49849549285E-01  0.72146627012E-01  0.51100000000E-03 0.  1.
         11    1    4    4    0    0 -0.35843996131E-01  0.30615272427E-01 -0.36458306483E-01  0.59594934324E-01  0.51100000000E-03 0. -1.
</event>
<event>
 8    1  0.1123285E+005  0.1043930E+01  0.7957747E-01            NaN
         13   -1    0    0    0    0  0.00000000000E+00  0.00000000000E+00  0.74505805969E-08  0.10566000000E+00  0.10566000000E+00 0. -1.
     999900   -1    0    0    0    0 -0.00000000000E+00 -0.00000000000E+00 -0.74505805969E-08  0.93827000000E+00  0.93827000000E+00 0. -1.
     999902    2    1    2    0    0 -0.23799221774E-01  0.32619606751E-02 -0.93046063953E-03  0.10198902600E+01  0.10196069013E+01 0.  0.
     999903    2    3    3    0    0 -0.11612701166E+00  0.59152486198E-01 -0.18884891251E-01  0.13311490328E+00  0.19453506054E-01 0.  0.
         14    1    1    2    0    0  0.23799221774E-01 -0.32619606751E-02  0.93046063953E-03  0.24039740046E-01  0.00000000000E+00 0. -1.
     999901    1    3    3    0    0  0.92327789882E-01 -0.55890525523E-01  0.17954430611E-01  0.88677535668E+00  0.88000000000E+00 0.  1.
        -11    1    4    4    0    0 -0.69371324394E-01  0.36123645456E-01 -0.20883458679E-01  0.80954792178E-01  0.51100000000E-03 0.  1.
         11    1    4    4    0    0 -0.46755687262E-01  0.23028840743E-01  0.19985674281E-02  0.52160111101E-01  0.51100000000E-03 0. -1.
</event>
<event>
 7    1  0.1123285E+005  0.1043930E+01  0.7957747E-01            NaN
         13   -1    0    0    0    0  0.00000000000E+00  0.00000000000E+00  0.74505805969E-08  0.10566000000E+00  0.10566000000E+00 0. -1.
     999900   -1    0    0    0    0 -0.00000000000E+00 -0.00000000000E+00 -0.74505805969E-08  0.93827000000E+00  0.93827000000E+00 0.  1.
     999903    2    1    2    0    0 -0.17033709792E-01  0.88867374406E-01 -0.26299091402E-01  0.96351243916E-01  0.20108766561E-01 0.  0.
         14    1    1    2    0    0  0.17109213045E-01 -0.55774620254E-01  0.32809292109E-01  0.66932675759E-01  0.00000000000E+00 0. -1.
     999901    1    1    2    0    0 -0.75503253549E-04 -0.33092754151E-01 -0.65102007065E-02  0.88064608032E+00  0.88000000000E+00 0. -1.
        -11    1    3    3    0    0 -0.31327584015E-02  0.59984135241E-01 -0.22166828661E-01  0.64027650822E-01  0.51100000000E-03 0.  1.
         11    1    3    3    0    0 -0.13900951390E-01  0.28883239165E-01 -0.41322627411E-02  0.32323593095E-01  0.51100000000E-03 0. -1.
</event>
<event>
 8    1  0.1123285E+005  0.1043930E+01  0.7957747E-01            NaN
         13   -1    0    0    0    0  0.00000000000E+00  0.00000000000E+00  0.74505805969E-08  0.10566000000E+00  0.10566000000E+00 0. -1.
     999900   -1    0    0    0    0 -0.00000000000E+00 -0.00000000000E+00 -0.74505805969E-08  0.93827000000E+00  0.93827000000E+00 0. -1.
     999902    2    1    2    0    0 -0.26406912372E-02  0.13940990650E-01 -0.21297825296E-01  0.10183385594E+01  0.10180169447E+01 0.  0.
     999903    2    3    3    0    0  0.12242174265E+00  0.81563783492E-02  0.30202157153E-01  0.12798676245E+00  0.20367412330E-01 0.  0.
         14    1    1    2    0    0  0.26406912372E-02 -0.13940990650E-01  0.21297825296E-01  0.25591440617E-01  0.00000000000E+00 0. -1.
     999901    1    3    3    0    0 -0.12506243389E+00  0.57846123011E-02 -0.51499982449E-01  0.89035179693E+00  0.88000000000E+00 0.  1.
        -11    1    4    4    0    0  0.44002210387E-01 -0.46761267347E-02  0.45573363140E-02  0.44486976920E-01  0.51100000000E-03 0. -1.
         11    1    4    4    0    0  0.78419532261E-01  0.12832505084E-01  0.25644820839E-01  0.83499785530E-01  0.51100000000E-03 0.  1.
</event>
<event>
 8    1  0.1123285E+005  0.1043930E+01  0.7957747E-01            NaN
         13   -1    0    0    0    0  0.00000000000E+00  0.00000000000E+00  0.74505805969E-08  0.10566000000E+00  0.10566000000E+00 0.  1.
     999900   -1    0    0    0    0 -0.00000000000E+00 -0.00000000000E+00 -0.74505805969E-08  0.93827000000E+00  0.93827000000E+00 0. -1.
     999902    2    1    2    0    0  0.18076142790E-01  0.35629400217E-04  0.14485170969E-01  0.10207660542E+01  0.10205031940E+01 0.  0.
     999903    2    3    3    0    0 -0.98710750532E-01 -0.80279895682E-01 -0.10709605710E-01  0.12906849403E+00  0.18849577584E-01 0.  0.
         14    1    1    2    0    0 -0.18076142790E-01 -0.35629400217E-04 -0.14485170969E-01  0.23163945813E-01  0.00000000000E+00 0. -1.
     999901    1    3    3    0    0  0.11678689332E+00  0.80315525082E-01  0.25194776680E-01  0.89169756016E+00  0.88000000000E+00 0.  1.
        -11    1    4    4    0    0 -0.14990591074E-01 -0.21918651321E-01 -0.16203964130E-02  0.26608868860E-01  0.51100000000E-03 0. -1.
         11    1    4    4    0    0 -0.83720159458E-01 -0.58361244360E-01 -0.90892092973E-02  0.10245962517E+00  0.51100000000E-03 0.  1.
</event>
<event>
 8    1  0.1123285E+005  0.1043930E+01  0.7957747E-01            NaN
         13   -1    0    0    0    0  0.00000000000E+00  0.00000000000E+00  0.74505805969E-08  0.10566000000E+00  0.10566000000E+00 0. -1.
     999900   -1    0    0    0    0 -0.00000000000E+00 -0.00000000000E+00 -0.74505805969E-08  0.93827000000E+00  0.93827000000E+00 0. -1.
     999902    2    1    2    0    0 -0.19413457065E-01 -0.19729415618E-02  0.31244455684E-01  0.10070926436E+01  0.10064187011E+01 0.  0.
     999903    2    3    3    0    0 -0.77202431029E-01 -0.30666187678E-01  0.88321224963E-01  0.12288643155E+00  0.19995145819E-01 0.  0.
         14    1    1    2    0    0  0.19413457065E-01  0.19729415618E-02 -0.31244455684E-01  0.36837356374E-01  0.00000000000E+00 0.  1.
     999901    1    3    3    0    0  0.57788973963E-01  0.28693246116E-01 -0.57076769279E-01  0.88420621208E+00  0.88000000000E+00 0. -1.
        -11    1    4    4    0    0 -0.35326064442E-01 -0.35890629309E-02  0.34464774817E-01  0.49486301396E-01  0.51100000000E-03 0.  1.
         11    1    4    4    0    0 -0.41876366587E-01 -0.27077124747E-01  0.53856450146E-01  0.73400130152E-01  0.51100000000E-03 0. -1.
</event>
<event>
 8    1  0.1123285E+005  0.1043930E+01  0.7957747E-01            NaN
         13   -1    0    0    0    0  0.00000000000E+00  0.00000000000E+00  0.74505805969E-08  0.10566000000E+00  0.10566000000E+00 0.  1.
     999900   -1    0    0    0    0 -0.00000000000E+00 -0.00000000000E+00 -0.74505805969E-08  0.93827000000E+00  0.93827000000E+00 0. -1.
     999902    2    1    2    0    0 -0.41587829271E-02 -0.12927767671E-01 -0.10214427992E-01  0.10269371429E+01  0.10267965418E+01 0.  0.
     999903    2    3    3    0    0  0.69818346388E-01  0.10838497429E+00 -0.35355403067E-01  0.13518523479E+00  0.20078322548E-01 0.  0.
         14    1    1    2    0    0  0.41587829271E-02  0.12927767671E-01  0.10214427992E-01  0.16992857076E-01  0.00000000000E+00 0.  1.
     999901    1    3    3    0    0 -0.73977129316E-01 -0.12131274196E+00  0.25140975075E-01  0.89175190813E+00  0.88000000000E+00 0. -1.
        -11    1    4    4    0    0  0.25331317835E-01  0.40580072567E-01 -0.23244000707E-01  0.53187993407E-01  0.51100000000E-03 0.  1.
         11    1    4    4    0    0  0.44487028553E-01  0.67804901722E-01 -0.12111402361E-01  0.81997241388E-01  0.51100000000E-03 0. -1.
</event>
<event>
 8    1  0.1123285E+005  0.1043930E+01  0.7957747E-01            NaN
         13   -1    0    0    0    0  0.00000000000E+00  0.00000000000E+00  0.74505805969E-08  0.10566000000E+00  0.10566000000E+00 0. -1.
     999900   -1    0    0    0    0 -0.00000000000E+00 -0.00000000000E+00 -0.74505805969E-08  0.93827000000E+00  0.93827000000E+00 0.  1.
     999902    2    1    2    0    0 -0.21692697774E-01  0.91595317814E-02 -0.46717670546E-02  0.10199238432E+01  0.10196412851E+01 0.  0.
     999903    2    3    3    0    0 -0.70786914558E-01  0.10244960353E+00  0.41008571023E-01  0.13245554913E+00  0.18869580329E-01 0.  0.
         14    1    1    2    0    0  0.21692697774E-01 -0.91595317814E-02  0.46717670546E-02  0.24006156847E-01  0.00000000000E+00 0. -1.
     999901    1    3    3    0    0  0.49094216784E-01 -0.93290071749E-01 -0.45680338078E-01  0.88746829402E+00  0.88000000000E+00 0.  1.
        -11    1    4    4    0    0 -0.14785217679E-01  0.36754801094E-01  0.12713056581E-01  0.41610106872E-01  0.51100000000E-03 0. -1.
         11    1    4    4    0    0 -0.56001696879E-01  0.65694802436E-01  0.28295514443E-01  0.90845442258E-01  0.51100000000E-03 0.  1.
</event>
<event>
 8    1  0.1123285E+005  0.1043930E+01  0.7957747E-01            NaN
         13   -1    0    0    0    0  0.00000000000E+00  0.00000000000E+00  0.74505805969E-08  0.10566000000E+00  0.10566000000E+00 0. -1.
     999900   -1    0    0    0    0 -0.00000000000E+00 -0.00000000000E+00 -0.74505805969E-08  0.93827000000E+00  0.93827000000E+00 0. -1.
     999902    2    1    2    0    0 -0.18529794727E-01  0.13247522859E-01  0.65010448613E-02  0.10202421605E+01  0.10199671330E+01 0.  0.
     999903    2    3    3    0    0 -0.98306573823E-01 -0.53085580195E-01  0.67559260789E-01  0.13204594303E+00  0.19738694777E-01 0.  0.
         14    1    1    2    0    0  0.18529794727E-01 -0.13247522859E-01 -0.65010448613E-02  0.23687839471E-01  0.00000000000E+00 0.  1.
     999901    1    3    3    0    0  0.79776779096E-01  0.66333103054E-01 -0.61058215927E-01  0.88819621750E+00  0.88000000000E+00 0. -1.
        -11    1    4    4    0    0 -0.68569894295E-01 -0.29841501986E-01  0.36769610218E-01  0.83334332666E-01  0.51100000000E-03 0. -1.
         11    1    4    4    0    0 -0.29736679528E-01 -0.23244078209E-01  0.30789650571E-01  0.48711610366E-01  0.51100000000E-03 0.  1.
</event>
<event>
 8    1  0.1123285E+005  0.1043930E+01  0.7957747E-01            NaN
         13   -1    0    0    0    0  0.00000000000E+00  0.00000000000E+00  0.74505805969E-08  0.10566000000E+00  0.10566000000E+00 0.  1.
     999900   -1    0    0    0    0 -0.00000000000E+00 -0.00000000000E+00 -0.74505805969E-08  0.93827000000E+00  0.93827000000E+00 0. -1.
     999902    2    1    2    0    0  0.28030991147E-02  0.21582035741E-01 -0.82771876729E-02  0.10206458108E+01  0.10203801829E+01 0.  0.
     999903    2    3    3    0    0  0.55094803425E-01  0.94693009181E-01 -0.73778472292E-01  0.13364521605E+00  0.20385716763E-01 0.  0.
         14    1    1    2    0    0 -0.28030991147E-02 -0.21582035741E-01  0.82771876729E-02  0.23284189210E-01  0.00000000000E+00 0. -1.
     999901    1    3    3    0    0 -0.52291704311E-01 -0.73110973440E-01  0.65501284619E-01  0.88700059474E+00  0.88000000000E+00 0.  1.
        -11    1    4    4    0    0  0.76996065387E-02  0.30579837594E-01 -0.17677001419E-01  0.36154500526E-01  0.51100000000E-03 0. -1.
         11    1    4    4    0    0  0.47395196887E-01  0.64113171587E-01 -0.56101470873E-01  0.97490715527E-01  0.51100000000E-03 0.  1.
</event>
<event>
 8    1  0.1123285E+005  0.1043930E+01  0.7957747E-01            NaN
         13   -1    0    0    0    0  0.00000000000E+00  0.00000000000E+00  0.74505805969E-08  0.10566000000E+00  0.10566000000E+00 0.  1.
     999900   -1    0    0    0    0 -0.00000000000E+00 -0.00000000000E+00 -0.74505805969E-08  0.93827000000E+00  0.93827000000E+00 0. -1.
     999902    2    1    2    0    0  0.91244321146E-02  0.18394543603E-01 -0.83115394594E-02  0.10217783368E+01  0.10215381898E+01 0.  0.
     999903    2    3    3    0    0  0.53987497555E-02 -0.15663933146E-01  0.12793526133E+00  0.13063466077E+00  0.20578586035E-01 0.  0.
         14    1    1    2    0    0 -0.91244321146E-02 -0.18394543603E-01  0.83115394594E-02  0.22151663232E-01  0.00000000000E+00 0. -1.
     999901    1    3    3    0    0  0.37256823591E-02  0.34058476749E-01 -0.13624680079E+00  0.89114367600E+00  0.88000000000E+00 0. -1.
        -11    1    4    4    0    0  0.97575471607E-02 -0.71730967909E-03  0.32780892981E-01  0.34213627773E-01  0.51100000000E-03 0. -1.
         11    1    4    4    0    0 -0.43587974052E-02 -0.14946623467E-01  0.95154368346E-01  0.96421032997E-01  0.51100000000E-03 0.  1.
</event>
<event>
 8    1  0.1123285E+005  0.1043930E+01  0.7957747E-01            NaN
         13   -1    0    0    0    0  0.00000000000E+00  0.00000000000E+00  0.74505805969E-08  0.10566000000E+00  0.10566000000E+00 0.  1.
     999900   -1    0    0    0    0 -0.00000000000E+00 -0.00000000000E+00 -0.74505805969E-08  0.93827000000E+00  0.93827000000E+00 0.  1.
     999902    2    1    2    0    0  0.18468210445E-01 -0.14353848647E-01 -0.39533646066E-02  0.10202079246E+01  0.10199320922E+01 0.  0.
     999903    2    3    3    0    0  0.84507135162E-01 -0.86995904502E-01 -0.52151904453E-01  0.13343788280E+00  0.19393404381E-01 0.  0.
         14    1    1    2    0    0 -0.18468210445E-01  0.14353848647E-01  0.39533646066E-02  0.23722075367E-01  0.00000000000E+00 0.  1.
     999901    1    3    3    0    0 -0.66038924717E-01  0.72642055855E-01  0.48198539846E-01  0.88677004184E+00  0.88000000000E+00 0. -1.
        -11    1    4    4    0    0  0.62794904517E-01 -0.59742822047E-01 -0.28183822028E-01  0.91142710979E-01  0.51100000000E-03 0.  1.
         11    1    4    4    0    0  0.21712230645E-01 -0.27253082454E-01 -0.23968082425E-01  0.42295171816E-01  0.51100000000E-03 0. -1.
</event>
<event>
 8    1  0.1123285E+005  0.1043930E+01  0.7957747E-01            NaN
         13   -1    0    0    0    0  0.00000000000E+00  0.00000000000E+00  0.74505805969E-08  0.10566000000E+00  0.10566000000E+00 0. -1.
     999900   -1    0    0    0    0 -0.00000000000E+00 -0.00000000000E+00 -0.74505805969E-08  0.93827000000E+00  0.93827000000E+00 0.  1.
     999902    2    1    2    0    0  0.16952971422E-01  0.14349989816E-01  0.79152004121E-02  0.10203508600E+01  0.10200783801E+01 0.  0.
     999903    2    3    3    0    0  0.22654113772E-01 -0.11942867985E+00  0.40239425172E-01  0.12963536610E+00  0.20241006998E-01 0.  0.
         14    1    1    2    0    0 -0.16952971422E-01 -0.14349989816E-01 -0.79152004121E-02  0.23579140046E-01  0.00000000000E+00 0.  1.
     999901    1    3    3    0    0 -0.57011423507E-02  0.13377866967E+00 -0.32324224760E-01  0.89071549385E+00  0.88000000000E+00 0.  1.
        -11    1    4    4    0    0  0.11377559624E-01 -0.68924991884E-01  0.12667758149E-01  0.70998849193E-01  0.51100000000E-03 0. -1.
         11    1    4    4    0    0  0.11276554149E-01 -0.50503687968E-01  0.27571667022E-01  0.58636516909E-01  0.51100000000E-03 0.  1.
</event>
<event>
 8    1  0.1123285E+005  0.1043930E+01  0.7957747E-01            NaN
         13   -1    0    0    0    0  0.00000000000E+00  0.00000000000E+00  0.74505805969E-08  0.10566000000E+00  0.10566000000E+00 0. -1.
     999900   -1    0    0    0    0 -0.00000000000E+00 -0.00000000000E+00 -0.74505805969E-08  0.93827000000E+00  0.93827000000E+00 0.  1.
     999902    2    1    2    0    0  0.22835992563E-01  0.33460011209E-02  0.72745535190E-02  0.10197308800E+01  0.10194437063E+01 0.  0.
     999903    2    3    3    0    0  0.12242034949E+00  0.84448897336E-02  0.47715224078E-01  0.13317660042E+00  0.20030131257E-01 0.  0.
         14    1    1    2    0    0 -0.22835992563E-01 -0.33460011209E-02 -0.72745535190E-02  0.24199119999E-01  0.00000000000E+00 0.  1.
     999901    1    3    3    0    0 -0.99584356928E-01 -0.50988886127E-02 -0.40440670559E-01  0.88655427958E+00  0.88000000000E+00 0.  1.
        -11    1    4    4    0    0  0.69352514978E-01  0.84263232390E-02  0.17168592494E-01  0.71943004847E-01  0.51100000000E-03 0. -1.
         11    1    4    4    0    0  0.53067834513E-01  0.18566494612E-04  0.30546631583E-01  0.61233595572E-01  0.51100000000E-03 0.  1.
</event>
<event>
 8    1  0.1123285E+005  0.1043930E+01  0.7957747E-01            NaN
         13   -1    0    0    0    0  0.00000000000E+00  0.00000000000E+00  0.74505805969E-08  0.10566000000E+00  0.10566000000E+00 0.  1.
     999900   -1    0    0    0    0 -0.00000000000E+00 -0.00000000000E+00 -0.74505805969E-08  0.93827000000E+00  0.93827000000E+00 0. -1.
     999902    2    1    2    0    0  0.16761224964E-01  0.16802379535E-01 -0.41786768650E-02  0.10198318681E+01  0.10195471148E+01 0.  0.
     999903    2    3    3    0    0 -0.11165769370E+00  0.58055345499E-01  0.18663241989E-01  0.12926183766E+00  0.22856998305E-01 0.  0.
         14    1    1    2    0    0 -0.16761224964E-01 -0.16802379535E-01  0.41786768650E-02  0.24098131892E-01  0.00000000000E+00 0.  1.
     999901    1    3    3    0    0  0.12841891866E+00 -0.41252965964E-01 -0.22841918854E-01  0.89057003045E+00  0.88000000000E+00 0. -1.
        -11    1    4    4    0    0 -0.93697472113E-01  0.39060011658E-01  0.18058646289E-01  0.10310808221E+00  0.51100000000E-03 0.  1.
         11    1    4    4    0    0 -0.17960221585E-01  0.18995333841E-01  0.60459569948E-03  0.26153755448E-01  0.51100000000E-03 0. -1.
</event>
<event>
 8    1  0.1123285E+005  0.1043930E+01  0.7957747E-01            NaN
         13   -1    0    0    0    0  0.00000000000E+00  0.00000000000E+00  0.74505805969E-08  0.10566000000E+00  0.10566000000E+00 0.  1.
     999900   -1    0    0    0    0 -0.00000000000E+00 -0.00000000000E+00 -0.74505805969E-08  0.93827000000E+00  0.93827000000E+00 0. -1.
     999902    2    1    2    0    0  0.20990941629E-01  0.28119913040E-02  0.10987432701E-01  0.10200710268E+01  0.10197919636E+01 0.  0.
     999903    2    3    3    0    0  0.43517810820E-01 -0.42809402854E-01 -0.11288394684E+00  0.12994019926E+00  0.20377072837E-01 0.  0.
         14    1    1    2    0    0 -0.20990941629E-01 -0.28119913040E-02 -0.10987432701E-01  0.23858973216E-01  0.00000000000E+00 0. -1.
     999901    1    3    3    0    0 -0.22526869191E-01  0.45621394158E-01  0.12387137954E+00  0.89013082753E+00  0.88000000000E+00 0.  1.
        -11    1    4    4    0    0  0.18919097339E-01 -0.19604679178E-01 -0.71361252956E-01  0.76386944134E-01  0.51100000000E-03 0.  1.
         11    1    4    4    0    0  0.24598713481E-01 -0.23204723676E-01 -0.41522693887E-01  0.53553255124E-01  0.51100000000E-03 0. -1.
</event>
<event>
 8    1  0.1123285E+005  0.1043930E+01  0.7957747E-01            NaN
         13   -1    0    0    0    0  0.00000000000E+00  0.00000000000E+00  0.74505805969E-08  0.10566000000E+00  0.10566000000E+00 0.  1.
     999900   -1    0    0    0    0 -0.00000000000E+00 -0.00000000000E+00 -0.74505805969E-08  0.93827000000E+00  0.93827000000E+00 0.  1.
     999902    2    1    2    0    0  0.17907209271E-01 -0.12884850912E-01 -0.11730592196E-03  0.10218686925E+01  0.10216305220E+01 0.  0.
     999903    2    3    3    0    0 -0.93620013398E-01 -0.89973543049E-01 -0.45729762703E-02  0.13147504876E+00  0.20120411962E-01 0.  0.
         14    1    1    2    0    0 -0.17907209271E-01  0.12884850912E-01  0.11730592196E-03  0.22061307477E-01  0.00000000000E+00 0. -1.
     999901    1    3    3    0    0  0.11152722267E+00  0.77088692137E-01  0.44556703483E-02  0.89039364376E+00  0.88000000000E+00 0.  1.
        -11    1    4    4    0    0 -0.22314511949E-01 -0.30310472112E-01  0.51498719480E-02  0.37992689629E-01  0.51100000000E-03 0.  1.
         11    1    4    4    0    0 -0.71305501450E-01 -0.59663070937E-01 -0.97228482183E-02  0.93482359133E-01  0.51100000000E-03 0. -1.
</event>
<event>
 8    1  0.1123285E+005  0.1043930E+01  0.7957747E-01            NaN
         13   -1    0    0    0    0  0.00000000000E+00  0.00000000000E+00  0.74505805969E-08  0.10566000000E+00  0.10566000000E+00 0.  1.
     999900   -1    0    0    0    0 -0.00000000000E+00 -0.00000000000E+00 -0.74505805969E-08  0.93827000000E+00  0.93827000000E+00 0. -1.
     999902    2    1    2    0    0  0.26623555961E-01  0.37616752454E-03  0.61670733749E-03  0.10172966457E+01  0.10169479484E+01 0.  0.
     999903    2    3    3    0    0  0.11718424512E+00  0.47889323335E-02 -0.54569409187E-01  0.13091849931E+00  0.20168090272E-01 0.  0.
         14    1    1    2    0    0 -0.26623555961E-01 -0.37616752454E-03 -0.61670733749E-03  0.26633354313E-01  0.00000000000E+00 0.  1.
     999901    1    3    3    0    0 -0.90560689162E-01 -0.44127648089E-02  0.55186116524E-01  0.88637814638E+00  0.88000000000E+00 0. -1.
        -11    1    4    4    0    0  0.94910773744E-01  0.61812960089E-02 -0.52131480127E-01  0.10846296941E+00  0.51100000000E-03 0.  1.
         11    1    4    4    0    0  0.22273471379E-01 -0.13923636754E-02 -0.24379290598E-02  0.22455529898E-01  0.51100000000E-03 0. -1.
</event>
<event>
 8    1  0.1123285E+005  0.1043930E+01  0.7957747E-01            NaN
         13   -1    0    0    0    0  0.00000000000E+00  0.00000000000E+00  0.74505805969E-08  0.10566000000E+00  0.10566000000E+00 0. -1.
     999900   -1    0    0    0    0 -0.00000000000E+00 -0.00000000000E+00 -0.74505805969E-08  0.93827000000E+00  0.93827000000E+00 0. -1.
     999902    2    1    2    0    0  0.16861188833E-01 -0.12706201714E-01  0.18316305140E-02  0.10227379703E+01  0.10225183880E+01 0.  0.
     999903    2    3    3    0    0  0.49843238810E-02  0.38258990019E-01 -0.12469926628E+00  0.13214907610E+00  0.20612556896E-01 0.  0.
         14    1    1    2    0    0 -0.16861188833E-01  0.12706201714E-01 -0.18316305140E-02  0.21192029662E-01  0.00000000000E+00 0. -1.
     999901    1    3    3    0    0  0.11876864952E-01 -0.50965191733E-01  0.12653089680E+00  0.89058889423E+00  0.88000000000E+00 0.  1.
        -11    1    4    4    0    0 -0.30461714601E-02  0.11058239304E-01 -0.15280836149E-01  0.19113578719E-01  0.51100000000E-03 0. -1.
         11    1    4    4    0    0  0.80304953411E-02  0.27200750715E-01 -0.10941843013E+00  0.11303549738E+00  0.51100000000E-03 0.  1.
</event>
<event>
 8    1  0.1123285E+005  0.1043930E+01  0.7957747E-01            NaN
         13   -1    0    0    0    0  0.00000000000E+00  0.00000000000E+00  0.74505805969E-08  0.10566000000E+00  0.10566000000E+00 0.  1.
     999900   -1    0    0    0    0 -0.00000000000E+00 -0.00000000000E+00 -0.74505805969E-08  0.93827000000E+00  0.93827000000E+00 0. -1.
     999902    2    1    2    0    0  0.13922671254E-01 -0.49524093684E-02 -0.13752026148E-01  0.10237437335E+01  0.10235446969E+01 0.  0.
     999903    2    3    3    0    0 -0.11065751470E+00  0.64547034385E-01 -0.26101491823E-01  0.13217045845E+00  0.19399407357E-01 0.  0.
         14    1    1    2    0    0 -0.13922671254E-01  0.49524093684E-02  0.13752026148E-01  0.20186266534E-01  0.00000000000E+00 0.  1.
     999901    1    3    3    0    0  0.12458018595E+00 -0.69499443753E-01  0.12349465675E-01  0.89157327501E+00  0.88000000000E+00 0.  1.
        -11    1    4    4    0    0 -0.88932263024E-01  0.52896609582E-01 -0.13118858032E-01  0.10430419104E+00  0.51100000000E-03 0. -1.
         11    1    4    4    0    0 -0.21725251673E-01  0.11650424803E-01 -0.12982633791E-01  0.27866267412E-01  0.51100000000E-03 0.  1.
</event>
<event>
 8    1  0.1123285E+005  0.1043930E+01  0.7957747E-01            NaN
         13   -1    0    0    0    0  0.00000000000E+00  0.00000000000E+00  0.74505805969E-08  0.10566000000E+00  0.10566000000E+00 0.  1.
     999900   -1    0    0    0    0 -0.00000000000E+00 -0.00000000000E+00 -0.74505805969E-08  0.93827000000E+00  0.93827000000E+00 0.  1.
     999902    2    1    2    0    0  0.22438301010E-01  0.59684272283E-02 -0.24621437794E-02  0.10205813035E+01  0.10203141847E+01 0.  0.
     999903    2    3    3    0    0  0.57928415057E-01  0.27104267331E-01  0.11360166583E+00  0.13199980481E+00  0.20694622773E-01 0.  0.
         14    1    1    2    0    0 -0.22438301010E-01 -0.59684272283E-02  0.24621437794E-02  0.23348696490E-01  0.00000000000E+00 0.  1.
     999901    1    3    3    0    0 -0.35490114047E-01 -0.21135840102E-01 -0.11606380961E+00  0.88858149870E+00  0.88000000000E+00 0.  1.
        -11    1    4    4    0    0  0.48034415609E-01  0.12879498231E-01  0.80228987410E-01  0.94393527847E-01  0.51100000000E-03 0.  1.
         11    1    4    4    0    0  0.98939994482E-02  0.14224769100E-01  0.33372678420E-01  0.37606276962E-01  0.51100000000E-03 0. -1.
</event>
<event>
 8    1  0.1123285E+005  0.1043930E+01  0.7957747E-01            NaN
         13   -1    0    0    0    0  0.00000000000E+00  0.00000000000E+00  0.74505805969E-08  0.10566000000E+00  0.10566000000E+00 0. -1.
     999900   -1    0    0    0    0 -0.00000000000E+00 -0.00000000000E+00 -0.74505805969E-08  0.93827000000E+00  0.93827000000E+00 0.  1.
     999902    2    1    2    0    0  0.50266005667E-02 -0.17581765093E-01 -0.15027926348E-01  0.10202609538E+01  0.10199863676E+01 0.  0.
     999903    2    3    3    0    0  0.16470443767E-01  0.10641967855E+00  0.65915453847E-01  0.12781535302E+00  0.19887028756E-01 0.  0.
         14    1    1    2    0    0 -0.50266005667E-02  0.17581765093E-01  0.15027926348E-01  0.23669046186E-01  0.00000000000E+00 0. -1.
     999901    1    3    3    0    0 -0.11443843200E-01 -0.12400144364E+00 -0.80943380195E-01  0.89244560079E+00  0.88000000000E+00 0.  1.
        -11    1    4    4    0    0  0.16037583056E-01  0.86555135361E-01  0.61694254975E-01  0.10749622201E+00  0.51100000000E-03 0. -1.
         11    1    4    4    0    0  0.43286071020E-03  0.19864543187E-01  0.42211988723E-02  0.20319131019E-01  0.51100000000E-03 0.  1.
</event>
<event>
 8    1  0.1123285E+005  0.1043930E+01  0.7957747E-01            NaN
         13   -1    0    0    0    0  0.00000000000E+00  0.00000000000E+00  0.74505805969E-08  0.10566000000E+00  0.10566000000E+00 0.  1.
     999900   -1    0    0    0    0 -0.00000000000E+00 -0.00000000000E+00 -0.74505805969E-08  0.93827000000E+00  0.93827000000E+00 0. -1.
     999902    2    1    2    0    0  0.17477435698E-01  0.58566575736E-02 -0.14663923554E-01  0.10203759802E+01  0.10201040874E+01 0.  0.
     999903    2    3    3    0    0 -0.58340001958E-02  0.12529624047E+00  0.30658845603E-01  0.13084610972E+00  0.21155523645E-01 0.  0.
         14    1    1    2    0    0 -0.17477435698E-01 -0.58566575736E-02  0.14663923554E-01  0.23554019838E-01  0.00000000000E+00 0.  1.
     999901    1    3    3    0    0  0.23311435894E-01 -0.11943958290E+00 -0.45322769157E-01  0.88952987044E+00  0.88000000000E+00 0.  1.
        -11    1    4    4    0    0  0.80877593736E-04  0.85436910047E-01  0.29965961913E-01  0.90541107426E-01  0.51100000000E-03 0.  1.
         11    1    4    4    0    0 -0.59148777895E-02  0.39859330424E-01  0.69288369025E-03  0.40305002294E-01  0.51100000000E-03 0. -1.
</event>
<event>
 8    1  0.1123285E+005  0.1043930E+01  0.7957747E-01            NaN
         13   -1    0    0    0    0  0.00000000000E+00  0.00000000000E+00  0.74505805969E-08  0.10566000000E+00  0.10566000000E+00 0. -1.
     999900   -1    0    0    0    0 -0.00000000000E+00 -0.00000000000E+00 -0.74505805969E-08  0.93827000000E+00  0.93827000000E+00 0.  1.
     999902    2    1    2    0    0  0.18411390024E-01  0.12064658642E-01 -0.83833482088E-02  0.10203754718E+01  0.10201035671E+01 0.  0.
     999903    2    3    3    0    0  0.69394534286E-01 -0.38928903230E-01  0.10191162878E+00  0.13056391519E+00  0.18163011147E-01 0.  0.
         14    1    1    2    0    0 -0.18411390024E-01 -0.12064658642E-01  0.83833482088E-02  0.23554528183E-01  0.00000000000E+00 0. -1.
     999901    1    3    3    0    0 -0.50983144262E-01  0.50993561872E-01 -0.11029497699E+00  0.88981155662E+00  0.88000000000E+00 0.  1.
        -11    1    4    4    0    0  0.32125247732E-01 -0.28040614372E-01  0.57142750831E-01  0.71301210997E-01  0.51100000000E-03 0.  1.
         11    1    4    4    0    0  0.37269286554E-01 -0.10888288859E-01  0.44768877952E-01  0.59262704196E-01  0.51100000000E-03 0. -1.
</event>
<event>
 8    1  0.1123285E+005  0.1043930E+01  0.7957747E-01            NaN
         13   -1    0    0    0    0  0.00000000000E+00  0.00000000000E+00  0.74505805969E-08  0.10566000000E+00  0.10566000000E+00 0.  1.
     999900   -1    0    0    0    0 -0.00000000000E+00 -0.00000000000E+00 -0.74505805969E-08  0.93827000000E+00  0.93827000000E+00 0.  1.
     999902    2    1    2    0    0  0.21284798391E-01 -0.53017076797E-02 -0.74460423466E-02  0.10207654950E+01  0.10205026220E+01 0.  0.
     999903    2    3    3    0    0  0.99051347221E-01  0.79686396029E-01 -0.33172940187E-01  0.13288459802E+00  0.19919370769E-01 0.  0.
         14    1    1    2    0    0 -0.21284798391E-01  0.53017076797E-02  0.74460423466E-02  0.23164505034E-01  0.00000000000E+00 0.  1.
     999901    1    3    3    0    0 -0.77766548830E-01 -0.84988103708E-01  0.25726897841E-01  0.88788089695E+00  0.88000000000E+00 0. -1.
        -11    1    4    4    0    0  0.97116810555E-01  0.74367697069E-01 -0.28675194451E-01  0.12563740350E+00  0.51100000000E-03 0. -1.
         11    1    4    4    0    0  0.19345366657E-02  0.53186989594E-02 -0.44977457363E-02  0.72471945220E-02  0.51100000000E-03 0.  1.
</event>
<event>
 8    1  0.1123285E+005  0.1043930E+01  0.7957747E-01            NaN
         13   -1    0    0    0    0  0.00000000000E+00  0.00000000000E+00  0.74505805969E-08  0.10566000000E+00  0.10566000000E+00 0. -1.
     999900   -1    0    0    0    0 -0.00000000000E+00 -0.00000000000E+00 -0.74505805969E-08  0.93827000000E+00  0.93827000000E+00 0. -1.
     999902    2    1    2    0    0  0.18109273550E-01 -0.14216913330E-01  0.30910097288E-02  0.10207002614E+01  0.10204358887E+01 0.  0.
     999903    2    3    3    0    0  0.10433324984E+00  0.55804447027E-01  0.55535888859E-01  0.13216887180E+00  0.19616635635E-01 0.  0.
         14    1    1    2    0    0 -0.18109273550E-01  0.14216913330E-01 -0.30910097288E-02  0.23229738575E-01  0.00000000000E+00 0.  1.
     999901    1    3    3    0    0 -0.86223976285E-01 -0.70021360357E-01 -0.52444879131E-01  0.88853138962E+00  0.88000000000E+00 0.  1.
        -11    1    4    4    0    0  0.74430980404E-01  0.48003842588E-01  0.46125975187E-01  0.99860935581E-01  0.51100000000E-03 0. -1.
         11    1    4    4    0    0  0.29902269431E-01  0.78006044390E-02  0.94099136724E-02  0.32307936224E-01  0.51100000000E-03 0.  1.
</event>
<event>
 8    1  0.1123285E+005  0.1043930E+01  0.7957747E-01            NaN
         13   -1    0    0    0    0  0.00000000000E+00  0.00000000000E+00  0.74505805969E-08  0.10566000000E+00  0.10566000000E+00 0. -1.
     999900   -1    0    0    0    0 -0.00000000000E+00 -0.00000000000E+00 -0.74505805969E-08  0.93827000000E+00  0.93827000000E+00 0. -1.
     999902    2    1    2    0    0 -0.66867971996E-02  0.21946579755E-01 -0.50441818404E-02  0.10204393765E+01  0.10201689624E+01 0.  0.
     999903    2    3    3    0    0  0.12501270499E+00  0.31838439225E-01 -0.89403175186E-02  0.13057546131E+00  0.18115164858E-01 0.  0.
         14    1    1    2    0    0  0.66867971996E-02 -0.21946579755E-01  0.50441818404E-02  0.23490623452E-01  0.00000000000E+00 0.  1.
     999901    1    3    3    0    0 -0.13169950219E+00 -0.98918594698E-02  0.38961356782E-02  0.88986391523E+00  0.88000000000E+00 0. -1.
        -11    1    4    4    0    0  0.30465472228E-01  0.13499760370E-03 -0.19882798356E-03  0.30470705210E-01  0.51100000000E-03 0. -1.
         11    1    4    4    0    0  0.94547232767E-01  0.31703441621E-01 -0.87414895351E-02  0.10010475610E+00  0.51100000000E-03 0.  1.
</event>
<event>
 8    1  0.1123285E+005  0.1043930E+01  0.7957747E-01            NaN
         13   -1    0    0    0    0  0.00000000000E+00  0.00000000000E+00  0.74505805969E-08  0.10566000000E+00  0.10566000000E+00 0.  1.
     999900   -1    0    0    0    0 -0.00000000000E+00 -0.00000000000E+00 -0.74505805969E-08  0.93827000000E+00  0.93827000000E+00 0.  1.
     999902    2    1    2    0    0  0.19153021692E-01  0.10936722551E-01  0.84461804962E-02  0.10203124619E+01  0.10200390835E+01 0.  0.
     999903    2    3    3    0    0 -0.92681136649E-01 -0.66992987994E-01 -0.53095062623E-01  0.12769426618E+00  0.20220939874E-01 0.  0.
         14    1    1    2    0    0 -0.19153021692E-01 -0.10936722551E-01 -0.84461804962E-02  0.23617538082E-01  0.00000000000E+00 0. -1.
     999901    1    3    3    0    0  0.11183415834E+00  0.77929710545E-01  0.61541243119E-01  0.89261819574E+00  0.88000000000E+00 0. -1.
        -11    1    4    4    0    0 -0.27346224232E-01 -0.31686977603E-01 -0.19855714422E-01  0.46329159776E-01  0.51100000000E-03 0. -1.
         11    1    4    4    0    0 -0.65334912417E-01 -0.35306010391E-01 -0.33239348201E-01  0.81365106404E-01  0.51100000000E-03 0.  1.
</event>
<event>
 8    1  0.1123285E+005  0.1043930E+01  0.7957747E-01            NaN
         13   -1    0    0    0    0  0.00000000000E+00  0.00000000000E+00  0.74505805969E-08  0.10566000000E+00  0.10566000000E+00 0.  1.
     999900   -1    0    0    0    0 -0.00000000000E+00 -0.00000000000E+00 -0.74505805969E-08  0.93827000000E+00  0.93827000000E+00 0.  1.
     999902    2    1    2    0    0 -0.36126797884E-02 -0.18283607579E-01 -0.14509253049E-01  0.10203109360E+01  0.10200375218E+01 0.  0.
     999903    2    3    3    0    0 -0.23020755464E-01 -0.10024120097E+00  0.79132664285E-01  0.13134382230E+00  0.20272334489E-01 0.  0.
         14    1    1    2    0    0  0.36126797884E-02  0.18283607579E-01  0.14509253049E-01  0.23619064024E-01  0.00000000000E+00 0.  1.
     999901    1    3    3    0    0  0.19408075676E-01  0.81957593390E-01 -0.93641917334E-01  0.88896711368E+00  0.88000000000E+00 0.  1.
        -11    1    4    4    0    0 -0.91764766727E-02 -0.59971616774E-01  0.35130594298E-01  0.70108646538E-01  0.51100000000E-03 0.  1.
         11    1    4    4    0    0 -0.13844278791E-01 -0.40269584195E-01  0.44002069987E-01  0.61235175762E-01  0.51100000000E-03 0. -1.
</event>
<event>
 8    1  0.1123285E+005  0.1043930E+01  0.7957747E-01            NaN
         13   -1    0    0    0    0  0.00000000000E+00  0.00000000000E+00  0.74505805969E-08  0.10566000000E+00  0.10566000000E+00 0. -1.
     999900   -1    0    0    0    0 -0.00000000000E+00 -0.00000000000E+00 -0.74505805969E-08  0.93827000000E+00  0.93827000000E+00 0.  1.
     999902    2    1    2    0    0 -0.72959487414E-02  0.10974297602E-01  0.19665587507E-01  0.10202572011E+01  0.10199825268E+01 0.  0.
     999903    2    3    3    0    0  0.34209310368E-01  0.39148635335E-02 -0.12143606874E+00  0.12802281511E+00  0.21389701407E-01 0.  0.
         14    1    1    2    0    0  0.72959487414E-02 -0.10974297602E-01 -0.19665587507E-01  0.23672798903E-01  0.00000000000E+00 0.  1.
     999901    1    3    3    0    0 -0.41505259110E-01  0.70594340683E-02  0.14110165624E+00  0.89223438599E+00  0.88000000000E+00 0. -1.
        -11    1    4    4    0    0  0.33528022468E-01  0.52719664337E-02 -0.84651863385E-01  0.91203733565E-01  0.51100000000E-03 0. -1.
         11    1    4    4    0    0  0.68128789992E-03 -0.13571029002E-02 -0.36784205351E-01  0.36819081545E-01  0.51100000000E-03 0.  1.
</event>
<event>
 8    1  0.1123285E+005  0.1043930E+01  0.7957747E-01            NaN
         13   -1    0    0    0    0  0.00000000000E+00  0.00000000000E+00  0.74505805969E-08  0.10566000000E+00  0.10566000000E+00 0. -1.
     999900   -1    0    0    0    0 -0.00000000000E+00 -0.00000000000E+00 -0.74505805969E-08  0.93827000000E+00  0.93827000000E+00 0. -1.
     999902    2    1    2    0    0  0.15225580704E-01 -0.13653062312E-01  0.10712988224E-01  0.10208433689E+01  0.10205822805E+01 0.  0.
     999903    2    3    3    0    0  0.11108669178E+00 -0.37983801946E-01  0.63024640977E-01  0.13375946842E+00  0.11681939934E-01 0.  0.
         14    1    1    2    0    0 -0.15225580704E-01  0.13653062312E-01 -0.10712988224E-01  0.23086631087E-01  0.00000000000E+00 0.  1.
     999901    1    3    3    0    0 -0.95861111072E-01  0.24330739634E-01 -0.52311652753E-01  0.88708390050E+00  0.88000000000E+00 0.  1.
        -11    1    4    4    0    0  0.40589661597E-01 -0.19404015892E-01  0.21630924089E-01  0.49921883571E-01  0.51100000000E-03 0.  1.
         11    1    4    4    0    0  0.70497030179E-01 -0.18579786054E-01  0.41393716888E-01  0.83837584845E-01  0.51100000000E-03 0. -1.
</event>
<event>
 8    1  0.1123285E+005  0.1043930E+01  0.7957747E-01            NaN
         13   -1    0    0    0    0  0.00000000000E+00  0.00000000000E+00  0.74505805969E-08  0.10566000000E+00  0.10566000000E+00 0.  1.
     999900   -1    0    0    0    0 -0.00000000000E+00 -0.00000000000E+00 -0.74505805969E-08  0.93827000000E+00  0.93827000000E+00 0. -1.
     999902    2    1    2    0    0  0.99640137411E-02  0.11433804485E-01  0.17553528363E-01  0.10207321593E+01  0.10204685205E+01 0.  0.
     999903    2    3    3    0    0  0.77191556937E-01 -0.30821742745E-01 -0.97597568532E-01  0.12968510727E+00  0.19606768596E-01 0.  0.
         14    1    1    2    0    0 -0.99640137411E-02 -0.11433804485E-01 -0.17553528363E-01  0.23197840693E-01  0.00000000000E+00 0. -1.
     999901    1    3    3    0    0 -0.67227543196E-01  0.42255547230E-01  0.11515109689E+00  0.89104705204E+00  0.88000000000E+00 0.  1.
        -11    1    4    4    0    0  0.30173691909E-01 -0.22288749929E-01 -0.39925483433E-01  0.54786361489E-01  0.51100000000E-03 0.  1.
         11    1    4    4    0    0  0.47017865028E-01 -0.85329928163E-02 -0.57672085100E-01  0.74898745777E-01  0.51100000000E-03 0. -1.
</event>
<event>
 8    1  0.1123285E+005  0.1043930E+01  0.7957747E-01            NaN
         13   -1    0    0    0    0  0.00000000000E+00  0.00000000000E+00  0.74505805969E-08  0.10566000000E+00  0.10566000000E+00 0. -1.
     999900   -1    0    0    0    0 -0.00000000000E+00 -0.00000000000E+00 -0.74505805969E-08  0.93827000000E+00  0.93827000000E+00 0.  1.
     999902    2    1    2    0    0 -0.11402752334E-02 -0.23004489572E-01 -0.43376702541E-02  0.10204923774E+01  0.10202231963E+01 0.  0.
     999903    2    3    3    0    0 -0.12510659983E+00  0.25934434536E-01  0.13775629448E-01  0.13027287667E+00  0.21377516522E-01 0.  0.
         14    1    1    2    0    0  0.11402752334E-02  0.23004489572E-01  0.43376702541E-02  0.23437622561E-01  0.00000000000E+00 0.  1.
     999901    1    3    3    0    0  0.12396632460E+00 -0.48938924108E-01 -0.18113299702E-01  0.89021950077E+00  0.88000000000E+00 0.  1.
        -11    1    4    4    0    0 -0.49443730855E-01  0.11595608650E-04  0.26096207686E-02  0.49515188548E-01  0.51100000000E-03 0. -1.
         11    1    4    4    0    0 -0.75662868976E-01  0.25922838928E-01  0.11166008679E-01  0.80757688121E-01  0.51100000000E-03 0.  1.
</event>
<event>
 8    1  0.1123285E+005  0.1043930E+01  0.7957747E-01            NaN
         13   -1    0    0    0    0  0.00000000000E+00  0.00000000000E+00  0.74505805969E-08  0.10566000000E+00  0.10566000000E+00 0.  1.
     999900   -1    0    0    0    0 -0.00000000000E+00 -0.00000000000E+00 -0.74505805969E-08  0.93827000000E+00  0.93827000000E+00 0.  1.
     999902    2    1    2    0    0  0.18710856732E-01 -0.51063610367E-02  0.17907396698E-01  0.10175321603E+01  0.10171896831E+01 0.  0.
     999903    2    3    3    0    0 -0.97113917740E-01  0.73692352093E-01 -0.21463748182E-01  0.12558221632E+00  0.21178403950E-01 0.  0.
         14    1    1    2    0    0 -0.18710856732E-01  0.51063610367E-02 -0.17907396698E-01  0.26397839669E-01  0.00000000000E+00 0. -1.
     999901    1    3    3    0    0  0.11582477447E+00 -0.78798713130E-01  0.39371144880E-01  0.89194994401E+00  0.88000000000E+00 0. -1.
        -11    1    4    4    0    0 -0.50190390017E-01  0.25901939310E-01 -0.13988751958E-01  0.58188761908E-01  0.51100000000E-03 0. -1.
         11    1    4    4    0    0 -0.46923527723E-01  0.47790412783E-01 -0.74749962242E-02  0.67393454412E-01  0.51100000000E-03 0.  1.
</event>
<event>
 8    1  0.1123285E+005  0.1043930E+01  0.7957747E-01            NaN
         13   -1    0    0    0    0  0.00000000000E+00  0.00000000000E+00  0.74505805969E-08  0.10566000000E+00  0.10566000000E+00 0. -1.
     999900   -1    0    0    0    0 -0.00000000000E+00 -0.00000000000E+00 -0.74505805969E-08  0.93827000000E+00  0.93827000000E+00 0. -1.
     999902    2    1    2    0    0  0.11953503865E-01  0.27087041020E-01  0.18562996356E-01  0.10089846301E+01  0.10083792961E+01 0.  0.
     999903    2    3    3    0    0  0.92453157174E-01 -0.47293387945E-01  0.59621246388E-01  0.12123555387E+00  0.18950347926E-01 0.  0.
         14    1    1    2    0    0 -0.11953503865E-01 -0.27087041020E-01 -0.18562996356E-01  0.34945369931E-01  0.00000000000E+00 0. -1.
     999901    1    3    3    0    0 -0.80499653309E-01  0.74380428966E-01 -0.41058250032E-01  0.88774907620E+00  0.88000000000E+00 0.  1.
        -11    1    4    4    0    0  0.23303995482E-01 -0.21244937290E-01  0.15119082385E-01  0.34975296126E-01  0.51100000000E-03 0. -1.
         11    1    4    4    0    0  0.69149161692E-01 -0.26048450655E-01  0.44502164004E-01  0.86260257745E-01  0.51100000000E-03 0.  1.
</event>
<event>
 8    1  0.1123285E+005  0.1043930E+01  0.7957747E-01            NaN
         13   -1    0    0    0    0  0.00000000000E+00  0.00000000000E+00  0.74505805969E-08  0.10566000000E+00  0.10566000000E+00 0.  1.
     999900   -1    0    0    0    0 -0.00000000000E+00 -0.00000000000E+00 -0.74505805969E-08  0.93827000000E+00  0.93827000000E+00 0.  1.
     999902    2    1    2    0    0  0.21051742158E-01  0.76467466482E-02 -0.59453144801E-02  0.10207568400E+01  0.10204937682E+01 0.  0.
     999903    2    3    3    0    0 -0.30491250149E-01 -0.13904473478E-01  0.12475102282E+00  0.12935195567E+00  0.67867533798E-02 0.  0.
         14    1    1    2    0    0 -0.21051742158E-01 -0.76467466482E-02  0.59453144801E-02  0.23173160045E-01  0.00000000000E+00 0.  1.
     999901    1    3    3    0    0  0.51542992307E-01  0.21551220126E-01 -0.13069633730E+00  0.89140488429E+00  0.88000000000E+00 0.  1.
        -11    1    4    4    0    0 -0.26641383725E-01 -0.96448925276E-02  0.99927508660E-01  0.10386797094E+00  0.51100000000E-03 0.  1.
         11    1    4    4    0    0 -0.38498664239E-02 -0.42595809507E-02  0.24823514164E-01  0.25483984732E-01  0.51100000000E-03 0. -1.
</event>
<event>
 8    1  0.1123285E+005  0.1043930E+01  0.7957747E-01            NaN
         13   -1    0    0    0    0  0.00000000000E+00  0.00000000000E+00  0.74505805969E-08  0.10566000000E+00  0.10566000000E+00 0. -1.
     999900   -1    0    0    0    0 -0.00000000000E+00 -0.00000000000E+00 -0.74505805969E-08  0.93827000000E+00  0.93827000000E+00 0.  1.
     999902    2    1    2    0    0 -0.13663613365E-01 -0.12303312792E-01 -0.14379873840E-01  0.10205880505E+01  0.10203210878E+01 0.  0.
     999903    2    3    3    0    0  0.10758527639E+00  0.42761291000E-01 -0.54857451757E-01  0.12964931062E+00  0.19911906691E-01 0.  0.
         14    1    1    2    0    0  0.13663613365E-01  0.12303312792E-01  0.14379873840E-01  0.23341949522E-01  0.00000000000E+00 0. -1.
     999901    1    3    3    0    0 -0.12124888976E+00 -0.55064603791E-01  0.40477577917E-01  0.89093873985E+00  0.88000000000E+00 0. -1.
        -11    1    4    4    0    0  0.80682968247E-01  0.23512223215E-01 -0.34802134073E-01  0.90961616425E-01  0.51100000000E-03 0.  1.
         11    1    4    4    0    0  0.26902308144E-01  0.19249067785E-01 -0.20055317683E-01  0.38687694199E-01  0.51100000000E-03 0. -1.
</event>
<event>
 8    1  0.1123285E+005  0.1043930E+01  0.7957747E-01            NaN
         13   -1    0    0    0    0  0.00000000000E+00  0.00000000000E+00  0.74505805969E-08  0.10566000000E+00  0.10566000000E+00 0.  1.
     999900   -1    0    0    0    0 -0.00000000000E+00 -0.00000000000E+00 -0.74505805969E-08  0.93827000000E+00  0.93827000000E+00 0.  1.
     999902    2    1    2    0    0 -0.80455945460E-02 -0.16128158029E-01 -0.13099686509E-01  0.10216488228E+01  0.10214058283E+01 0.  0.
     999903    2    3    3    0    0 -0.24947838700E-01 -0.12266113684E+00  0.41757371429E-01  0.13336719048E+00  0.19364407578E-01 0.  0.
         14    1    1    2    0    0  0.80455945460E-02  0.16128158029E-01  0.13099686509E-01  0.22281177250E-01  0.00000000000E+00 0.  1.
     999901    1    3    3    0    0  0.16902244154E-01  0.10653297881E+00 -0.54857057938E-01  0.88828163227E+00  0.88000000000E+00 0.  1.
        -11    1    4    4    0    0 -0.10741769440E-01 -0.56066554253E-01  0.29204567894E-01  0.64124971917E-01  0.51100000000E-03 0. -1.
         11    1    4    4    0    0 -0.14206069260E-01 -0.66594582583E-01  0.12552803535E-01  0.69242218558E-01  0.51100000000E-03 0.  1.
</event>
<event>
 8    1  0.1123285E+005  0.1043930E+01  0.7957747E-01            NaN
         13   -1    0    0    0    0  0.00000000000E+00  0.00000000000E+00  0.74505805969E-08  0.10566000000E+00  0.10566000000E+00 0. -1.
     999900   -1    0    0    0    0 -0.00000000000E+00 -0.00000000000E+00 -0.74505805969E-08  0.93827000000E+00  0.93827000000E+00 0. -1.
     999902    2    1    2    0    0  0.12772475769E-01 -0.20576646625E-01 -0.38260975108E-03  0.10197085031E+01  0.10194207916E+01 0.  0.
     999903    2    3    3    0    0  0.67967017856E-02  0.12488238068E+00 -0.15740133948E-01  0.12761551909E+00  0.19903887484E-01 0.  0.
         14    1    1    2    0    0 -0.12772475769E-01  0.20576646625E-01  0.38260975108E-03  0.24221496936E-01  0.00000000000E+00 0.  1.
     999901    1    3    3    0    0  0.59757739836E-02 -0.14545902731E+00  0.15357524197E-01  0.89209298397E+00  0.88000000000E+00 0.  1.
        -11    1    4    4    0    0  0.26434896954E-02  0.47440802359E-01  0.37019762870E-02  0.47661132128E-01  0.51100000000E-03 0.  1.
         11    1    4    4    0    0  0.41532120901E-02  0.77441578322E-01 -0.19442110235E-01  0.79954386966E-01  0.51100000000E-03 0. -1.
</event>
<event>
 8    1  0.1123285E+005  0.1043930E+01  0.7957747E-01            NaN
         13   -1    0    0    0    0  0.00000000000E+00  0.00000000000E+00  0.74505805969E-08  0.10566000000E+00  0.10566000000E+00 0. -1.
     999900   -1    0    0    0    0 -0.00000000000E+00 -0.00000000000E+00 -0.74505805969E-08  0.93827000000E+00  0.93827000000E+00 0. -1.
     999902    2    1    2    0    0 -0.43201139577E-02  0.17097637423E-01  0.14949673750E-01  0.10208110611E+01  0.10205492331E+01 0.  0.
     999903    2    3    3    0    0 -0.12894765353E+00 -0.42715415091E-02  0.16936666851E-01  0.13177078443E+00  0.20759227495E-01 0.  0.
         14    1    1    2    0    0  0.43201139577E-02 -0.17097637423E-01 -0.14949673750E-01  0.23118938887E-01  0.00000000000E+00 0.  1.
     999901    1    3    3    0    0  0.12462753957E+00  0.21369178932E-01 -0.19869931012E-02  0.88904027669E+00  0.88000000000E+00 0.  1.
        -11    1    4    4    0    0 -0.62507740961E-01 -0.85284159666E-02  0.68103203373E-04  0.63088963520E-01  0.51100000000E-03 0.  1.
         11    1    4    4    0    0 -0.66439912571E-01  0.42568744574E-02  0.16868563647E-01  0.68681820907E-01  0.51100000000E-03 0. -1.
</event>
<event>
 8    1  0.1123285E+005  0.1043930E+01  0.7957747E-01            NaN
         13   -1    0    0    0    0  0.00000000000E+00  0.00000000000E+00  0.74505805969E-08  0.10566000000E+00  0.10566000000E+00 0. -1.
     999900   -1    0    0    0    0 -0.00000000000E+00 -0.00000000000E+00 -0.74505805969E-08  0.93827000000E+00  0.93827000000E+00 0.  1.
     999902    2    1    2    0    0 -0.12255086232E-01  0.21481753398E-01 -0.29053923176E-02  0.10190283099E+01  0.10187240068E+01 0.  0.
     999903    2    3    3    0    0 -0.21381609359E-01 -0.12128969381E+00  0.23372418869E-01  0.12708800752E+00  0.20898053706E-01 0.  0.
         14    1    1    2    0    0  0.12255086232E-01 -0.21481753398E-01  0.29053923176E-02  0.24901690146E-01  0.00000000000E+00 0.  1.
     999901    1    3    3    0    0  0.91265231265E-02  0.14277144721E+00 -0.26277811186E-01  0.89194030233E+00  0.88000000000E+00 0.  1.
        -11    1    4    4    0    0 -0.21213560726E-01 -0.10388555057E+00  0.26745728245E-01  0.10935180784E+00  0.51100000000E-03 0.  1.
         11    1    4    4    0    0 -0.16804863328E-03 -0.17404143238E-01 -0.33733093760E-02  0.17736199687E-01  0.51100000000E-03 0. -1.
</event>
<event>
 8    1  0.1123285E+005  0.1043930E+01  0.7957747E-01            NaN
         13   -1    0    0    0    0  0.00000000000E+00  0.00000000000E+00  0.74505805969E-08  0.10566000000E+00  0.10566000000E+00 0.  1.
     999900   -1    0    0    0    0 -0.00000000000E+00 -0.00000000000E+00 -0.74505805969E-08  0.93827000000E+00  0.93827000000E+00 0. -1.
     999902    2    1    2    0    0  0.85860094624E-02  0.63857646242E-02 -0.20892785759E-01  0.10204564820E+01  0.10201864661E+01 0.  0.
     999903    2    3    3    0    0  0.62954278803E-02 -0.12535914377E+00 -0.29735145253E-01  0.13060247437E+00  0.20451897472E-01 0.  0.
         14    1    1    2    0    0 -0.85860094624E-02 -0.63857646242E-02  0.20892785759E-01  0.23473517953E-01  0.00000000000E+00 0.  1.
     999901    1    3    3    0    0  0.22905815820E-02  0.13174490839E+00  0.88423594948E-02  0.88985400767E+00  0.88000000000E+00 0.  1.
        -11    1    4    4    0    0  0.11752617963E-01 -0.54302427555E-01 -0.82829322905E-02  0.56176024741E-01  0.51100000000E-03 0. -1.
         11    1    4    4    0    0 -0.54571900828E-02 -0.71056716215E-01 -0.21452212963E-01  0.74426449632E-01  0.51100000000E-03 0.  1.
</event>
<event>
 8    1  0.1123285E+005  0.1043930E+01  0.7957747E-01            NaN
         13   -1    0    0    0    0  0.00000000000E+00  0.00000000000E+00  0.74505805969E-08  0.10566000000E+00  0.10566000000E+00 0. -1.
     999900   -1    0    0    0    0 -0.00000000000E+00 -0.00000000000E+00 -0.74505805969E-08  0.93827000000E+00  0.93827000000E+00 0. -1.
     999902    2    1    2    0    0  0.22402488265E-01  0.75585168757E-02  0.77668097271E-03  0.10202740094E+01  0.10199997296E+01 0.  0.
     999903    2    3    3    0    0  0.58114836915E-01  0.61634317024E-01 -0.99445009991E-01  0.13221773227E+00  0.20398416869E-01 0.  0.
         14    1    1    2    0    0 -0.22402488265E-01 -0.75585168757E-02 -0.77668097271E-03  0.23655990597E-01  0.00000000000E+00 0. -1.
     999901    1    3    3    0    0 -0.35712348650E-01 -0.54075800149E-01  0.10022169096E+00  0.88805627713E+00  0.88000000000E+00 0.  1.
        -11    1    4    4    0    0  0.36901675044E-01  0.42143666759E-01 -0.79179861930E-01  0.96992442619E-01  0.51100000000E-03 0. -1.
         11    1    4    4    0    0  0.21213161871E-01  0.19490650266E-01 -0.20265148062E-01  0.35225289655E-01  0.51100000000E-03 0.  1.
</event>
<event>
 8    1  0.1123285E+005  0.1043930E+01  0.7957747E-01            NaN
         13   -1    0    0    0    0  0.00000000000E+00  0.00000000000E+00  0.74505805969E-08  0.10566000000E+00  0.10566000000E+00 0.  1.
     999900   -1    0    0    0    0 -0.00000000000E+00 -0.00000000000E+00 -0.74505805969E-08  0.93827000000E+00  0.93827000000E+00 0. -1.
     999902    2    1    2    0    0  0.19226290566E-01 -0.21830431575E-02 -0.14061112741E-01  0.10200107438E+01  0.10197302519E+01 0.  0.
     999903    2    3    3    0    0 -0.10469235253E+00  0.57006874447E-01 -0.44724795907E-01  0.12883200867E+00  0.19675026746E-01 0.  0.
         14    1    1    2    0    0 -0.19226290566E-01  0.21830431575E-02  0.14061112741E-01  0.23919256215E-01  0.00000000000E+00 0.  1.
     999901    1    3    3    0    0  0.12391864309E+00 -0.59189917605E-01  0.30663683166E-01  0.89117873511E+00  0.88000000000E+00 0.  1.
        -11    1    4    4    0    0 -0.29878612161E-01  0.23820704156E-01 -0.21059076594E-01  0.43633739688E-01  0.51100000000E-03 0. -1.
         11    1    4    4    0    0 -0.74813740366E-01  0.33186170291E-01 -0.23665719313E-01  0.85198268984E-01  0.51100000000E-03 0.  1.
</event>
<event>
 8    1  0.1123285E+005  0.1043930E+01  0.7957747E-01            NaN
         13   -1    0    0    0    0  0.00000000000E+00  0.00000000000E+00  0.74505805969E-08  0.10566000000E+00  0.10566000000E+00 0. -1.
     999900   -1    0    0    0    0 -0.00000000000E+00 -0.00000000000E+00 -0.74505805969E-08  0.93827000000E+00  0.93827000000E+00 0.  1.
     999902    2    1    2    0    0 -0.13497442473E-01 -0.14228486189E-01  0.13320320606E-01  0.10202221592E+01  0.10199466616E+01 0.  0.
     999903    2    3    3    0    0 -0.95115571368E-01 -0.68922845234E-01  0.60192885921E-01  0.13351475019E+00  0.20141362709E-01 0.  0.
         14    1    1    2    0    0  0.13497442473E-01  0.14228486189E-01 -0.13320320606E-01  0.23707840762E-01  0.00000000000E+00 0.  1.
     999901    1    3    3    0    0  0.81618128895E-01  0.54694359045E-01 -0.46872565315E-01  0.88670740904E+00  0.88000000000E+00 0. -1.
        -11    1    4    4    0    0 -0.28551220043E-01 -0.31300530704E-01  0.16650701214E-01  0.45523646165E-01  0.51100000000E-03 0.  1.
         11    1    4    4    0    0 -0.66564351325E-01 -0.37622314531E-01  0.43542184707E-01  0.87991104028E-01  0.51100000000E-03 0. -1.
</event>
<event>
 8    1  0.1123285E+005  0.1043930E+01  0.7957747E-01            NaN
         13   -1    0    0    0    0  0.00000000000E+00  0.00000000000E+00  0.74505805969E-08  0.10566000000E+00  0.10566000000E+00 0. -1.
     999900   -1    0    0    0    0 -0.00000000000E+00 -0.00000000000E+00 -0.74505805969E-08  0.93827000000E+00  0.93827000000E+00 0.  1.
     999902    2    1    2    0    0 -0.44096585314E-02  0.19147464731E-01  0.11512849250E-01  0.10211568537E+01  0.10209028865E+01 0.  0.
     999903    2    3    3    0    0  0.28352457975E-01  0.88794905292E-01 -0.91116952761E-01  0.13185544333E+00  0.19878676391E-01 0.  0.
         14    1    1    2    0    0  0.44096585314E-02 -0.19147464731E-01 -0.11512849250E-01  0.22773146288E-01  0.00000000000E+00 0.  1.
     999901    1    3    3    0    0 -0.32762116507E-01 -0.69647440561E-01  0.10262980201E+00  0.88930141039E+00  0.88000000000E+00 0. -1.
        -11    1    4    4    0    0  0.13442893159E-01  0.15593971594E-01 -0.19023113236E-01  0.28036106804E-01  0.51100000000E-03 0. -1.
         11    1    4    4    0    0  0.14909564817E-01  0.73200933698E-01 -0.72093839526E-01  0.10381933652E+00  0.51100000000E-03 0.  1.
</event>
<event>
 8    1  0.1123285E+005  0.1043930E+01  0.7957747E-01            NaN
         13   -1    0    0    0    0  0.00000000000E+00  0.00000000000E+00  0.74505805969E-08  0.10566000000E+00  0.10566000000E+00 0. -1.
     999900   -1    0    0    0    0 -0.00000000000E+00 -0.00000000000E+00 -0.74505805969E-08  0.93827000000E+00  0.93827000000E+00 0.  1.
     999902    2    1    2    0    0  0.75079712593E-02  0.15422639295E-01 -0.24652928842E-01  0.10138967795E+01  0.10134518662E+01 0.  0.
     999903    2    3    3    0    0  0.96941676659E-01 -0.29515129451E-04  0.73893103620E-01  0.12375719645E+00  0.21400078635E-01 0.  0.
         14    1    1    2    0    0 -0.75079712593E-02 -0.15422639295E-01  0.24652928842E-01  0.30033220535E-01  0.00000000000E+00 0. -1.
     999901    1    3    3    0    0 -0.89433705400E-01  0.15452154425E-01 -0.98546032462E-01  0.89013958302E+00  0.88000000000E+00 0.  1.
        -11    1    4    4    0    0  0.17404699449E-01  0.88260719842E-03  0.24691364023E-01  0.30226265675E-01  0.51100000000E-03 0. -1.
         11    1    4    4    0    0  0.79536977210E-01 -0.91212232787E-03  0.49201739597E-01  0.93530930773E-01  0.51100000000E-03 0.  1.
</event>
<event>
 8    1  0.1123285E+005  0.1043930E+01  0.7957747E-01            NaN
         13   -1    0    0    0    0  0.00000000000E+00  0.00000000000E+00  0.74505805969E-08  0.10566000000E+00  0.10566000000E+00 0.  1.
     999900   -1    0    0    0    0 -0.00000000000E+00 -0.00000000000E+00 -0.74505805969E-08  0.93827000000E+00  0.93827000000E+00 0.  1.
     999902    2    1    2    0    0  0.21998013828E-01 -0.49582659539E-02  0.85327342370E-02  0.10198197415E+01  0.10195346980E+01 0.  0.
     999903    2    3    3    0    0  0.50684780389E-01 -0.10416300180E-01 -0.11784315407E+00  0.13031224522E+00  0.20416317505E-01 0.  0.
         14    1    1    2    0    0 -0.21998013828E-01  0.49582659539E-02 -0.85327342370E-02  0.24110258547E-01  0.00000000000E+00 0. -1.
     999901    1    3    3    0    0 -0.28686766561E-01  0.54580342265E-02  0.12637588831E+00  0.88950749624E+00  0.88000000000E+00 0. -1.
        -11    1    4    4    0    0  0.61726956072E-02  0.50596268977E-02 -0.24040514563E-01  0.25335932129E-01  0.51100000000E-03 0. -1.
         11    1    4    4    0    0  0.44512084782E-01 -0.15475927078E-01 -0.93802639506E-01  0.10497631309E+00  0.51100000000E-03 0.  1.
</event>
<event>
 8    1  0.1123285E+005  0.1043930E+01  0.7957747E-01            NaN
         13   -1    0    0    0    0  0.00000000000E+00  0.00000000000E+00  0.74505805969E-08  0.10566000000E+00  0.10566000000E+00 0. -1.
     999900   -1    0    0    0    0 -0.00000000000E+00 -0.00000000000E+00 -0.74505805969E-08  0.93827000000E+00  0.93827000000E+00 0. -1.
     999902    2    1    2    0    0  0.23252525872E-01  0.50015831460E-02 -0.63350666314E-03  0.10201372044E+01  0.10198597054E+01 0.  0.
     999903    2    3    3    0    0  0.32285464369E-01 -0.11771201351E+00  0.43220184453E-01  0.13049493524E+00  0.16201063117E-01 0.  0.
         14    1    1    2    0    0 -0.23252525872E-01 -0.50015831460E-02  0.63350666314E-03  0.23792795634E-01  0.00000000000E+00 0.  1.
     999901    1    3    3    0    0 -0.90329384966E-02  0.12271359666E+00 -0.43853691116E-01  0.88964226912E+00  0.88000000000E+00 0. -1.
        -11    1    4    4    0    0  0.27855867558E-01 -0.77382416808E-01  0.33254727322E-01  0.88713729483E-01  0.51100000000E-03 0.  1.
         11    1    4    4    0    0  0.44295968105E-02 -0.40329596702E-01  0.99654571314E-02  0.41781205762E-01  0.51100000000E-03 0. -1.
</event>
<event>
 8    1  0.1123285E+005  0.1043930E+01  0.7957747E-01            NaN
         13   -1    0    0    0    0  0.00000000000E+00  0.00000000000E+00  0.74505805969E-08  0.10566000000E+00  0.10566000000E+00 0.  1.
     999900   -1    0    0    0    0 -0.00000000000E+00 -0.00000000000E+00 -0.74505805969E-08  0.93827000000E+00  0.93827000000E+00 0.  1.
     999902    2    1    2    0    0 -0.27636806267E-02  0.68227036664E-02 -0.23607303657E-01  0.10192016357E+01  0.10189016057E+01 0.  0.
     999903    2    3    3    0    0 -0.69379359298E-01 -0.88910553776E-01  0.56892573540E-01  0.12786402543E+00  0.19845956895E-01 0.  0.
         14    1    1    2    0    0  0.27636806267E-02 -0.68227036664E-02  0.23607303657E-01  0.24728364319E-01  0.00000000000E+00 0.  1.
     999901    1    3    3    0    0  0.66615678671E-01  0.95733257442E-01 -0.80499877197E-01  0.89133761025E+00  0.88000000000E+00 0.  1.
        -11    1    4    4    0    0 -0.32294392243E-01 -0.25979916585E-01  0.21501063926E-01  0.46695189335E-01  0.51100000000E-03 0.  1.
         11    1    4    4    0    0 -0.37084967055E-01 -0.62930637192E-01  0.35391509613E-01  0.81168836092E-01  0.51100000000E-03 0. -1.
</event>
<event>
 8    1  0.1123285E+005  0.1043930E+01  0.7957747E-01            NaN
         13   -1    0    0    0    0  0.00000000000E+00  0.00000000000E+00  0.74505805969E-08  0.10566000000E+00  0.10566000000E+00 0. -1.
     999900   -1    0    0    0    0 -0.00000000000E+00 -0.00000000000E+00 -0.74505805969E-08  0.93827000000E+00  0.93827000000E+00 0.  1.
     999902    2    1    2    0    0 -0.59309506046E-02 -0.23265728051E-01 -0.61263044502E-02  0.10191509386E+01  0.10188496620E+01 0.  0.
     999903    2    3    3    0    0 -0.12145191131E+00 -0.12897678633E-01 -0.40464454376E-01  0.13087637670E+00  0.23965329845E-01 0.  0.
         14    1    1    2    0    0  0.59309506046E-02  0.23265728051E-01  0.61263044502E-02  0.24779061383E-01  0.00000000000E+00 0. -1.
     999901    1    3    3    0    0  0.11552096071E+00 -0.10368049418E-01  0.34338149926E-01  0.88827456192E+00  0.88000000000E+00 0.  1.
        -11    1    4    4    0    0 -0.58061684734E-01  0.23243179960E-02 -0.27987150766E-01  0.64498863690E-01  0.51100000000E-03 0.  1.
         11    1    4    4    0    0 -0.63390226577E-01 -0.15221996629E-01 -0.12477303611E-01  0.66377513009E-01  0.51100000000E-03 0. -1.
</event>
<event>
 8    1  0.1123285E+005  0.1043930E+01  0.7957747E-01            NaN
         13   -1    0    0    0    0  0.00000000000E+00  0.00000000000E+00  0.74505805969E-08  0.10566000000E+00  0.10566000000E+00 0.  1.
     999900   -1    0    0    0    0 -0.00000000000E+00 -0.00000000000E+00 -0.74505805969E-08  0.93827000000E+00  0.93827000000E+00 0.  1.
     999902    2    1    2    0    0  0.19074209780E-01  0.74851216443E-02  0.11556484098E-01  0.10204054416E+01  0.10201342364E+01 0.  0.
     999903    2    3    3    0    0 -0.22439466950E-01 -0.11926715094E+00 -0.38976074099E-01  0.12892181110E+00  0.19326563407E-01 0.  0.
         14    1    1    2    0    0 -0.19074209780E-01 -0.74851216443E-02 -0.11556484098E-01  0.23524558433E-01  0.00000000000E+00 0. -1.
     999901    1    3    3    0    0  0.41513676730E-01  0.12675227259E+00  0.50532558198E-01  0.89148363047E+00  0.88000000000E+00 0. -1.
        -11    1    4    4    0    0 -0.20567228041E-01 -0.11378803550E+00 -0.41119508388E-01  0.12272653740E+00  0.51100000000E-03 0.  1.
         11    1    4    4    0    0 -0.18722389097E-02 -0.54791154436E-02  0.21434342883E-02  0.61952736927E-02  0.51100000000E-03 0. -1.
</event>
<event>
 8    1  0.1123285E+005  0.1043930E+01  0.7957747E-01            NaN
         13   -1    0    0    0    0  0.00000000000E+00  0.00000000000E+00  0.74505805969E-08  0.10566000000E+00  0.10566000000E+00 0.  1.
     999900   -1    0    0    0    0 -0.00000000000E+00 -0.00000000000E+00 -0.74505805969E-08  0.93827000000E+00  0.93827000000E+00 0. -1.
     999902    2    1    2    0    0  0.97610049799E-02 -0.21387182211E-01  0.18654401118E-02  0.10203467719E+01  0.10200741965E+01 0.  0.
     999903    2    3    3    0    0  0.61752266336E-01 -0.11122133306E+00 -0.34737074936E-01  0.13349108463E+00  0.20728675221E-01 0.  0.
         14    1    1    2    0    0 -0.97610049799E-02  0.21387182211E-01 -0.18654401118E-02  0.23583228107E-01  0.00000000000E+00 0. -1.
     999901    1    3    3    0    0 -0.51991261356E-01  0.89834150849E-01  0.36602515048E-01  0.88685568726E+00  0.88000000000E+00 0.  1.
        -11    1    4    4    0    0  0.39743063308E-01 -0.88424647658E-01 -0.29755018442E-01  0.10141031327E+00  0.51100000000E-03 0.  1.
         11    1    4    4    0    0  0.22009203028E-01 -0.22796685401E-01 -0.49820564941E-02  0.32080771361E-01  0.51100000000E-03 0. -1.
</event>
<event>
 8    1  0.1123285E+005  0.1043930E+01  0.7957747E-01            NaN
         13   -1    0    0    0    0  0.00000000000E+00  0.00000000000E+00  0.74505805969E-08  0.10566000000E+00  0.10566000000E+00 0. -1.
     999900   -1    0    0    0    0 -0.00000000000E+00 -0.00000000000E+00 -0.74505805969E-08  0.93827000000E+00  0.93827000000E+00 0.  1.
     999902    2    1    2    0    0 -0.37687027055E-02  0.53593105619E-02  0.22593904662E-01  0.10204053351E+01  0.10201341275E+01 0.  0.
     999903    2    3    3    0    0 -0.40373014655E-01  0.29549507304E-01 -0.11630676812E+00  0.12843087463E+00  0.21542320077E-01 0.  0.
         14    1    1    2    0    0  0.37687027055E-02 -0.53593105619E-02 -0.22593904662E-01  0.23524664879E-01  0.00000000000E+00 0.  1.
     999901    1    3    3    0    0  0.36604311950E-01 -0.24190196742E-01  0.13890067278E+00  0.89197446049E+00  0.88000000000E+00 0. -1.
        -11    1    4    4    0    0 -0.24448052842E-01  0.16193461939E-01 -0.91382270532E-01  0.95973517107E-01  0.51100000000E-03 0. -1.
         11    1    4    4    0    0 -0.15924961813E-01  0.13356045365E-01 -0.24924497583E-01  0.32457357522E-01  0.51100000000E-03 0.  1.
</event>
<event>
 8    1  0.1123285E+005  0.1043930E+01  0.7957747E-01            NaN
         13   -1    0    0    0    0  0.00000000000E+00  0.00000000000E+00  0.74505805969E-08  0.10566000000E+00  0.10566000000E+00 0.  1.
     999900   -1    0    0    0    0 -0.00000000000E+00 -0.00000000000E+00 -0.74505805969E-08  0.93827000000E+00  0.93827000000E+00 0. -1.
     999902    2    1    2    0    0  0.70588579652E-02  0.68696954891E-03 -0.22537974073E-01  0.10203024805E+01  0.10200288682E+01 0.  0.
     999903    2    3    3    0    0  0.96072191317E-01 -0.52889159911E-01  0.66198977031E-01  0.12975881415E+00  0.20686133268E-01 0.  0.
         14    1    1    2    0    0 -0.70588579652E-02 -0.68696954891E-03  0.22537974073E-01  0.23627519511E-01  0.00000000000E+00 0.  1.
     999901    1    3    3    0    0 -0.89013333352E-01  0.53576129460E-01 -0.88736951104E-01  0.89054366634E+00  0.88000000000E+00 0. -1.
        -11    1    4    4    0    0  0.31454174572E-01 -0.16099542281E-01  0.32906508222E-01  0.48287262959E-01  0.51100000000E-03 0.  1.
         11    1    4    4    0    0  0.64618016745E-01 -0.36789617629E-01  0.33292468809E-01  0.81471551193E-01  0.51100000000E-03 0. -1.
</event>
<event>
 8    1  0.1123285E+005  0.1043930E+01  0.7957747E-01            NaN
         13   -1    0    0    0    0  0.00000000000E+00  0.00000000000E+00  0.74505805969E-08  0.10566000000E+00  0.10566000000E+00 0. -1.
     999900   -1    0    0    0    0 -0.00000000000E+00 -0.00000000000E+00 -0.74505805969E-08  0.93827000000E+00  0.93827000000E+00 0.  1.
     999902    2    1    2    0    0 -0.99507976996E-03  0.38068997204E-02 -0.22655731257E-01  0.10209351130E+01  0.10206761191E+01 0.  0.
     999903    2    3    3    0    0 -0.11642202707E-01  0.11663896405E+00 -0.59325383115E-01  0.13290971960E+00  0.20132154919E-01 0.  0.
         14    1    1    2    0    0  0.99507976996E-03 -0.38068997204E-02  0.22655731257E-01  0.22994886997E-01  0.00000000000E+00 0. -1.
     999901    1    3    3    0    0  0.10647122937E-01 -0.11283206433E+00  0.36669651858E-01  0.88802539341E+00  0.88000000000E+00 0. -1.
        -11    1    4    4    0    0 -0.13565463558E-01  0.75568751702E-01 -0.46836582917E-01  0.89936559060E-01  0.51100000000E-03 0.  1.
         11    1    4    4    0    0  0.19232608509E-02  0.41070212353E-01 -0.12488800198E-01  0.42973160535E-01  0.51100000000E-03 0. -1.
</event>
<event>
 8    1  0.1123285E+005  0.1043930E+01  0.7957747E-01            NaN
         13   -1    0    0    0    0  0.00000000000E+00  0.00000000000E+00  0.74505805969E-08  0.10566000000E+00  0.10566000000E+00 0.  1.
     999900   -1    0    0    0    0 -0.00000000000E+00 -0.00000000000E+00 -0.74505805969E-08  0.93827000000E+00  0.93827000000E+00 0. -1.
     999902    2    1    2    0    0  0.20091262566E-01  0.10517668055E-01  0.73745355227E-02  0.10200833242E+01  0.10198045520E+01 0.  0.
     999903    2    3    3    0    0 -0.10100091034E+00  0.78130729542E-01  0.17135082695E-01  0.12916800347E+00  0.92286116539E-02 0.  0.
         14    1    1    2    0    0 -0.20091262566E-01 -0.10517668055E-01 -0.73745355227E-02  0.23846675805E-01  0.00000000000E+00 0. -1.
     999901    1    3    3    0    0  0.12109217290E+00 -0.67613061488E-01 -0.97605471727E-02  0.89091532073E+00  0.88000000000E+00 0. -1.
        -11    1    4    4    0    0 -0.57467958852E-01  0.46820957884E-01  0.14094423223E-01  0.75456492621E-01  0.51100000000E-03 0.  1.
         11    1    4    4    0    0 -0.43532951487E-01  0.31309771658E-01  0.30406594728E-02  0.53711510848E-01  0.51100000000E-03 0. -1.
</event>
<event>
 8    1  0.1123285E+005  0.1043930E+01  0.7957747E-01            NaN
         13   -1    0    0    0    0  0.00000000000E+00  0.00000000000E+00  0.74505805969E-08  0.10566000000E+00  0.10566000000E+00 0.  1.
     999900   -1    0    0    0    0 -0.00000000000E+00 -0.00000000000E+00 -0.74505805969E-08  0.93827000000E+00  0.93827000000E+00 0.  1.
     999902    2    1    2    0    0  0.64106851013E-02  0.23230997031E-01  0.44242401987E-02  0.10194279591E+01  0.10191334622E+01 0.  0.
     999903    2    3    3    0    0 -0.12377848827E+00  0.20536864493E-01 -0.23562437729E-01  0.12940563728E+00  0.21160187279E-01 0.  0.
         14    1    1    2    0    0 -0.64106851013E-02 -0.23230997031E-01 -0.44242401987E-02  0.24502040892E-01  0.00000000000E+00 0. -1.
     999901    1    3    3    0    0  0.13018917337E+00  0.26941325385E-02  0.27986677928E-01  0.89002232183E+00  0.88000000000E+00 0.  1.
        -11    1    4    4    0    0 -0.94481020254E-01  0.12522470812E-01 -0.90451536760E-02  0.95736886253E-01  0.51100000000E-03 0.  1.
         11    1    4    4    0    0 -0.29297468018E-01  0.80143936808E-02 -0.14517284053E-01  0.33668751025E-01  0.51100000000E-03 0. -1.
</event>
<event>
 8    1  0.1123285E+005  0.1043930E+01  0.7957747E-01            NaN
         13   -1    0    0    0    0  0.00000000000E+00  0.00000000000E+00  0.74505805969E-08  0.10566000000E+00  0.10566000000E+00 0. -1.
     999900   -1    0    0    0    0 -0.00000000000E+00 -0.00000000000E+00 -0.74505805969E-08  0.93827000000E+00  0.93827000000E+00 0. -1.
     999902    2    1    2    0    0 -0.44244356966E-02  0.17801990617E-01  0.16740778818E-01  0.10190957459E+01  0.10187931091E+01 0.  0.
     999903    2    3    3    0    0 -0.76537376430E-01 -0.99157516022E-01  0.20236040522E-01  0.12842632391E+00  0.19840372049E-01 0.  0.
         14    1    1    2    0    0  0.44244356966E-02 -0.17801990617E-01 -0.16740778818E-01  0.24834254098E-01  0.00000000000E+00 0.  1.
     999901    1    3    3    0    0  0.72112940733E-01  0.11695950664E+00 -0.34952617036E-02  0.89066942199E+00  0.88000000000E+00 0. -1.
        -11    1    4    4    0    0 -0.44821614097E-01 -0.41914913508E-01  0.10593192541E-01  0.62276110298E-01  0.51100000000E-03 0.  1.
         11    1    4    4    0    0 -0.31715762333E-01 -0.57242602514E-01  0.96428479809E-02  0.66150213613E-01  0.51100000000E-03 0. -1.
</event>
<event>
 8    1  0.1123285E+005  0.1043930E+01  0.7957747E-01            NaN
         13   -1    0    0    0    0  0.00000000000E+00  0.00000000000E+00  0.74505805969E-08  0.10566000000E+00  0.10566000000E+00 0. -1.
     999900   -1    0    0    0    0 -0.00000000000E+00 -0.00000000000E+00 -0.74505805969E-08  0.93827000000E+00  0.93827000000E+00 0.  1.
     999902    2    1    2    0    0 -0.19447654439E-01  0.12322718245E-01 -0.63285491015E-02  0.10200529989E+01  0.10197735089E+01 0.  0.
     999903    2    3    3    0    0 -0.12570152023E+00 -0.29500363203E-01 -0.21943981180E-01  0.13253798727E+00  0.20338046659E-01 0.  0.
         14    1    1    2    0    0  0.19447654439E-01 -0.12322718245E-01  0.63285491015E-02  0.23877001107E-01  0.00000000000E+00 0.  1.
     999901    1    3    3    0    0  0.10625386579E+00  0.41823081448E-01  0.15615432078E-01  0.88751501162E+00  0.88000000000E+00 0.  1.
        -11    1    4    4    0    0 -0.21564272768E-01 -0.75813113183E-02 -0.11538024070E-01  0.25610178870E-01  0.51100000000E-03 0.  1.
         11    1    4    4    0    0 -0.10413724746E+00 -0.21919051884E-01 -0.10405957110E-01  0.10692780840E+00  0.51100000000E-03 0. -1.
</event>
<event>
 8    1  0.1123285E+005  0.1043930E+01  0.7957747E-01            NaN
         13   -1    0    0    0    0  0.00000000000E+00  0.00000000000E+00  0.74505805969E-08  0.10566000000E+00  0.10566000000E+00 0.  1.
     999900   -1    0    0    0    0 -0.00000000000E+00 -0.00000000000E+00 -0.74505805969E-08  0.93827000000E+00  0.93827000000E+00 0. -1.
     999902    2    1    2    0    0  0.21384232003E-01 -0.54947515499E-02 -0.62801991332E-02  0.10209752930E+01  0.10207172137E+01 0.  0.
     999903    2    3    3    0    0 -0.11429497515E+00 -0.47996128601E-01  0.29152175928E-01  0.12885945549E+00  0.19696197697E-01 0.  0.
         14    1    1    2    0    0 -0.21384232003E-01  0.54947515499E-02  0.62801991332E-02  0.22954707014E-01  0.00000000000E+00 0. -1.
     999901    1    3    3    0    0  0.13567920715E+00  0.42501377051E-01 -0.35432375061E-01  0.89211583749E+00  0.88000000000E+00 0.  1.
        -11    1    4    4    0    0 -0.92848030564E-01 -0.33336490159E-01  0.29174295065E-01  0.10287603690E+00  0.51100000000E-03 0. -1.
         11    1    4    4    0    0 -0.21446944584E-01 -0.14659638442E-01 -0.22119136783E-04  0.25983418588E-01  0.51100000000E-03 0.  1.
</event>
<event>
 8    1  0.1123285E+005  0.1043930E+01  0.7957747E-01            NaN
         13   -1    0    0    0    0  0.00000000000E+00  0.00000000000E+00  0.74505805969E-08  0.10566000000E+00  0.10566000000E+00 0. -1.
     999900   -1    0    0    0    0 -0.00000000000E+00 -0.00000000000E+00 -0.74505805969E-08  0.93827000000E+00  0.93827000000E+00 0. -1.
     999902    2    1    2    0    0 -0.10897142773E-01 -0.13140742210E-01  0.15645211905E-01  0.10207740184E+01  0.10205113411E+01 0.  0.
     999903    2    3    3    0    0  0.11690006479E+00 -0.31204665552E-01 -0.41584143171E-01  0.12952005314E+00  0.20170446257E-01 0.  0.
         14    1    1    2    0    0  0.10897142773E-01  0.13140742210E-01 -0.15645211905E-01  0.23155981559E-01  0.00000000000E+00 0.  1.
     999901    1    3    3    0    0 -0.12779720756E+00  0.18063923342E-01  0.57229355076E-01  0.89125396530E+00  0.88000000000E+00 0.  1.
        -11    1    4    4    0    0  0.84893528010E-01 -0.19579214286E-01 -0.38730319722E-01  0.95344404748E-01  0.51100000000E-03 0. -1.
         11    1    4    4    0    0  0.32006536776E-01 -0.11625451266E-01 -0.28538234495E-02  0.34175648389E-01  0.51100000000E-03 0.  1.
</event>
<event>
 8    1  0.1123285E+005  0.1043930E+01  0.7957747E-01            NaN
         13   -1    0    0    0    0  0.00000000000E+00  0.00000000000E+00  0.74505805969E-08  0.10566000000E+00  0.10566000000E+00 0. -1.
     999900   -1    0    0    0    0 -0.00000000000E+00 -0.00000000000E+00 -0.74505805969E-08  0.93827000000E+00  0.93827000000E+00 0. -1.
     999902    2    1    2    0    0 -0.24533050275E-02 -0.19760220578E-01  0.13405329695E-01  0.10199260860E+01  0.10196435814E+01 0.  0.
     999903    2    3    3    0    0 -0.15116055944E-01  0.28285610859E-01  0.12597667396E+00  0.13136485867E+00  0.18921754206E-01 0.  0.
         14    1    1    2    0    0  0.24533050275E-02  0.19760220578E-01 -0.13405329695E-01  0.24003913995E-01  0.00000000000E+00 0.  1.
     999901    1    3    3    0    0  0.12662750917E-01 -0.48045831436E-01 -0.11257134426E+00  0.88856122734E+00  0.88000000000E+00 0. -1.
        -11    1    4    4    0    0 -0.31385958011E-02  0.21636109144E-01  0.57256456862E-01  0.61290578198E-01  0.51100000000E-03 0. -1.
         11    1    4    4    0    0 -0.11977460143E-01  0.66495017147E-02  0.68720217096E-01  0.70074280469E-01  0.51100000000E-03 0.  1.
</event>
<event>
 8    1  0.1123285E+005  0.1043930E+01  0.7957747E-01            NaN
         13   -1    0    0    0    0  0.00000000000E+00  0.00000000000E+00  0.74505805969E-08  0.10566000000E+00  0.10566000000E+00 0. -1.
     999900   -1    0    0    0    0 -0.00000000000E+00 -0.00000000000E+00 -0.74505805969E-08  0.93827000000E+00  0.93827000000E+00 0. -1.
     999902    2    1    2    0    0 -0.20555221563E-01  0.96315692265E-02 -0.65880958074E-02  0.10202934337E+01  0.10200196094E+01 0.  0.
     999903    2    3    3    0    0 -0.10490160315E-01 -0.12756487155E+00 -0.64749963791E-02  0.12960595676E+00  0.19311616531E-01 0.  0.
         14    1    1    2    0    0  0.20555221563E-01 -0.96315692265E-02  0.65880958074E-02  0.23636566283E-01  0.00000000000E+00 0. -1.
     999901    1    3    3    0    0 -0.10065061248E-01  0.13719644077E+00 -0.11309942832E-03  0.89068747696E+00  0.88000000000E+00 0.  1.
        -11    1    4    4    0    0 -0.66486014577E-02 -0.69448034762E-01 -0.13092744323E-01  0.70985311921E-01  0.51100000000E-03 0. -1.
         11    1    4    4    0    0 -0.38415588573E-02 -0.58116836785E-01  0.66177479436E-02  0.58620644838E-01  0.51100000000E-03 0.  1.
</event>
<event>
 8    1  0.1123285E+005  0.1043930E+01  0.7957747E-01            NaN
         13   -1    0    0    0    0  0.00000000000E+00  0.00000000000E+00  0.74505805969E-08  0.10566000000E+00  0.10566000000E+00 0. -1.
     999900   -1    0    0    0    0 -0.00000000000E+00 -0.00000000000E+00 -0.74505805969E-08  0.93827000000E+00  0.93827000000E+00 0. -1.
     999902    2    1    2    0    0  0.21875693423E-01  0.16668941632E-01  0.83917755759E-02  0.10151754964E+01  0.10147681839E+01 0.  0.
     999903    2    3    3    0    0  0.93893238829E-01  0.20709161575E-01 -0.81284728405E-01  0.12768198909E+00  0.21229074261E-01 0.  0.
         14    1    1    2    0    0 -0.21875693423E-01 -0.16668941632E-01 -0.83917755759E-02  0.28754503564E-01  0.00000000000E+00 0.  1.
     999901    1    3    3    0    0 -0.72017545405E-01 -0.40402199424E-02  0.89676503981E-01  0.88749350735E+00  0.88000000000E+00 0.  1.
        -11    1    4    4    0    0  0.61156923296E-01  0.89042770322E-02 -0.39705344504E-01  0.73459042464E-01  0.51100000000E-03 0. -1.
         11    1    4    4    0    0  0.32736315533E-01  0.11804884542E-01 -0.41579383902E-01  0.54222946622E-01  0.51100000000E-03 0.  1.
</event>
<event>
 8    1  0.1123285E+005  0.1043930E+01  0.7957747E-01            NaN
         13   -1    0    0    0    0  0.00000000000E+00  0.00000000000E+00  0.74505805969E-08  0.10566000000E+00  0.10566000000E+00 0.  1.
     999900   -1    0    0    0    0 -0.00000000000E+00 -0.00000000000E+00 -0.74505805969E-08  0.93827000000E+00  0.93827000000E+00 0.  1.
     999902    2    1    2    0    0  0.15491601372E-01 -0.67209679442E-02 -0.17937419198E-01  0.10192944133E+01  0.10189966579E+01 0.  0.
     999903    2    3    3    0    0  0.92204966212E-01 -0.60849505085E-01  0.66132077036E-01  0.13031605641E+00  0.20109820514E-01 0.  0.
         14    1    1    2    0    0 -0.15491601372E-01  0.67209679442E-02  0.17937419198E-01  0.24635586672E-01  0.00000000000E+00 0.  1.
     999901    1    3    3    0    0 -0.76713364840E-01  0.54128537140E-01 -0.84069496234E-01  0.88897835692E+00  0.88000000000E+00 0.  1.
        -11    1    4    4    0    0  0.73513413862E-01 -0.57409134072E-01  0.54702749835E-01  0.10813270852E+00  0.51100000000E-03 0.  1.
         11    1    4    4    0    0  0.18691552350E-01 -0.34403710129E-02  0.11429327201E-01  0.22183347882E-01  0.51100000000E-03 0. -1.
</event>
<event>
 8    1  0.1123285E+005  0.1043930E+01  0.7957747E-01            NaN
         13   -1    0    0    0    0  0.00000000000E+00  0.00000000000E+00  0.74505805969E-08  0.10566000000E+00  0.10566000000E+00 0. -1.
     999900   -1    0    0    0    0 -0.00000000000E+00 -0.00000000000E+00 -0.74505805969E-08  0.93827000000E+00  0.93827000000E+00 0.  1.
     999902    2    1    2    0    0  0.12434847179E-02 -0.19418781820E-01 -0.17125047354E-01  0.10180089161E+01  0.10176788544E+01 0.  0.
     999903    2    3    3    0    0  0.40887184133E-01 -0.66956608622E-01 -0.10313658688E+00  0.13165150921E+00  0.23238224149E-01 0.  0.
         14    1    1    2    0    0 -0.12434847179E-02  0.19418781820E-01  0.17125047354E-01  0.25921083861E-01  0.00000000000E+00 0. -1.
     999901    1    3    3    0    0 -0.39643699415E-01  0.47537826802E-01  0.86011539521E-01  0.88635740693E+00  0.88000000000E+00 0. -1.
        -11    1    4    4    0    0  0.17820147014E-01 -0.47669235326E-01 -0.73740445616E-01  0.89598147731E-01  0.51100000000E-03 0. -1.
         11    1    4    4    0    0  0.23067037119E-01 -0.19287373296E-01 -0.29396141260E-01  0.42053361483E-01  0.51100000000E-03 0.  1.
</event>
<event>
 8    1  0.1123285E+005  0.1043930E+01  0.7957747E-01            NaN
         13   -1    0    0    0    0  0.00000000000E+00  0.00000000000E+00  0.74505805969E-08  0.10566000000E+00  0.10566000000E+00 0.  1.
     999900   -1    0    0    0    0 -0.00000000000E+00 -0.00000000000E+00 -0.74505805969E-08  0.93827000000E+00  0.93827000000E+00 0.  1.
     999902    2    1    2    0    0 -0.11318071551E-02 -0.14801731613E-02 -0.23772368368E-01  0.10200847196E+01  0.10198059804E+01 0.  0.
     999903    2    3    3    0    0  0.15334683759E-02 -0.10821787899E+00 -0.73318305783E-01  0.13224754902E+00  0.20009482732E-01 0.  0.
         14    1    1    2    0    0  0.11318071551E-02  0.14801731613E-02  0.23772368368E-01  0.23845280410E-01  0.00000000000E+00 0.  1.
     999901    1    3    3    0    0 -0.26652755310E-02  0.10673770583E+00  0.49545937415E-01  0.88783717057E+00  0.88000000000E+00 0.  1.
        -11    1    4    4    0    0 -0.68131818199E-02 -0.18722227829E-01 -0.99897235471E-02  0.22293428605E-01  0.51100000000E-03 0. -1.
         11    1    4    4    0    0  0.83466501958E-02 -0.89495651162E-01 -0.63328582236E-01  0.10995412041E+00  0.51100000000E-03 0.  1.
</event>
<event>
 8    1  0.1123285E+005  0.1043930E+01  0.7957747E-01            NaN
         13   -1    0    0    0    0  0.00000000000E+00  0.00000000000E+00  0.74505805969E-08  0.10566000000E+00  0.10566000000E+00 0.  1.
     999900   -1    0    0    0    0 -0.00000000000E+00 -0.00000000000E+00 -0.74505805969E-08  0.93827000000E+00  0.93827000000E+00 0. -1.
     999902    2    1    2    0    0 -0.25725707853E-02  0.13383748525E-01  0.20180440072E-01  0.10195785523E+01  0.10192877078E+01 0.  0.
     999903    2    3    3    0    0  0.35366868379E-01 -0.12071620004E+00  0.18554801655E-01  0.12861006801E+00  0.19314569600E-01 0.  0.
         14    1    1    2    0    0  0.25725707853E-02 -0.13383748525E-01 -0.20180440072E-01  0.24351447730E-01  0.00000000000E+00 0. -1.
     999901    1    3    3    0    0 -0.37939439164E-01  0.13409994856E+00  0.16256384168E-02  0.89096848426E+00  0.88000000000E+00 0. -1.
        -11    1    4    4    0    0  0.21837273857E-01 -0.41764441302E-01  0.55571553569E-02  0.47458172989E-01  0.51100000000E-03 0.  1.
         11    1    4    4    0    0  0.13529594522E-01 -0.78951758733E-01  0.12997646298E-01  0.81151895020E-01  0.51100000000E-03 0. -1.
</event>
<event>
 7    1  0.1123285E+005  0.1043930E+01  0.7957747E-01            NaN
         13   -1    0    0    0    0  0.00000000000E+00  0.00000000000E+00  0.74505805969E-08  0.10566000000E+00  0.10566000000E+00 0.  1.
     999900   -1    0    0    0    0 -0.00000000000E+00 -0.00000000000E+00 -0.74505805969E-08  0.93827000000E+00  0.93827000000E+00 0.  1.
     999903    2    1    2    0    0  0.41605513804E-01  0.83634682587E-01  0.29145979245E-01  0.99862681177E-01  0.19932086579E-01 0.  0.
         14    1    1    2    0    0  0.77981107112E-02 -0.10382487658E-01  0.54191260694E-01  0.55725212572E-01  0.00000000000E+00 0.  1.
     999901    1    1    2    0    0 -0.49403624515E-01 -0.73252194930E-01 -0.83337239939E-01  0.88834210625E+00  0.88000000000E+00 0.  1.
        -11    1    3    3    0    0  0.15055929413E-01  0.30474332560E-01  0.20807264041E-01  0.39856860304E-01  0.51100000000E-03 0.  1.
         11    1    3    3    0    0  0.26549584391E-01  0.53160350028E-01  0.83387152041E-02  0.60005820873E-01  0.51100000000E-03 0. -1.
</event>
<event>
 8    1  0.1123285E+005  0.1043930E+01  0.7957747E-01            NaN
         13   -1    0    0    0    0  0.00000000000E+00  0.00000000000E+00  0.74505805969E-08  0.10566000000E+00  0.10566000000E+00 0.  1.
     999900   -1    0    0    0    0 -0.00000000000E+00 -0.00000000000E+00 -0.74505805969E-08  0.93827000000E+00  0.93827000000E+00 0.  1.
     999902    2    1    2    0    0  0.11245726970E-01  0.20488320436E-01 -0.31109420194E-02  0.10203521373E+01  0.10200796873E+01 0.  0.
     999903    2    3    3    0    0  0.35598192963E-01 -0.11583612040E+00  0.38046423934E-01  0.12857227402E+00  0.19951469634E-01 0.  0.
         14    1    1    2    0    0 -0.11245726970E-01 -0.20488320436E-01  0.31109420194E-02  0.23577862703E-01  0.00000000000E+00 0.  1.
     999901    1    3    3    0    0 -0.24352465993E-01  0.13632444084E+00 -0.41157365953E-01  0.89177986327E+00  0.88000000000E+00 0. -1.
        -11    1    4    4    0    0  0.99058911881E-02 -0.57528638581E-01  0.11268280348E-01  0.59455077161E-01  0.51100000000E-03 0. -1.
         11    1    4    4    0    0  0.25692301775E-01 -0.58307481824E-01  0.26778143586E-01  0.69117196862E-01  0.51100000000E-03 0.  1.
</event>
<event>
 8    1  0.1123285E+005  0.1043930E+01  0.7957747E-01            NaN
         13   -1    0    0    0    0  0.00000000000E+00  0.00000000000E+00  0.74505805969E-08  0.10566000000E+00  0.10566000000E+00 0.  1.
     999900   -1    0    0    0    0 -0.00000000000E+00 -0.00000000000E+00 -0.74505805969E-08  0.93827000000E+00  0.93827000000E+00 0. -1.
     999902    2    1    2    0    0  0.54032809834E-03 -0.18727411513E-01 -0.13719944098E-01  0.10207083557E+01  0.10204441693E+01 0.  0.
     999903    2    3    3    0    0  0.24833889386E-01 -0.98601951044E-01 -0.84752857213E-01  0.13390747959E+00  0.20226207559E-01 0.  0.
         14    1    1    2    0    0 -0.54032809834E-03  0.18727411513E-01  0.13719944098E-01  0.23221644268E-01  0.00000000000E+00 0. -1.
     999901    1    3    3    0    0 -0.24293561287E-01  0.79874539531E-01  0.71032913114E-01  0.88680087614E+00  0.88000000000E+00 0. -1.
        -11    1    4    4    0    0 -0.32180596411E-02 -0.18704777819E-01 -0.14935689814E-01  0.24156998413E-01  0.51100000000E-03 0. -1.
         11    1    4    4    0    0  0.28051949027E-01 -0.79897173225E-01 -0.69817167399E-01  0.10975048117E+00  0.51100000000E-03 0.  1.
</event>
<event>
 8    1  0.1123285E+005  0.1043930E+01  0.7957747E-01            NaN
         13   -1    0    0    0    0  0.00000000000E+00  0.00000000000E+00  0.74505805969E-08  0.10566000000E+00  0.10566000000E+00 0.  1.
     999900   -1    0    0    0    0 -0.00000000000E+00 -0.00000000000E+00 -0.74505805969E-08  0.93827000000E+00  0.93827000000E+00 0. -1.
     999902    2    1    2    0    0 -0.53396448026E-02  0.12802535758E-01  0.17709870323E-01  0.10214343063E+01  0.10211865578E+01 0.  0.
     999903    2    3    3    0    0  0.10623867744E+00  0.54018172822E-01  0.55379094079E-01  0.13263319179E+00  0.17891336551E-01 0.  0.
         14    1    1    2    0    0  0.53396448026E-02 -0.12802535758E-01 -0.17709870323E-01  0.22495693706E-01  0.00000000000E+00 0. -1.
     999901    1    3    3    0    0 -0.11157832224E+00 -0.41215637064E-01 -0.37669223756E-01  0.88880111451E+00  0.88000000000E+00 0.  1.
        -11    1    4    4    0    0  0.36494908480E-01  0.18183851885E-01  0.28466436291E-01  0.49730573398E-01  0.51100000000E-03 0. -1.
         11    1    4    4    0    0  0.69743768957E-01  0.35834320938E-01  0.26912657788E-01  0.82902618388E-01  0.51100000000E-03 0.  1.
</event>
<event>
 8    1  0.1123285E+005  0.1043930E+01  0.7957747E-01            NaN
         13   -1    0    0    0    0  0.00000000000E+00  0.00000000000E+00  0.74505805969E-08  0.10566000000E+00  0.10566000000E+00 0. -1.
     999900   -1    0    0    0    0 -0.00000000000E+00 -0.00000000000E+00 -0.74505805969E-08  0.93827000000E+00  0.93827000000E+00 0.  1.
     999902    2    1    2    0    0 -0.14541711648E-01  0.15798519203E-01 -0.10551517508E-01  0.10200053452E+01  0.10197247252E+01 0.  0.
     999903    2    3    3    0    0  0.10944544825E-01 -0.39900458412E-01 -0.12266131151E+00  0.13078066531E+00  0.18599877254E-01 0.  0.
         14    1    1    2    0    0  0.14541711648E-01 -0.15798519203E-01  0.10551517508E-01  0.23924654822E-01  0.00000000000E+00 0.  1.
     999901    1    3    3    0    0 -0.25486256473E-01  0.55698977615E-01  0.11210979400E+00  0.88922467987E+00  0.88000000000E+00 0. -1.
        -11    1    4    4    0    0  0.37136714312E-02 -0.18387234780E-01 -0.82877798757E-01  0.84975716568E-01  0.51100000000E-03 0.  1.
         11    1    4    4    0    0  0.72308733938E-02 -0.21513223632E-01 -0.39783512755E-01  0.45804948741E-01  0.51100000000E-03 0. -1.
</event>
<event>
 8    1  0.1123285E+005  0.1043930E+01  0.7957747E-01            NaN
         13   -1    0    0    0    0  0.00000000000E+00  0.00000000000E+00  0.74505805969E-08  0.10566000000E+00  0.10566000000E+00 0.  1.
     999900   -1    0    0    0    0 -0.00000000000E+00 -0.00000000000E+00 -0.74505805969E-08  0.93827000000E+00  0.93827000000E+00 0.  1.
     999902    2    1    2    0    0 -0.17280025823E-01 -0.60239538366E-02  0.13859169516E-01  0.10209743059E+01  0.10207162041E+01 0.  0.
     999903    2    3    3    0    0 -0.45805906053E-02 -0.90081754613E-01  0.95880318929E-01  0.13308103614E+00  0.19540273720E-01 0.  0.
         14    1    1    2    0    0  0.17280025823E-01  0.60239538366E-02 -0.13859169516E-01  0.22955694107E-01  0.00000000000E+00 0.  1.
     999901    1    3    3    0    0 -0.12699435218E-01  0.84057800776E-01 -0.82021149413E-01  0.88789326976E+00  0.88000000000E+00 0.  1.
        -11    1    4    4    0    0 -0.89474038238E-02 -0.81942045929E-01  0.81054122467E-01  0.11560530618E+00  0.51100000000E-03 0.  1.
         11    1    4    4    0    0  0.43668132185E-02 -0.81397086838E-02  0.14826196462E-01  0.17475729961E-01  0.51100000000E-03 0. -1.
</event>
<event>
 8    1  0.1123285E+005  0.1043930E+01  0.7957747E-01            NaN
         13   -1    0    0    0    0  0.00000000000E+00  0.00000000000E+00  0.74505805969E-08  0.10566000000E+00  0.10566000000E+00 0.  1.
     999900   -1    0    0    0    0 -0.00000000000E+00 -0.00000000000E+00 -0.74505805969E-08  0.93827000000E+00  0.93827000000E+00 0.  1.
     999902    2    1    2    0    0  0.15523784580E-03  0.18287370110E-01 -0.14589254053E-01  0.10205355917E+01  0.10202674138E+01 0.  0.
     999903    2    3    3    0    0 -0.93554892513E-01  0.34075516509E-01 -0.85105451270E-01  0.13261476859E+00  0.20738376846E-01 0.  0.
         14    1    1    2    0    0 -0.15523784580E-03 -0.18287370110E-01  0.14589254053E-01  0.23394408267E-01  0.00000000000E+00 0.  1.
     999901    1    3    3    0    0  0.93710130359E-01 -0.15788146399E-01  0.70516197217E-01  0.88792082314E+00  0.88000000000E+00 0. -1.
        -11    1    4    4    0    0 -0.28153160953E-01  0.63584301206E-02 -0.36534005980E-01  0.46562053425E-01  0.51100000000E-03 0.  1.
         11    1    4    4    0    0 -0.65401731560E-01  0.27717086388E-01 -0.48571445290E-01  0.86052715166E-01  0.51100000000E-03 0. -1.
</event>
<event>
 8    1  0.1123285E+005  0.1043930E+01  0.7957747E-01            NaN
         13   -1    0    0    0    0  0.00000000000E+00  0.00000000000E+00  0.74505805969E-08  0.10566000000E+00  0.10566000000E+00 0. -1.
     999900   -1    0    0    0    0 -0.00000000000E+00 -0.00000000000E+00 -0.74505805969E-08  0.93827000000E+00  0.93827000000E+00 0. -1.
     999902    2    1    2    0    0 -0.88165849306E-02  0.16021870096E-02  0.22228579915E-01  0.10199631700E+01  0.10196815480E+01 0.  0.
     999903    2    3    3    0    0  0.10623636260E+00  0.44782540652E-01 -0.52549590480E-01  0.12828301526E+00  0.20085613216E-01 0.  0.
         14    1    1    2    0    0  0.88165849306E-02 -0.16021870096E-02 -0.22228579915E-01  0.23966829955E-01  0.00000000000E+00 0.  1.
     999901    1    3    3    0    0 -0.11505294753E+00 -0.43180353643E-01  0.74778170395E-01  0.89168015479E+00  0.88000000000E+00 0.  1.
        -11    1    4    4    0    0  0.87695963586E-01  0.42100336229E-01 -0.37534799145E-01  0.10426956703E+00  0.51100000000E-03 0.  1.
         11    1    4    4    0    0  0.18540399013E-01  0.26822044238E-02 -0.15014791335E-01  0.24013448231E-01  0.51100000000E-03 0. -1.
</event>
<event>
 8    1  0.1123285E+005  0.1043930E+01  0.7957747E-01            NaN
         13   -1    0    0    0    0  0.00000000000E+00  0.00000000000E+00  0.74505805969E-08  0.10566000000E+00  0.10566000000E+00 0.  1.
     999900   -1    0    0    0    0 -0.00000000000E+00 -0.00000000000E+00 -0.74505805969E-08  0.93827000000E+00  0.93827000000E+00 0.  1.
     999902    2    1    2    0    0 -0.10043673467E-01  0.18782567123E-01 -0.10642898115E-01  0.10201196769E+01  0.10198417641E+01 0.  0.
     999903    2    3    3    0    0 -0.46202987528E-01  0.57335532592E-01 -0.10904621214E+00  0.13305877747E+00  0.19785917333E-01 0.  0.
         14    1    1    2    0    0  0.10043673467E-01 -0.18782567123E-01  0.10642898115E-01  0.23810323070E-01  0.00000000000E+00 0.  1.
     999901    1    3    3    0    0  0.36159314061E-01 -0.38552965469E-01  0.98403314028E-01  0.88706089946E+00  0.88000000000E+00 0. -1.
        -11    1    4    4    0    0 -0.25819689864E-01  0.33592343084E-01 -0.45202039009E-01  0.61956334221E-01  0.51100000000E-03 0.  1.
         11    1    4    4    0    0 -0.20383297663E-01  0.23743189508E-01 -0.63844173134E-01  0.71102443248E-01  0.51100000000E-03 0. -1.
</event>
<event>
 8    1  0.1123285E+005  0.1043930E+01  0.7957747E-01            NaN
         13   -1    0    0    0    0  0.00000000000E+00  0.00000000000E+00  0.74505805969E-08  0.10566000000E+00  0.10566000000E+00 0. -1.
     999900   -1    0    0    0    0 -0.00000000000E+00 -0.00000000000E+00 -0.74505805969E-08  0.93827000000E+00  0.93827000000E+00 0.  1.
     999902    2    1    2    0    0 -0.41114885526E-02 -0.29402747636E-02 -0.22694994011E-01  0.10206789289E+01  0.10204140648E+01 0.  0.
     999903    2    3    3    0    0  0.52068641801E-01  0.16822065133E-01 -0.12001389274E+00  0.13331331927E+00  0.19364434147E-01 0.  0.
         14    1    1    2    0    0  0.41114885526E-02  0.29402747636E-02  0.22694994011E-01  0.23251071092E-01  0.00000000000E+00 0. -1.
     999901    1    3    3    0    0 -0.56180130354E-01 -0.19762339896E-01  0.97318898725E-01  0.88736560964E+00  0.88000000000E+00 0. -1.
        -11    1    4    4    0    0  0.40012295860E-01  0.15870768700E-01 -0.72825682801E-01  0.84597318608E-01  0.51100000000E-03 0.  1.
         11    1    4    4    0    0  0.12056345941E-01  0.95129643273E-03 -0.47188209935E-01  0.48716000659E-01  0.51100000000E-03 0. -1.
</event>
<event>
 8    1  0.1123285E+005  0.1043930E+01  0.7957747E-01            NaN
         13   -1    0    0    0    0  0.00000000000E+00  0.00000000000E+00  0.74505805969E-08  0.10566000000E+00  0.10566000000E+00 0.  1.
     999900   -1    0    0    0    0 -0.00000000000E+00 -0.00000000000E+00 -0.74505805969E-08  0.93827000000E+00  0.93827000000E+00 0.  1.
     999902    2    1    2    0    0 -0.10373009708E-01  0.11575685564E-01 -0.17503648399E-01  0.10205211655E+01  0.10202526528E+01 0.  0.
     999903    2    3    3    0    0 -0.98901859212E-01  0.84020264980E-01 -0.21562848516E-01  0.13310804218E+00  0.20293145998E-01 0.  0.
         14    1    1    2    0    0  0.10373009708E-01 -0.11575685564E-01  0.17503648399E-01  0.23408834528E-01  0.00000000000E+00 0.  1.
     999901    1    3    3    0    0  0.88528849504E-01 -0.72444579416E-01  0.40592001169E-02  0.88741312329E+00  0.88000000000E+00 0.  1.
        -11    1    4    4    0    0 -0.56851822654E-01  0.48282956039E-01 -0.21985730507E-02  0.74622171152E-01  0.51100000000E-03 0.  1.
         11    1    4    4    0    0 -0.42050036558E-01  0.35737308941E-01 -0.19364275465E-01  0.58485871031E-01  0.51100000000E-03 0. -1.
</event>
<event>
 7    1  0.1123285E+005  0.1043930E+01  0.7957747E-01            NaN
         13   -1    0    0    0    0  0.00000000000E+00  0.00000000000E+00  0.74505805969E-08  0.10566000000E+00  0.10566000000E+00 0. -1.
     999900   -1    0    0    0    0 -0.00000000000E+00 -0.00000000000E+00 -0.74505805969E-08  0.93827000000E+00  0.93827000000E+00 0.  1.
     999903    2    1    2    0    0 -0.10704546767E+00 -0.27913951051E-01 -0.18672493185E-01  0.11396015377E+00  0.20008344108E-01 0.  0.
         14    1    1    2    0    0  0.46691511859E-01  0.71326381854E-02 -0.36649242367E-02  0.47375135639E-01  0.00000000000E+00 0. -1.
     999901    1    1    2    0    0  0.60353955810E-01  0.20781312865E-01  0.22337417421E-01  0.88259471059E+00  0.88000000000E+00 0. -1.
        -11    1    3    3    0    0 -0.49112541520E-01 -0.49244666565E-02 -0.14700425142E-01  0.51503938944E-01  0.51100000000E-03 0. -1.
         11    1    3    3    0    0 -0.57932926149E-01 -0.22989484394E-01 -0.39720680423E-02  0.62456214826E-01  0.51100000000E-03 0.  1.
</event>
<event>
 8    1  0.1125115E+005  0.1043930E+01  0.7957747E-01            NaN
         13   -1    0    0    0    0  0.00000000000E+00  0.00000000000E+00  0.74505805969E-08  0.10566000000E+00  0.10566000000E+00 0. -1.
     999900   -1    0    0    0    0 -0.00000000000E+00 -0.00000000000E+00 -0.74505805969E-08  0.93827000000E+00  0.93827000000E+00 0.  1.
     999902    2    1    2    0    0  0.23047235966E-01 -0.12204835082E-02 -0.83460077715E-02  0.10193877810E+01  0.10190923057E+01 0.  0.
     999903    2    3    3    0    0 -0.47136939971E-01  0.52591719143E-01 -0.10530412456E+00  0.12965610907E+00  0.27091842620E-01 0.  0.
         14    1    1    2    0    0 -0.23047235966E-01  0.12204835082E-02  0.83460077715E-02  0.24542218958E-01  0.00000000000E+00 0. -1.
     999901    1    3    3    0    0  0.70184175937E-01 -0.53812202651E-01  0.96958116788E-01  0.88973167198E+00  0.88000000000E+00 0. -1.
        -11    1    4    4    0    0 -0.56969620557E-02  0.24812398737E-01 -0.41051704249E-01  0.48307494765E-01  0.51100000000E-03 0. -1.
         11    1    4    4    0    0 -0.41439977915E-01  0.27779320406E-01 -0.64252420310E-01  0.81348614300E-01  0.51100000000E-03 0.  1.
</event>
<event>
 8    1  0.1123285E+005  0.1043930E+01  0.7957747E-01            NaN
         13   -1    0    0    0    0  0.00000000000E+00  0.00000000000E+00  0.74505805969E-08  0.10566000000E+00  0.10566000000E+00 0. -1.
     999900   -1    0    0    0    0 -0.00000000000E+00 -0.00000000000E+00 -0.74505805969E-08  0.93827000000E+00  0.93827000000E+00 0.  1.
     999902    2    1    2    0    0 -0.36835874435E-02 -0.56461962127E-02  0.22167929789E-01  0.10207596427E+01  0.10204966353E+01 0.  0.
     999903    2    3    3    0    0  0.12852860039E+00  0.14626880627E-02  0.12941675966E-01  0.13080699077E+00  0.20524163391E-01 0.  0.
         14    1    1    2    0    0  0.36835874435E-02  0.56461962127E-02 -0.22167929789E-01  0.23170357340E-01  0.00000000000E+00 0.  1.
     999901    1    3    3    0    0 -0.13221218783E+00 -0.71088842753E-02  0.92262538232E-02  0.88995265189E+00  0.88000000000E+00 0. -1.
        -11    1    4    4    0    0  0.27264678433E-01  0.25253086576E-02 -0.53329366752E-02  0.27900559286E-01  0.51100000000E-03 0. -1.
         11    1    4    4    0    0  0.10126392196E+00 -0.10626205949E-02  0.18274612641E-01  0.10290643148E+00  0.51100000000E-03 0.  1.
</event>
<event>
 8    1  0.1123285E+005  0.1043930E+01  0.7957747E-01            NaN
         13   -1    0    0    0    0  0.00000000000E+00  0.00000000000E+00  0.74505805969E-08  0.10566000000E+00  0.10566000000E+00 0. -1.
     999900   -1    0    0    0    0 -0.00000000000E+00 -0.00000000000E+00 -0.74505805969E-08  0.93827000000E+00  0.93827000000E+00 0.  1.
     999902    2    1    2    0    0  0.88610456923E-02 -0.47517054503E-02  0.23353135915E-01  0.10185043084E+01  0.10181868986E+01 0.  0.
     999903    2    3    3    0    0  0.12254497842E+00  0.21747898393E-01  0.34656658836E-01  0.13072391035E+00  0.19935243016E-01 0.  0.
         14    1    1    2    0    0 -0.88610456923E-02  0.47517054503E-02 -0.23353135915E-01  0.25425691584E-01  0.00000000000E+00 0.  1.
     999901    1    3    3    0    0 -0.11368393273E+00 -0.26499603843E-01 -0.11303522921E-01  0.88778039807E+00  0.88000000000E+00 0.  1.
        -11    1    4    4    0    0  0.96119243514E-01  0.17152098497E-01  0.18406364372E-01  0.99358738051E-01  0.51100000000E-03 0.  1.
         11    1    4    4    0    0  0.26425734907E-01  0.45957998957E-02  0.16250294464E-01  0.31365172297E-01  0.51100000000E-03 0. -1.
</event>
<event>
 8    1  0.1123285E+005  0.1043930E+01  0.7957747E-01            NaN
         13   -1    0    0    0    0  0.00000000000E+00  0.00000000000E+00  0.74505805969E-08  0.10566000000E+00  0.10566000000E+00 0. -1.
     999900   -1    0    0    0    0 -0.00000000000E+00 -0.00000000000E+00 -0.74505805969E-08  0.93827000000E+00  0.93827000000E+00 0. -1.
     999902    2    1    2    0    0 -0.21657327839E-01 -0.11191899264E-02 -0.62657702806E-02  0.10213567346E+01  0.10211072553E+01 0.  0.
     999903    2    3    3    0    0 -0.99525570287E-01  0.86760305476E-01  0.33065725889E-03  0.13353367688E+00  0.19961056602E-01 0.  0.
         14    1    1    2    0    0  0.21657327839E-01  0.11191899264E-02  0.62657702806E-02  0.22573265435E-01  0.00000000000E+00 0. -1.
     999901    1    3    3    0    0  0.77868242448E-01 -0.87879495402E-01 -0.65964275395E-02  0.88782305768E+00  0.88000000000E+00 0. -1.
        -11    1    4    4    0    0 -0.60958558255E-01  0.47099680026E-01  0.89082054677E-02  0.77549615916E-01  0.51100000000E-03 0. -1.
         11    1    4    4    0    0 -0.38567012032E-01  0.39660625450E-01 -0.85775482089E-02  0.55984060967E-01  0.51100000000E-03 0.  1.
</event>
<event>
 8    1  0.1123285E+005  0.1043930E+01  0.7957747E-01            NaN
         13   -1    0    0    0    0  0.00000000000E+00  0.00000000000E+00  0.74505805969E-08  0.10566000000E+00  0.10566000000E+00 0. -1.
     999900   -1    0    0    0    0 -0.00000000000E+00 -0.00000000000E+00 -0.74505805969E-08  0.93827000000E+00  0.93827000000E+00 0.  1.
     999902    2    1    2    0    0 -0.22212187437E-01 -0.37901895881E-02  0.12058465422E-01  0.10183731341E+01  0.10180523988E+01 0.  0.
     999903    2    3    3    0    0 -0.33684472603E-01  0.11817901163E+00 -0.32903186005E-01  0.12874981520E+00  0.19823541059E-01 0.  0.
         14    1    1    2    0    0  0.22212187437E-01  0.37901895881E-02 -0.12058465422E-01  0.25556865930E-01  0.00000000000E+00 0. -1.
     999901    1    3    3    0    0  0.11472285166E-01 -0.12196920122E+00  0.44961651427E-01  0.88962331887E+00  0.88000000000E+00 0. -1.
        -11    1    4    4    0    0 -0.23193381776E-01  0.46149693818E-01 -0.15069306098E-01  0.53805876120E-01  0.51100000000E-03 0.  1.
         11    1    4    4    0    0 -0.10491090827E-01  0.72029317816E-01 -0.17833879907E-01  0.74943939083E-01  0.51100000000E-03 0. -1.
</event>
<event>
 8    1  0.1123285E+005  0.1043930E+01  0.7957747E-01            NaN
         13   -1    0    0    0    0  0.00000000000E+00  0.00000000000E+00  0.74505805969E-08  0.10566000000E+00  0.10566000000E+00 0. -1.
     999900   -1    0    0    0    0 -0.00000000000E+00 -0.00000000000E+00 -0.74505805969E-08  0.93827000000E+00  0.93827000000E+00 0. -1.
     999902    2    1    2    0    0  0.26192572311E-02  0.23321698836E-01 -0.17321988253E-02  0.10203978378E+01  0.10201264553E+01 0.  0.
     999903    2    3    3    0    0 -0.12209164577E+00  0.41494659215E-01  0.14608160599E-01  0.13126900959E+00  0.19747855857E-01 0.  0.
         14    1    1    2    0    0 -0.26192572311E-02 -0.23321698836E-01  0.17321988253E-02  0.23532162200E-01  0.00000000000E+00 0.  1.
     999901    1    3    3    0    0  0.12471090300E+00 -0.18172960379E-01 -0.16340359424E-01  0.88912882821E+00  0.88000000000E+00 0.  1.
        -11    1    4    4    0    0 -0.34194013538E-01  0.14241776959E-01 -0.43818354757E-02  0.37303088021E-01  0.51100000000E-03 0.  1.
         11    1    4    4    0    0 -0.87897632233E-01  0.27252882256E-01  0.18989996075E-01  0.93965921564E-01  0.51100000000E-03 0. -1.
</event>
<event>
 8    1  0.1123285E+005  0.1043930E+01  0.7957747E-01            NaN
         13   -1    0    0    0    0  0.00000000000E+00  0.00000000000E+00  0.74505805969E-08  0.10566000000E+00  0.10566000000E+00 0.  1.
     999900   -1    0    0    0    0 -0.00000000000E+00 -0.00000000000E+00 -0.74505805969E-08  0.93827000000E+00  0.93827000000E+00 0. -1.
     999902    2    1    2    0    0  0.13169894157E-01 -0.10414406803E-01  0.17729158250E-01  0.10195121984E+01  0.10192197475E+01 0.  0.
     999903    2    3    3    0    0  0.10186461085E+00  0.35329798899E-01 -0.69276546409E-01  0.12960811497E+00  0.19350192477E-01 0.  0.
         14    1    1    2    0    0 -0.13169894157E-01  0.10414406803E-01 -0.17729158250E-01  0.24417801568E-01  0.00000000000E+00 0. -1.
     999901    1    3    3    0    0 -0.88694716694E-01 -0.45744205702E-01  0.87005704659E-01  0.88990408347E+00  0.88000000000E+00 0.  1.
        -11    1    4    4    0    0  0.74785722875E-01  0.17711686660E-01 -0.53564934844E-01  0.93680689345E-01  0.51100000000E-03 0.  1.
         11    1    4    4    0    0  0.27078887975E-01  0.17618112239E-01 -0.15711611565E-01  0.35927425622E-01  0.51100000000E-03 0. -1.
</event>
<event>
 8    1  0.1123285E+005  0.1043930E+01  0.7957747E-01            NaN
         13   -1    0    0    0    0  0.00000000000E+00  0.00000000000E+00  0.74505805969E-08  0.10566000000E+00  0.10566000000E+00 0. -1.
     999900   -1    0    0    0    0 -0.00000000000E+00 -0.00000000000E+00 -0.74505805969E-08  0.93827000000E+00  0.93827000000E+00 0.  1.
     999902    2    1    2    0    0  0.22349660792E-01 -0.47316701989E-02 -0.13638086788E-01  0.10173237329E+01  0.10169757539E+01 0.  0.
     999903    2    3    3    0    0  0.53424514841E-02 -0.86917290280E-01  0.90450012960E-01  0.12722370823E+00  0.20530707596E-01 0.  0.
         14    1    1    2    0    0 -0.22349660792E-01  0.47316701989E-02  0.13638086788E-01  0.26606267150E-01  0.00000000000E+00 0. -1.
     999901    1    3    3    0    0  0.17007209308E-01  0.82185620082E-01 -0.10408809975E+00  0.89010002462E+00  0.88000000000E+00 0.  1.
        -11    1    4    4    0    0  0.54519803381E-02 -0.46103336616E-02  0.70106388182E-02  0.10019453264E-01  0.51100000000E-03 0.  1.
         11    1    4    4    0    0 -0.10952885400E-03 -0.82306956619E-01  0.83439374141E-01  0.11720425497E+00  0.51100000000E-03 0. -1.
</event>
<event>
 8    1  0.1123285E+005  0.1043930E+01  0.7957747E-01            NaN
         13   -1    0    0    0    0  0.00000000000E+00  0.00000000000E+00  0.74505805969E-08  0.10566000000E+00  0.10566000000E+00 0. -1.
     999900   -1    0    0    0    0 -0.00000000000E+00 -0.00000000000E+00 -0.74505805969E-08  0.93827000000E+00  0.93827000000E+00 0.  1.
     999902    2    1    2    0    0  0.75465238081E-02  0.19087047014E-01 -0.11691793223E-01  0.10203087508E+01  0.10200352854E+01 0.  0.
     999903    2    3    3    0    0 -0.77688816591E-02 -0.12590437533E+00  0.92014664450E-02  0.12806797471E+00  0.20111487082E-01 0.  0.
         14    1    1    2    0    0 -0.75465238081E-02 -0.19087047014E-01  0.11691793223E-01  0.23621249206E-01  0.00000000000E+00 0. -1.
     999901    1    3    3    0    0  0.15315405467E-01  0.14499142235E+00 -0.20893259668E-01  0.89224077608E+00  0.88000000000E+00 0.  1.
        -11    1    4    4    0    0 -0.14227598369E-01 -0.71360822713E-01  0.68858521852E-02  0.73092186005E-01  0.51100000000E-03 0.  1.
         11    1    4    4    0    0  0.64587167095E-02 -0.54543552619E-01  0.23156142598E-02  0.54975788710E-01  0.51100000000E-03 0. -1.
</event>
<event>
 8    1  0.1123285E+005  0.1043930E+01  0.7957747E-01            NaN
         13   -1    0    0    0    0  0.00000000000E+00  0.00000000000E+00  0.74505805969E-08  0.10566000000E+00  0.10566000000E+00 0. -1.
     999900   -1    0    0    0    0 -0.00000000000E+00 -0.00000000000E+00 -0.74505805969E-08  0.93827000000E+00  0.93827000000E+00 0.  1.
     999902    2    1    2    0    0  0.13159992450E-01  0.24502622869E-01  0.14781716141E-01  0.10124329674E+01  0.10119429087E+01 0.  0.
     999903    2    3    3    0    0 -0.56677829740E-01 -0.98484578588E-01  0.35882152389E-01  0.12089025867E+00  0.20379822800E-01 0.  0.
         14    1    1    2    0    0 -0.13159992450E-01 -0.24502622869E-01 -0.14781716141E-01  0.31497032572E-01  0.00000000000E+00 0.  1.
     999901    1    3    3    0    0  0.69837822191E-01  0.12298720146E+00 -0.21100436248E-01  0.89154270876E+00  0.88000000000E+00 0.  1.
        -11    1    4    4    0    0 -0.46803818808E-01 -0.75435952813E-01  0.36029426834E-01  0.95810026358E-01  0.51100000000E-03 0. -1.
         11    1    4    4    0    0 -0.98740109323E-02 -0.23048625775E-01 -0.14727444522E-03  0.25080232311E-01  0.51100000000E-03 0.  1.
</event>
<event>
 8    1  0.1123285E+005  0.1043930E+01  0.7957747E-01            NaN
         13   -1    0    0    0    0  0.00000000000E+00  0.00000000000E+00  0.74505805969E-08  0.10566000000E+00  0.10566000000E+00 0.  1.
     999900   -1    0    0    0    0 -0.00000000000E+00 -0.00000000000E+00 -0.74505805969E-08  0.93827000000E+00  0.93827000000E+00 0.  1.
     999902    2    1    2    0    0  0.59894600943E-02 -0.12653578509E-01 -0.10235239979E-01  0.10265879465E+01  0.10264414572E+01 0.  0.
     999903    2    3    3    0    0  0.10170271174E-01  0.11537841596E+00 -0.67040322058E-01  0.13550069595E+00  0.21223113229E-01 0.  0.
         14    1    1    2    0    0 -0.59894600943E-02  0.12653578509E-01  0.10235239979E-01  0.17342053475E-01  0.00000000000E+00 0.  1.
     999901    1    3    3    0    0 -0.41808110793E-02 -0.12803199447E+00  0.56805082078E-01  0.89108725058E+00  0.88000000000E+00 0. -1.
        -11    1    4    4    0    0 -0.58243455643E-02  0.29769773685E-01 -0.21810776566E-01  0.37364870158E-01  0.51100000000E-03 0.  1.
         11    1    4    4    0    0  0.15994616738E-01  0.85608642278E-01 -0.45229545492E-01  0.98135825791E-01  0.51100000000E-03 0. -1.
</event>
<event>
 8    1  0.1123285E+005  0.1043930E+01  0.7957747E-01            NaN
         13   -1    0    0    0    0  0.00000000000E+00  0.00000000000E+00  0.74505805969E-08  0.10566000000E+00  0.10566000000E+00 0.  1.
     999900   -1    0    0    0    0 -0.00000000000E+00 -0.00000000000E+00 -0.74505805969E-08  0.93827000000E+00  0.93827000000E+00 0. -1.
     999902    2    1    2    0    0 -0.11543072473E-01  0.28216946306E-02  0.21209929169E-01  0.10196181597E+01  0.10193282720E+01 0.  0.
     999903    2    3    3    0    0 -0.10000311350E+00  0.97540831616E-02 -0.79319444693E-01  0.12946121182E+00  0.19309743978E-01 0.  0.
         14    1    1    2    0    0  0.11543072473E-01 -0.28216946306E-02 -0.21209929169E-01  0.24311840285E-01  0.00000000000E+00 0. -1.
     999901    1    3    3    0    0  0.88460041027E-01 -0.69323885310E-02  0.10052937386E+00  0.89015694789E+00  0.88000000000E+00 0.  1.
        -11    1    4    4    0    0 -0.43068457014E-01  0.64225931586E-02 -0.46284764255E-01  0.63550627185E-01  0.51100000000E-03 0. -1.
         11    1    4    4    0    0 -0.56934656486E-01  0.33314900031E-02 -0.33034680438E-01  0.65910584639E-01  0.51100000000E-03 0.  1.
</event>
<event>
 8    1  0.1123285E+005  0.1043930E+01  0.7957747E-01            NaN
         13   -1    0    0    0    0  0.00000000000E+00  0.00000000000E+00  0.74505805969E-08  0.10566000000E+00  0.10566000000E+00 0.  1.
     999900   -1    0    0    0    0 -0.00000000000E+00 -0.00000000000E+00 -0.74505805969E-08  0.93827000000E+00  0.93827000000E+00 0.  1.
     999902    2    1    2    0    0 -0.21510615511E-02 -0.21830267561E-01  0.98939313831E-02  0.10198659703E+01  0.10195820319E+01 0.  0.
     999903    2    3    3    0    0  0.80668356894E-02 -0.20431982806E-01  0.12851718784E+00  0.13184691779E+00  0.19606182729E-01 0.  0.
         14    1    1    2    0    0  0.21510615511E-02  0.21830267561E-01 -0.98939313831E-02  0.24064029708E-01  0.00000000000E+00 0. -1.
     999901    1    3    3    0    0 -0.10217897241E-01 -0.13982847548E-02 -0.11862325646E+00  0.88801905250E+00  0.88000000000E+00 0.  1.
        -11    1    4    4    0    0 -0.23108723266E-02 -0.99233307782E-02  0.21310667620E-01  0.23626643859E-01  0.51100000000E-03 0. -1.
         11    1    4    4    0    0  0.10377708016E-01 -0.10508652028E-01  0.10720652022E+00  0.10822027394E+00  0.51100000000E-03 0.  1.
</event>
<event>
 8    1  0.1123285E+005  0.1043930E+01  0.7957747E-01            NaN
         13   -1    0    0    0    0  0.00000000000E+00  0.00000000000E+00  0.74505805969E-08  0.10566000000E+00  0.10566000000E+00 0. -1.
     999900   -1    0    0    0    0 -0.00000000000E+00 -0.00000000000E+00 -0.74505805969E-08  0.93827000000E+00  0.93827000000E+00 0.  1.
     999902    2    1    2    0    0  0.12573320555E-01  0.19578931562E-01 -0.18271207889E-02  0.10205898774E+01  0.10203229570E+01 0.  0.
     999903    2    3    3    0    0 -0.11810542492E-01 -0.12171737702E+00 -0.33531459779E-01  0.12842151625E+00  0.20325310739E-01 0.  0.
         14    1    1    2    0    0 -0.12573320555E-01 -0.19578931562E-01  0.18271207889E-02  0.23340122563E-01  0.00000000000E+00 0.  1.
     999901    1    3    3    0    0  0.24383863047E-01  0.14129630859E+00  0.31704338990E-01  0.89216836119E+00  0.88000000000E+00 0.  1.
        -11    1    4    4    0    0 -0.15863918042E-01 -0.10572220835E+00 -0.24799342228E-01  0.10974569573E+00  0.51100000000E-03 0.  1.
         11    1    4    4    0    0  0.40533755495E-02 -0.15995168672E-01 -0.87321175512E-02  0.18675820520E-01  0.51100000000E-03 0. -1.
</event>
<event>
 8    1  0.1123285E+005  0.1043930E+01  0.7957747E-01            NaN
         13   -1    0    0    0    0  0.00000000000E+00  0.00000000000E+00  0.74505805969E-08  0.10566000000E+00  0.10566000000E+00 0.  1.
     999900   -1    0    0    0    0 -0.00000000000E+00 -0.00000000000E+00 -0.74505805969E-08  0.93827000000E+00  0.93827000000E+00 0. -1.
     999902    2    1    2    0    0 -0.59378652111E-02  0.56066324711E-02  0.22223045699E-01  0.10202539291E+01  0.10199791780E+01 0.  0.
     999903    2    3    3    0    0 -0.11401501184E+00  0.60374986642E-01 -0.10090022519E-01  0.13136452285E+00  0.22589098527E-01 0.  0.
         14    1    1    2    0    0  0.59378652111E-02 -0.56066324711E-02 -0.22223045699E-01  0.23676070854E-01  0.00000000000E+00 0. -1.
     999901    1    3    3    0    0  0.10807714663E+00 -0.54768354170E-01  0.32313068218E-01  0.88888940629E+00  0.88000000000E+00 0.  1.
        -11    1    4    4    0    0 -0.50101035512E-01  0.34864041292E-01  0.37983492849E-02  0.61158022474E-01  0.51100000000E-03 0. -1.
         11    1    4    4    0    0 -0.63913976331E-01  0.25510945349E-01 -0.13888371804E-01  0.70206500379E-01  0.51100000000E-03 0.  1.
</event>
<event>
 8    1  0.1123285E+005  0.1043930E+01  0.7957747E-01            NaN
         13   -1    0    0    0    0  0.00000000000E+00  0.00000000000E+00  0.74505805969E-08  0.10566000000E+00  0.10566000000E+00 0. -1.
     999900   -1    0    0    0    0 -0.00000000000E+00 -0.00000000000E+00 -0.74505805969E-08  0.93827000000E+00  0.93827000000E+00 0.  1.
     999902    2    1    2    0    0 -0.21449721790E-01  0.32644072765E-02 -0.93263167455E-02  0.10203137534E+01  0.10200404052E+01 0.  0.
     999903    2    3    3    0    0 -0.13109000139E+00  0.13869050440E-01 -0.61506597036E-02  0.13344085711E+00  0.19791228010E-01 0.  0.
         14    1    1    2    0    0  0.21449721790E-01 -0.32644072765E-02  0.93263167455E-02  0.23616246606E-01  0.00000000000E+00 0. -1.
     999901    1    3    3    0    0  0.10964027960E+00 -0.10604643163E-01 -0.31756570419E-02  0.88687289629E+00  0.88000000000E+00 0.  1.
        -11    1    4    4    0    0 -0.73923477137E-01  0.14458271348E-01 -0.10728492403E-01  0.76086028630E-01  0.51100000000E-03 0. -1.
         11    1    4    4    0    0 -0.57166524254E-01 -0.58922090825E-03  0.45778326990E-02  0.57354828478E-01  0.51100000000E-03 0.  1.
</event>
<event>
 8    1  0.1123285E+005  0.1043930E+01  0.7957747E-01            NaN
         13   -1    0    0    0    0  0.00000000000E+00  0.00000000000E+00  0.74505805969E-08  0.10566000000E+00  0.10566000000E+00 0.  1.
     999900   -1    0    0    0    0 -0.00000000000E+00 -0.00000000000E+00 -0.74505805969E-08  0.93827000000E+00  0.93827000000E+00 0.  1.
     999902    2    1    2    0    0 -0.18282699425E-01  0.91692033672E-02 -0.11003485685E-01  0.10207048394E+01  0.10204405720E+01 0.  0.
     999903    2    3    3    0    0  0.76115798187E-01 -0.85450195536E-01  0.53346989236E-01  0.12828963858E+00  0.22737182210E-01 0.  0.
         14    1    1    2    0    0  0.18282699425E-01 -0.91692033672E-02  0.11003485685E-01  0.23225160621E-01  0.00000000000E+00 0. -1.
     999901    1    3    3    0    0 -0.94398497612E-01  0.94619398903E-01 -0.64350474921E-01  0.89241520080E+00  0.88000000000E+00 0.  1.
        -11    1    4    4    0    0  0.41799315065E-01 -0.32370723458E-01  0.30754294284E-01  0.61164811902E-01  0.51100000000E-03 0. -1.
         11    1    4    4    0    0  0.34316483123E-01 -0.53079472078E-01  0.22592694952E-01  0.67124826675E-01  0.51100000000E-03 0.  1.
</event>
<event>
 8    1  0.1123285E+005  0.1043930E+01  0.7957747E-01            NaN
         13   -1    0    0    0    0  0.00000000000E+00  0.00000000000E+00  0.74505805969E-08  0.10566000000E+00  0.10566000000E+00 0. -1.
     999900   -1    0    0    0    0 -0.00000000000E+00 -0.00000000000E+00 -0.74505805969E-08  0.93827000000E+00  0.93827000000E+00 0. -1.
     999902    2    1    2    0    0 -0.20991236553E-01  0.55735548763E-02 -0.84880324014E-02  0.10206116977E+01  0.10203452819E+01 0.  0.
     999903    2    3    3    0    0  0.10618518377E+00 -0.23167319011E-01 -0.66920183344E-01  0.12908817255E+00  0.19324270469E-01 0.  0.
         14    1    1    2    0    0  0.20991236553E-01 -0.55735548763E-02  0.84880324014E-02  0.23318302254E-01  0.00000000000E+00 0. -1.
     999901    1    3    3    0    0 -0.12717642033E+00  0.28740873887E-01  0.58432150943E-01  0.89152352520E+00  0.88000000000E+00 0. -1.
        -11    1    4    4    0    0  0.87761244488E-01 -0.21700258792E-01 -0.62989536312E-01  0.11018566182E+00  0.51100000000E-03 0.  1.
         11    1    4    4    0    0  0.18423939287E-01 -0.14670602183E-02 -0.39306470320E-02  0.18902510723E-01  0.51100000000E-03 0. -1.
</event>
<event>
 7    1  0.1123285E+005  0.1043930E+01  0.7957747E-01            NaN
         13   -1    0    0    0    0  0.00000000000E+00  0.00000000000E+00  0.74505805969E-08  0.10566000000E+00  0.10566000000E+00 0. -1.
     999900   -1    0    0    0    0 -0.00000000000E+00 -0.00000000000E+00 -0.74505805969E-08  0.93827000000E+00  0.93827000000E+00 0. -1.
     999903    2    1    2    0    0 -0.73857314014E-01 -0.12552841759E-01  0.36764346731E-01  0.85893234507E-01  0.20336024042E-01 0.  0.
         14    1    1    2    0    0 -0.10475037239E-01  0.49004364420E-01  0.47760299022E-01  0.69225719932E-01  0.00000000000E+00 0.  1.
     999901    1    1    2    0    0  0.84332351253E-01 -0.36451522662E-01 -0.84524645753E-01  0.88881104556E+00  0.88000000000E+00 0. -1.
        -11    1    3    3    0    0 -0.54831513031E-01 -0.15682707257E-01  0.34026391677E-01  0.66411584680E-01  0.51100000000E-03 0. -1.
         11    1    3    3    0    0 -0.19025800983E-01  0.31298654983E-02  0.27379550546E-02  0.19481649827E-01  0.51100000000E-03 0.  1.
</event>
<event>
 8    1  0.1123285E+005  0.1043930E+01  0.7957747E-01            NaN
         13   -1    0    0    0    0  0.00000000000E+00  0.00000000000E+00  0.74505805969E-08  0.10566000000E+00  0.10566000000E+00 0. -1.
     999900   -1    0    0    0    0 -0.00000000000E+00 -0.00000000000E+00 -0.74505805969E-08  0.93827000000E+00  0.93827000000E+00 0. -1.
     999902    2    1    2    0    0 -0.12452278066E-01 -0.87776795041E-02 -0.19152521358E-01  0.10194570361E+01  0.10191632463E+01 0.  0.
     999903    2    3    3    0    0 -0.26789534185E-01 -0.12606093682E+00 -0.19271383712E-01  0.13156012010E+00  0.18100829723E-01 0.  0.
         14    1    1    2    0    0  0.12452278066E-01  0.87776795041E-02  0.19152521358E-01  0.24472963876E-01  0.00000000000E+00 0. -1.
     999901    1    3    3    0    0  0.14337256120E-01  0.11728325731E+00  0.11886235405E-03  0.88789691603E+00  0.88000000000E+00 0. -1.
        -11    1    4    4    0    0 -0.51924037572E-02 -0.27676811669E-01 -0.11860756039E-01  0.30559869367E-01  0.51100000000E-03 0.  1.
         11    1    4    4    0    0 -0.21597130428E-01 -0.98384125150E-01 -0.74106276732E-02  0.10100025073E+00  0.51100000000E-03 0. -1.
</event>
<event>
 8    1  0.1123285E+005  0.1043930E+01  0.7957747E-01            NaN
         13   -1    0    0    0    0  0.00000000000E+00  0.00000000000E+00  0.74505805969E-08  0.10566000000E+00  0.10566000000E+00 0.  1.
     999900   -1    0    0    0    0 -0.00000000000E+00 -0.00000000000E+00 -0.74505805969E-08  0.93827000000E+00  0.93827000000E+00 0.  1.
     999902    2    1    2    0    0 -0.28964921338E-02 -0.23662409559E-01  0.49674520609E-02  0.10195789246E+01  0.10192880891E+01 0.  0.
     999903    2    3    3    0    0 -0.49141339786E-01 -0.95199691821E-01 -0.74397927189E-01  0.13191061262E+00  0.19685160704E-01 0.  0.
         14    1    1    2    0    0  0.28964921338E-02  0.23662409559E-01 -0.49674520609E-02  0.24351075393E-01  0.00000000000E+00 0.  1.
     999901    1    3    3    0    0  0.46244847652E-01  0.71537282262E-01  0.79365379250E-01  0.88766831199E+00  0.88000000000E+00 0. -1.
        -11    1    4    4    0    0 -0.16714726192E-01 -0.17019836299E-01 -0.11675120880E-01  0.26563630548E-01  0.51100000000E-03 0. -1.
         11    1    4    4    0    0 -0.32426613594E-01 -0.78179855523E-01 -0.62722806309E-01  0.10534698207E+00  0.51100000000E-03 0.  1.
</event>
<event>
 8    1  0.1123285E+005  0.1043930E+01  0.7957747E-01            NaN
         13   -1    0    0    0    0  0.00000000000E+00  0.00000000000E+00  0.74505805969E-08  0.10566000000E+00  0.10566000000E+00 0. -1.
     999900   -1    0    0    0    0 -0.00000000000E+00 -0.00000000000E+00 -0.74505805969E-08  0.93827000000E+00  0.93827000000E+00 0.  1.
     999902    2    1    2    0    0  0.72541873955E-02 -0.20333017995E-01 -0.10086350755E-01  0.10201016697E+01  0.10198233313E+01 0.  0.
     999903    2    3    3    0    0  0.58706891725E-01 -0.11683006115E+00 -0.39269861429E-02  0.13331139124E+00  0.25704931203E-01 0.  0.
         14    1    1    2    0    0 -0.72541873955E-02  0.20333017995E-01  0.10086350755E-01  0.23828330346E-01  0.00000000000E+00 0. -1.
     999901    1    3    3    0    0 -0.51452704330E-01  0.96497043159E-01 -0.61593646118E-02  0.88679027842E+00  0.88000000000E+00 0.  1.
        -11    1    4    4    0    0  0.39506415754E-01 -0.60628778686E-01  0.77553237297E-02  0.72780573355E-01  0.51100000000E-03 0. -1.
         11    1    4    4    0    0  0.19200475971E-01 -0.56201282468E-01 -0.11682309873E-01  0.60530817882E-01  0.51100000000E-03 0.  1.
</event>
<event>
 8    1  0.1123285E+005  0.1043930E+01  0.7957747E-01            NaN
         13   -1    0    0    0    0  0.00000000000E+00  0.00000000000E+00  0.74505805969E-08  0.10566000000E+00  0.10566000000E+00 0. -1.
     999900   -1    0    0    0    0 -0.00000000000E+00 -0.00000000000E+00 -0.74505805969E-08  0.93827000000E+00  0.93827000000E+00 0. -1.
     999902    2    1    2    0    0  0.18143291800E-01 -0.14779539604E-01  0.92828206326E-03  0.10205104454E+01  0.10202416840E+01 0.  0.
     999903    2    3    3    0    0  0.73850873061E-01 -0.73130548143E-01  0.80809960032E-01  0.13321722599E+00  0.20360528879E-01 0.  0.
         14    1    1    2    0    0 -0.18143291800E-01  0.14779539604E-01 -0.92828206326E-03  0.23419554561E-01  0.00000000000E+00 0. -1.
     999901    1    3    3    0    0 -0.55707581261E-01  0.58351008539E-01 -0.79881677969E-01  0.88729321945E+00  0.88000000000E+00 0. -1.
        -11    1    4    4    0    0  0.27069709701E-01 -0.30901206930E-01  0.44139441515E-01  0.60300955144E-01  0.51100000000E-03 0.  1.
         11    1    4    4    0    0  0.46781163360E-01 -0.42229341213E-01  0.36670518517E-01  0.72916270845E-01  0.51100000000E-03 0. -1.
</event>
<event>
 8    1  0.1123285E+005  0.1043930E+01  0.7957747E-01            NaN
         13   -1    0    0    0    0  0.00000000000E+00  0.00000000000E+00  0.74505805969E-08  0.10566000000E+00  0.10566000000E+00 0. -1.
     999900   -1    0    0    0    0 -0.00000000000E+00 -0.00000000000E+00 -0.74505805969E-08  0.93827000000E+00  0.93827000000E+00 0.  1.
     999902    2    1    2    0    0  0.50820832339E-02  0.22209033077E-01 -0.15934664218E-01  0.10161274418E+01  0.10157470136E+01 0.  0.
     999903    2    3    3    0    0 -0.73600134579E-01  0.10179120066E+00 -0.22371623822E-01  0.12901659907E+00  0.19140661991E-01 0.  0.
         14    1    1    2    0    0 -0.50820832339E-02 -0.22209033077E-01  0.15934664218E-01  0.27802558227E-01  0.00000000000E+00 0. -1.
     999901    1    3    3    0    0  0.78682217813E-01 -0.79582167579E-01  0.64369596040E-02  0.88711084271E+00  0.88000000000E+00 0. -1.
        -11    1    4    4    0    0 -0.50681316806E-01  0.55037611511E-01 -0.98941864972E-02  0.75471124289E-01  0.51100000000E-03 0.  1.
         11    1    4    4    0    0 -0.22918817773E-01  0.46753589145E-01 -0.12477437325E-01  0.53545474778E-01  0.51100000000E-03 0. -1.
</event>
<event>
 8    1  0.1123285E+005  0.1043930E+01  0.7957747E-01            NaN
         13   -1    0    0    0    0  0.00000000000E+00  0.00000000000E+00  0.74505805969E-08  0.10566000000E+00  0.10566000000E+00 0.  1.
     999900   -1    0    0    0    0 -0.00000000000E+00 -0.00000000000E+00 -0.74505805969E-08  0.93827000000E+00  0.93827000000E+00 0. -1.
     999902    2    1    2    0    0 -0.19570173881E-01  0.13171389578E-01  0.24237532138E-02  0.10202160423E+01  0.10199404008E+01 0.  0.
     999903    2    3    3    0    0 -0.91987640326E-01 -0.90330738970E-01  0.14744579497E-01  0.13111043396E+00  0.18739660955E-01 0.  0.
         14    1    1    2    0    0  0.19570173881E-01 -0.13171389578E-01 -0.24237532138E-02  0.23713957679E-01  0.00000000000E+00 0.  1.
     999901    1    3    3    0    0  0.72417466445E-01  0.10350212855E+00 -0.12320826283E-01  0.88910560836E+00  0.88000000000E+00 0. -1.
        -11    1    4    4    0    0 -0.35032928915E-01 -0.33500036350E-01 -0.35225426574E-02  0.48602756831E-01  0.51100000000E-03 0.  1.
         11    1    4    4    0    0 -0.56954711412E-01 -0.56830702620E-01  0.18267122154E-01  0.82507677128E-01  0.51100000000E-03 0. -1.
</event>
<event>
 8    1  0.1123285E+005  0.1043930E+01  0.7957747E-01            NaN
         13   -1    0    0    0    0  0.00000000000E+00  0.00000000000E+00  0.74505805969E-08  0.10566000000E+00  0.10566000000E+00 0. -1.
     999900   -1    0    0    0    0 -0.00000000000E+00 -0.00000000000E+00 -0.74505805969E-08  0.93827000000E+00  0.93827000000E+00 0. -1.
     999902    2    1    2    0    0 -0.16645006193E-01 -0.57251584352E-02 -0.59941467035E-02  0.10253352840E+01  0.10251666601E+01 0.  0.
     999903    2    3    3    0    0 -0.46655450963E-01 -0.28658330743E-01 -0.12361044912E+00  0.13670704234E+00  0.20279084520E-01 0.  0.
         14    1    1    2    0    0  0.16645006193E-01  0.57251584352E-02  0.59941467035E-02  0.18594716050E-01  0.00000000000E+00 0. -1.
     999901    1    3    3    0    0  0.30010444770E-01  0.22933172308E-01  0.11761630242E+00  0.88862824161E+00  0.88000000000E+00 0.  1.
        -11    1    4    4    0    0 -0.15201224622E-01  0.66085779188E-03 -0.36957943152E-01  0.39970797416E-01  0.51100000000E-03 0. -1.
         11    1    4    4    0    0 -0.31454226341E-01 -0.29319188535E-01 -0.86652505969E-01  0.96736244928E-01  0.51100000000E-03 0.  1.
</event>
<event>
 8    1  0.1123285E+005  0.1043930E+01  0.7957747E-01            NaN
         13   -1    0    0    0    0  0.00000000000E+00  0.00000000000E+00  0.74505805969E-08  0.10566000000E+00  0.10566000000E+00 0.  1.
     999900   -1    0    0    0    0 -0.00000000000E+00 -0.00000000000E+00 -0.74505805969E-08  0.93827000000E+00  0.93827000000E+00 0. -1.
     999902    2    1    2    0    0 -0.59639374678E-02 -0.18259254773E-01  0.14753292542E-01  0.10197095835E+01  0.10194218980E+01 0.  0.
     999903    2    3    3    0    0  0.12558219178E+00 -0.23128139945E-01  0.13234640004E-01  0.12991725015E+00  0.19938366110E-01 0.  0.
         14    1    1    2    0    0  0.59639374678E-02  0.18259254773E-01 -0.14753292542E-01  0.24220416508E-01  0.00000000000E+00 0. -1.
     999901    1    3    3    0    0 -0.13154612924E+00  0.48688851727E-02  0.15186525379E-02  0.88979233334E+00  0.88000000000E+00 0. -1.
        -11    1    4    4    0    0  0.19751540903E-01  0.20013390892E-02 -0.24800942468E-02  0.20013513302E-01  0.51100000000E-03 0.  1.
         11    1    4    4    0    0  0.10583065087E+00 -0.25129479034E-01  0.15714734251E-01  0.10990373685E+00  0.51100000000E-03 0. -1.
</event>
<event>
 8    1  0.1123285E+005  0.1043930E+01  0.7957747E-01            NaN
         13   -1    0    0    0    0  0.00000000000E+00  0.00000000000E+00  0.74505805969E-08  0.10566000000E+00  0.10566000000E+00 0. -1.
     999900   -1    0    0    0    0 -0.00000000000E+00 -0.00000000000E+00 -0.74505805969E-08  0.93827000000E+00  0.93827000000E+00 0.  1.
     999902    2    1    2    0    0  0.52482354437E-02  0.99178901452E-03  0.22720121438E-01  0.10205905155E+01  0.10203236098E+01 0.  0.
     999903    2    3    3    0    0  0.11436612761E+00  0.14784448640E-01 -0.56890449097E-01  0.13017780508E+00  0.20286613090E-01 0.  0.
         14    1    1    2    0    0 -0.52482354437E-02 -0.99178901452E-03 -0.22720121438E-01  0.23339484546E-01  0.00000000000E+00 0.  1.
     999901    1    3    3    0    0 -0.10911789217E+00 -0.13792659625E-01  0.79610570536E-01  0.89041271037E+00  0.88000000000E+00 0. -1.
        -11    1    4    4    0    0  0.52895821299E-01  0.61890921260E-02 -0.15128723185E-01  0.55366164383E-01  0.51100000000E-03 0.  1.
         11    1    4    4    0    0  0.61470306313E-01  0.85953565135E-02 -0.41761725912E-01  0.74811640698E-01  0.51100000000E-03 0. -1.
</event>
<event>
 8    1  0.1123285E+005  0.1043930E+01  0.7957747E-01            NaN
         13   -1    0    0    0    0  0.00000000000E+00  0.00000000000E+00  0.74505805969E-08  0.10566000000E+00  0.10566000000E+00 0. -1.
     999900   -1    0    0    0    0 -0.00000000000E+00 -0.00000000000E+00 -0.74505805969E-08  0.93827000000E+00  0.93827000000E+00 0.  1.
     999902    2    1    2    0    0  0.45553390016E-02  0.21858869299E-01  0.61084609937E-02  0.10207810351E+01  0.10205185187E+01 0.  0.
     999903    2    3    3    0    0 -0.40814891676E-01 -0.31686574566E-01  0.11887550997E+00  0.13081363135E+00  0.17633062287E-01 0.  0.
         14    1    1    2    0    0 -0.45553390016E-02 -0.21858869299E-01 -0.61084609937E-02  0.23148964904E-01  0.00000000000E+00 0.  1.
     999901    1    3    3    0    0  0.45370230678E-01  0.53545443864E-01 -0.11276704898E+00  0.88996740374E+00  0.88000000000E+00 0.  1.
        -11    1    4    4    0    0 -0.35530991120E-01 -0.19119261358E-01  0.79741418763E-01  0.89369751438E-01  0.51100000000E-03 0. -1.
         11    1    4    4    0    0 -0.52839005560E-02 -0.12567313208E-01  0.39134091211E-01  0.41443879913E-01  0.51100000000E-03 0.  1.
</event>
<event>
 7    1  0.1123285E+005  0.1043930E+01  0.7957747E-01            NaN
         13   -1    0    0    0    0  0.00000000000E+00  0.00000000000E+00  0.74505805969E-08  0.10566000000E+00  0.10566000000E+00 0. -1.
     999900   -1    0    0    0    0 -0.00000000000E+00 -0.00000000000E+00 -0.74505805969E-08  0.93827000000E+00  0.93827000000E+00 0.  1.
     999902    2    1    2    0    0 -0.20683015019E-01  0.99759157746E-02 -0.41410700069E-02  0.10205964519E+01  0.10203296836E+01 0.  0.
         14    1    1    2    0    0  0.20683015019E-01 -0.99759157746E-02  0.41410700069E-02  0.23333548093E-01  0.00000000000E+00 0. -1.
     999901    1    3    3    0    0  0.73297044239E-01 -0.39010914689E-01  0.68986637818E-01  0.88659656234E+00  0.88000000000E+00 0. -1.
        -11    1    3    3    0    0 -0.94263308312E-01  0.41555773383E-01 -0.60880464109E-01  0.11966263254E+00  0.51100000000E-03 0.  1.
         11    1    3    3    0    0  0.28324905326E-03  0.74310570808E-02 -0.12247243715E-01  0.14337257024E-01  0.51100000000E-03 0. -1.
</event>
<event>
 8    1  0.1123285E+005  0.1043930E+01  0.7957747E-01            NaN
         13   -1    0    0    0    0  0.00000000000E+00  0.00000000000E+00  0.74505805969E-08  0.10566000000E+00  0.10566000000E+00 0. -1.
     999900   -1    0    0    0    0 -0.00000000000E+00 -0.00000000000E+00 -0.74505805969E-08  0.93827000000E+00  0.93827000000E+00 0. -1.
     999902    2    1    2    0    0  0.39312831607E-04 -0.20779027927E-01 -0.11151649004E-01  0.10203476163E+01  0.10200750606E+01 0.  0.
     999903    2    3    3    0    0  0.96220101813E-04  0.12180533289E+00 -0.36595578119E-01  0.12850811461E+00  0.18399750095E-01 0.  0.
         14    1    1    2    0    0 -0.39312831607E-04  0.20779027927E-01  0.11151649004E-01  0.23582383734E-01  0.00000000000E+00 0.  1.
     999901    1    3    3    0    0 -0.56907270206E-04 -0.14258436082E+00  0.25443929115E-01  0.89183950166E+00  0.88000000000E+00 0. -1.
        -11    1    4    4    0    0 -0.78849975281E-03  0.47181691090E-01 -0.23568251596E-01  0.52749002932E-01  0.51100000000E-03 0.  1.
         11    1    4    4    0    0  0.88471985463E-03  0.74623641800E-01 -0.13027326523E-01  0.75759111677E-01  0.51100000000E-03 0. -1.
</event>
<event>
 8    1  0.1123285E+005  0.1043930E+01  0.7957747E-01            NaN
         13   -1    0    0    0    0  0.00000000000E+00  0.00000000000E+00  0.74505805969E-08  0.10566000000E+00  0.10566000000E+00 0.  1.
     999900   -1    0    0    0    0 -0.00000000000E+00 -0.00000000000E+00 -0.74505805969E-08  0.93827000000E+00  0.93827000000E+00 0. -1.
     999902    2    1    2    0    0  0.34000689399E-02 -0.15615486122E-01 -0.17791180330E-01  0.10200149425E+01  0.10197345503E+01 0.  0.
     999903    2    3    3    0    0  0.11067399632E+00  0.10259400735E-01 -0.67745406090E-01  0.13171734042E+00  0.20150160215E-01 0.  0.
         14    1    1    2    0    0 -0.34000689399E-02  0.15615486122E-01  0.17791180330E-01  0.23915057457E-01  0.00000000000E+00 0.  1.
     999901    1    3    3    0    0 -0.10727392738E+00 -0.25874886857E-01  0.49954225760E-01  0.88829760212E+00  0.88000000000E+00 0.  1.
        -11    1    4    4    0    0  0.14061737939E-01  0.78022486862E-02 -0.68463161975E-02  0.17485443229E-01  0.51100000000E-03 0.  1.
         11    1    4    4    0    0  0.96612258379E-01  0.24571520491E-02 -0.60899089893E-01  0.11423189719E+00  0.51100000000E-03 0. -1.
</event>
<event>
 8    1  0.1123285E+005  0.1043930E+01  0.7957747E-01            NaN
         13   -1    0    0    0    0  0.00000000000E+00  0.00000000000E+00  0.74505805969E-08  0.10566000000E+00  0.10566000000E+00 0. -1.
     999900   -1    0    0    0    0 -0.00000000000E+00 -0.00000000000E+00 -0.74505805969E-08  0.93827000000E+00  0.93827000000E+00 0. -1.
     999902    2    1    2    0    0  0.12299106568E-01  0.66160211924E-02  0.19153900174E-01  0.10202253243E+01  0.10199499011E+01 0.  0.
     999903    2    3    3    0    0  0.89518041660E-01 -0.74567376652E-01  0.59387142146E-01  0.13220943379E+00  0.19460942589E-01 0.  0.
         14    1    1    2    0    0 -0.12299106568E-01 -0.66160211924E-02 -0.19153900174E-01  0.23704675713E-01  0.00000000000E+00 0.  1.
     999901    1    3    3    0    0 -0.77218935093E-01  0.81183397844E-01 -0.40233241973E-01  0.88801589050E+00  0.88000000000E+00 0.  1.
        -11    1    4    4    0    0  0.21878125965E-01 -0.29777178494E-01  0.20184767926E-01  0.42107228976E-01  0.51100000000E-03 0. -1.
         11    1    4    4    0    0  0.67639915695E-01 -0.44790198158E-01  0.39202374221E-01  0.90102204811E-01  0.51100000000E-03 0.  1.
</event>
<event>
 8    1  0.1123285E+005  0.1043930E+01  0.7957747E-01            NaN
         13   -1    0    0    0    0  0.00000000000E+00  0.00000000000E+00  0.74505805969E-08  0.10566000000E+00  0.10566000000E+00 0.  1.
     999900   -1    0    0    0    0 -0.00000000000E+00 -0.00000000000E+00 -0.74505805969E-08  0.93827000000E+00  0.93827000000E+00 0.  1.
     999902    2    1    2    0    0 -0.20312181095E-01 -0.75025378010E-02 -0.96827519066E-02  0.10202102096E+01  0.10199344308E+01 0.  0.
     999903    2    3    3    0    0  0.84132726849E-01  0.69825811572E-01  0.62589832004E-01  0.12773514615E+00  0.21090775309E-01 0.  0.
         14    1    1    2    0    0  0.20312181095E-01  0.75025378010E-02  0.96827519066E-02  0.23719790446E-01  0.00000000000E+00 0.  1.
     999901    1    3    3    0    0 -0.10444490794E+00 -0.77328349373E-01 -0.72272583910E-01  0.89247506340E+00  0.88000000000E+00 0. -1.
        -11    1    4    4    0    0  0.29109713937E-01  0.31725265525E-01  0.34394275601E-01  0.55109846972E-01  0.51100000000E-03 0. -1.
         11    1    4    4    0    0  0.55023012912E-01  0.38100546047E-01  0.28195556403E-01  0.72625299179E-01  0.51100000000E-03 0.  1.
</event>
<event>
 8    1  0.1123285E+005  0.1043930E+01  0.7957747E-01            NaN
         13   -1    0    0    0    0  0.00000000000E+00  0.00000000000E+00  0.74505805969E-08  0.10566000000E+00  0.10566000000E+00 0. -1.
     999900   -1    0    0    0    0 -0.00000000000E+00 -0.00000000000E+00 -0.74505805969E-08  0.93827000000E+00  0.93827000000E+00 0. -1.
     999902    2    1    2    0    0  0.11952736374E-01  0.60106936312E-02 -0.12292621853E-01  0.10257612109E+01  0.10256002910E+01 0.  0.
     999903    2    3    3    0    0 -0.18300417311E-02 -0.61860790923E-01  0.11676767460E+00  0.13365523991E+00  0.19973152429E-01 0.  0.
         14    1    1    2    0    0 -0.11952736374E-01 -0.60106936312E-02  0.12292621853E-01  0.18168789084E-01  0.00000000000E+00 0. -1.
     999901    1    3    3    0    0  0.13782778105E-01  0.67871484554E-01 -0.12906029645E+00  0.89210597101E+00  0.88000000000E+00 0. -1.
        -11    1    4    4    0    0  0.25089366546E-02 -0.45724279018E-01  0.99950355164E-01  0.10994243527E+00  0.51100000000E-03 0.  1.
         11    1    4    4    0    0 -0.43389783857E-02 -0.16136511905E-01  0.16817319433E-01  0.23712804638E-01  0.51100000000E-03 0. -1.
</event>
<event>
 8    1  0.1123285E+005  0.1043930E+01  0.7957747E-01            NaN
         13   -1    0    0    0    0  0.00000000000E+00  0.00000000000E+00  0.74505805969E-08  0.10566000000E+00  0.10566000000E+00 0.  1.
     999900   -1    0    0    0    0 -0.00000000000E+00 -0.00000000000E+00 -0.74505805969E-08  0.93827000000E+00  0.93827000000E+00 0.  1.
     999902    2    1    2    0    0  0.46023776862E-02 -0.35057256410E-02  0.22435329858E-01  0.10207607096E+01  0.10204977267E+01 0.  0.
     999903    2    3    3    0    0 -0.23607297084E-01 -0.10928162015E+00  0.69199079150E-01  0.13274540912E+00  0.18249770101E-01 0.  0.
         14    1    1    2    0    0 -0.46023776862E-02  0.35057256410E-02 -0.22435329858E-01  0.23169290418E-01  0.00000000000E+00 0. -1.
     999901    1    3    3    0    0  0.28209674770E-01  0.10577589451E+00 -0.46763749293E-01  0.88801530046E+00  0.88000000000E+00 0.  1.
        -11    1    4    4    0    0 -0.17731664004E-01 -0.10225682097E+00  0.60647598115E-01  0.12020508151E+00  0.51100000000E-03 0. -1.
         11    1    4    4    0    0 -0.58756330802E-02 -0.70247991822E-02  0.85514810348E-02  0.12540327609E-01  0.51100000000E-03 0.  1.
</event>
<event>
 8    1  0.1123285E+005  0.1043930E+01  0.7957747E-01            NaN
         13   -1    0    0    0    0  0.00000000000E+00  0.00000000000E+00  0.74505805969E-08  0.10566000000E+00  0.10566000000E+00 0.  1.
     999900   -1    0    0    0    0 -0.00000000000E+00 -0.00000000000E+00 -0.74505805969E-08  0.93827000000E+00  0.93827000000E+00 0. -1.
     999902    2    1    2    0    0  0.24326464365E-01 -0.53555536349E-04 -0.49879157148E-03  0.10195983636E+01  0.10193079979E+01 0.  0.
     999903    2    3    3    0    0  0.99895370485E-01  0.74484420371E-01  0.39797806936E-01  0.13230450852E+00  0.19839445920E-01 0.  0.
         14    1    1    2    0    0 -0.24326464365E-01  0.53555536349E-04  0.49879157148E-03  0.24331636397E-01  0.00000000000E+00 0. -1.
     999901    1    3    3    0    0 -0.75568906119E-01 -0.74537975907E-01 -0.40296598508E-01  0.88729385509E+00  0.88000000000E+00 0.  1.
        -11    1    4    4    0    0  0.90691829476E-01  0.65106076183E-01  0.29153100098E-01  0.11538619266E+00  0.51100000000E-03 0.  1.
         11    1    4    4    0    0  0.92035410082E-02  0.93783441882E-02  0.10644706839E-01  0.16918315858E-01  0.51100000000E-03 0. -1.
</event>
<event>
 8    1  0.1123285E+005  0.1043930E+01  0.7957747E-01            NaN
         13   -1    0    0    0    0  0.00000000000E+00  0.00000000000E+00  0.74505805969E-08  0.10566000000E+00  0.10566000000E+00 0. -1.
     999900   -1    0    0    0    0 -0.00000000000E+00 -0.00000000000E+00 -0.74505805969E-08  0.93827000000E+00  0.93827000000E+00 0.  1.
     999902    2    1    2    0    0 -0.22308606925E-01  0.56953843273E-02 -0.66160996947E-02  0.10199741214E+01  0.10196927597E+01 0.  0.
     999903    2    3    3    0    0 -0.34501701233E-01  0.34232876151E-01 -0.12106536951E+00  0.13202046529E+00  0.20256415336E-01 0.  0.
         14    1    1    2    0    0  0.22308606925E-01 -0.56953843273E-02  0.66160996947E-02  0.23955878626E-01  0.00000000000E+00 0.  1.
     999901    1    3    3    0    0  0.12193094308E-01 -0.28537491824E-01  0.11444926982E+00  0.88795365608E+00  0.88000000000E+00 0.  1.
        -11    1    4    4    0    0 -0.79847461358E-03  0.99249195738E-02 -0.35867537721E-01  0.37227449193E-01  0.51100000000E-03 0.  1.
         11    1    4    4    0    0 -0.33703226620E-01  0.24307956578E-01 -0.85197831794E-01  0.94793016098E-01  0.51100000000E-03 0. -1.
</event>
<event>
 8    1  0.1123285E+005  0.1043930E+01  0.7957747E-01            NaN
         13   -1    0    0    0    0  0.00000000000E+00  0.00000000000E+00  0.74505805969E-08  0.10566000000E+00  0.10566000000E+00 0.  1.
     999900   -1    0    0    0    0 -0.00000000000E+00 -0.00000000000E+00 -0.74505805969E-08  0.93827000000E+00  0.93827000000E+00 0.  1.
     999902    2    1    2    0    0  0.12262654181E-01 -0.15758802363E-01 -0.13441200539E-01  0.10198597193E+01  0.10195756317E+01 0.  0.
     999903    2    3    3    0    0  0.91130420837E-01  0.90453502193E-01 -0.77388440286E-03  0.12988127063E+00  0.19543692143E-01 0.  0.
         14    1    1    2    0    0 -0.12262654181E-01  0.15758802363E-01  0.13441200539E-01  0.24070280667E-01  0.00000000000E+00 0. -1.
     999901    1    3    3    0    0 -0.78867766657E-01 -0.10621230456E+00 -0.12667316136E-01  0.88997844870E+00  0.88000000000E+00 0.  1.
        -11    1    4    4    0    0  0.20047605410E-01  0.32323993381E-01 -0.10667021376E-02  0.38054513599E-01  0.51100000000E-03 0. -1.
         11    1    4    4    0    0  0.71082815427E-01  0.58129508812E-01  0.29281773470E-03  0.91826757032E-01  0.51100000000E-03 0.  1.
</event>
<event>
 8    1  0.1123285E+005  0.1043930E+01  0.7957747E-01            NaN
         13   -1    0    0    0    0  0.00000000000E+00  0.00000000000E+00  0.74505805969E-08  0.10566000000E+00  0.10566000000E+00 0. -1.
     999900   -1    0    0    0    0 -0.00000000000E+00 -0.00000000000E+00 -0.74505805969E-08  0.93827000000E+00  0.93827000000E+00 0.  1.
     999902    2    1    2    0    0 -0.64449943527E-02  0.10377228599E-02  0.22726434591E-01  0.10202845850E+01  0.10200105533E+01 0.  0.
     999903    2    3    3    0    0 -0.58626102654E-01 -0.47295626339E-01  0.10808730809E+00  0.13329785487E+00  0.20286837125E-01 0.  0.
         14    1    1    2    0    0  0.64449943527E-02 -0.10377228599E-02 -0.22726434591E-01  0.23645414992E-01  0.00000000000E+00 0.  1.
     999901    1    3    3    0    0  0.52181108301E-01  0.48333349199E-01 -0.85360873500E-01  0.88698673013E+00  0.88000000000E+00 0.  1.
        -11    1    4    4    0    0 -0.35482964289E-01 -0.40463084767E-01  0.76876551104E-01  0.93843312038E-01  0.51100000000E-03 0. -1.
         11    1    4    4    0    0 -0.23143138365E-01 -0.68325415715E-02  0.31210756987E-01  0.39454542836E-01  0.51100000000E-03 0.  1.
</event>
<event>
 8    1  0.1123285E+005  0.1043930E+01  0.7957747E-01            NaN
         13   -1    0    0    0    0  0.00000000000E+00  0.00000000000E+00  0.74505805969E-08  0.10566000000E+00  0.10566000000E+00 0.  1.
     999900   -1    0    0    0    0 -0.00000000000E+00 -0.00000000000E+00 -0.74505805969E-08  0.93827000000E+00  0.93827000000E+00 0.  1.
     999902    2    1    2    0    0  0.78203381406E-02 -0.13410620191E-01  0.18884617556E-01  0.10194835033E+01  0.10191903562E+01 0.  0.
     999903    2    3    3    0    0  0.26470214444E-01 -0.12551953252E+00  0.24656721639E-01  0.13215631260E+00  0.20037757835E-01 0.  0.
         14    1    1    2    0    0 -0.78203381406E-02  0.13410620191E-01 -0.18884617556E-01  0.24446496739E-01  0.00000000000E+00 0.  1.
     999901    1    3    3    0    0 -0.18649876303E-01  0.11210891233E+00 -0.57721040827E-02  0.88732719067E+00  0.88000000000E+00 0. -1.
        -11    1    4    4    0    0  0.13196598047E-01 -0.10171175998E+00  0.18901365796E-01  0.10429264149E+00  0.51100000000E-03 0.  1.
         11    1    4    4    0    0  0.13273616397E-01 -0.23807772540E-01  0.57553558426E-02  0.27863671105E-01  0.51100000000E-03 0. -1.
</event>
<event>
 8    1  0.1123285E+005  0.1043930E+01  0.7957747E-01            NaN
         13   -1    0    0    0    0  0.00000000000E+00  0.00000000000E+00  0.74505805969E-08  0.10566000000E+00  0.10566000000E+00 0.  1.
     999900   -1    0    0    0    0 -0.00000000000E+00 -0.00000000000E+00 -0.74505805969E-08  0.93827000000E+00  0.93827000000E+00 0.  1.
     999902    2    1    2    0    0  0.15817942837E-01  0.38786294230E-02 -0.16183590226E-01  0.10209700419E+01  0.10207118432E+01 0.  0.
     999903    2    3    3    0    0  0.22865836946E-02  0.85129929658E-01 -0.10047088252E+00  0.13311351123E+00  0.19299617829E-01 0.  0.
         14    1    1    2    0    0 -0.15817942837E-01 -0.38786294230E-02  0.16183590226E-01  0.22959958066E-01  0.00000000000E+00 0.  1.
     999901    1    3    3    0    0  0.13531359142E-01 -0.81251300235E-01  0.84287292298E-01  0.88785653070E+00  0.88000000000E+00 0. -1.
        -11    1    4    4    0    0 -0.27565709439E-02  0.52055942871E-01 -0.47891543780E-01  0.70790401596E-01  0.51100000000E-03 0. -1.
         11    1    4    4    0    0  0.50431546385E-02  0.33073986787E-01 -0.52579338744E-01  0.62323109634E-01  0.51100000000E-03 0.  1.
</event>
<event>
 8    1  0.1123285E+005  0.1043930E+01  0.7957747E-01            NaN
         13   -1    0    0    0    0  0.00000000000E+00  0.00000000000E+00  0.74505805969E-08  0.10566000000E+00  0.10566000000E+00 0.  1.
     999900   -1    0    0    0    0 -0.00000000000E+00 -0.00000000000E+00 -0.74505805969E-08  0.93827000000E+00  0.93827000000E+00 0. -1.
     999902    2    1    2    0    0 -0.14335343297E-01  0.16597687678E-02  0.19219102927E-01  0.10198960487E+01  0.10196128281E+01 0.  0.
     999903    2    3    3    0    0  0.20372408041E-01 -0.10172234226E+00 -0.73088797357E-01  0.12837306110E+00  0.19370095352E-01 0.  0.
         14    1    1    2    0    0  0.14335343297E-01 -0.16597687678E-02 -0.19219102927E-01  0.24033951342E-01  0.00000000000E+00 0. -1.
     999901    1    3    3    0    0 -0.34707751338E-01  0.10338211103E+00  0.92307900283E-01  0.89152298755E+00  0.88000000000E+00 0.  1.
        -11    1    4    4    0    0  0.65504021161E-02 -0.76176198721E-01 -0.51685700353E-01  0.92289727280E-01  0.51100000000E-03 0.  1.
         11    1    4    4    0    0  0.13822005925E-01 -0.25546143539E-01 -0.21403097004E-01  0.36083333824E-01  0.51100000000E-03 0. -1.
</event>
<event>
 8    1  0.1123285E+005  0.1043930E+01  0.7957747E-01            NaN
         13   -1    0    0    0    0  0.00000000000E+00  0.00000000000E+00  0.74505805969E-08  0.10566000000E+00  0.10566000000E+00 0. -1.
     999900   -1    0    0    0    0 -0.00000000000E+00 -0.00000000000E+00 -0.74505805969E-08  0.93827000000E+00  0.93827000000E+00 0. -1.
     999902    2    1    2    0    0 -0.23380330569E-01 -0.88849254842E-02 -0.29048543395E-02  0.10187502475E+01  0.10184390246E+01 0.  0.
     999903    2    3    3    0    0  0.39875623107E-02 -0.12425594245E+00 -0.34444718917E-01  0.13023787493E+00  0.17889257057E-01 0.  0.
         14    1    1    2    0    0  0.23380330569E-01  0.88849254842E-02  0.29048543395E-02  0.25179752523E-01  0.00000000000E+00 0.  1.
     999901    1    3    3    0    0 -0.27367892880E-01  0.11537101696E+00  0.31539864578E-01  0.88851237255E+00  0.88000000000E+00 0.  1.
        -11    1    4    4    0    0 -0.49930746451E-02 -0.90194749317E-01 -0.26200102951E-01  0.94057057760E-01  0.51100000000E-03 0. -1.
         11    1    4    4    0    0  0.89806369558E-02 -0.34061193130E-01 -0.82446159656E-02  0.36180817168E-01  0.51100000000E-03 0.  1.
</event>
<event>
 8    1  0.1123285E+005  0.1043930E+01  0.7957747E-01            NaN
         13   -1    0    0    0    0  0.00000000000E+00  0.00000000000E+00  0.74505805969E-08  0.10566000000E+00  0.10566000000E+00 0.  1.
     999900   -1    0    0    0    0 -0.00000000000E+00 -0.00000000000E+00 -0.74505805969E-08  0.93827000000E+00  0.93827000000E+00 0.  1.
     999902    2    1    2    0    0 -0.99140079704E-02 -0.72030922716E-02 -0.20326892992E-01  0.10201949063E+01  0.10199187675E+01 0.  0.
     999903    2    3    3    0    0  0.70330960315E-01  0.10629344441E+00 -0.82689655969E-02  0.12920326082E+00  0.19502987234E-01 0.  0.
         14    1    1    2    0    0  0.99140079704E-02  0.72030922716E-02  0.20326892992E-01  0.23735093660E-01  0.00000000000E+00 0.  1.
     999901    1    3    3    0    0 -0.80244968286E-01 -0.11349653668E+00 -0.12057927395E-01  0.89099164552E+00  0.88000000000E+00 0.  1.
        -11    1    4    4    0    0  0.62135743925E-02  0.96757544565E-02 -0.65267306667E-02  0.13232084689E-01  0.51100000000E-03 0.  1.
         11    1    4    4    0    0  0.64117385923E-01  0.96617689954E-01 -0.17422349301E-02  0.11597117613E+00  0.51100000000E-03 0. -1.
</event>
<event>
 8    1  0.1123285E+005  0.1043930E+01  0.7957747E-01            NaN
         13   -1    0    0    0    0  0.00000000000E+00  0.00000000000E+00  0.74505805969E-08  0.10566000000E+00  0.10566000000E+00 0. -1.
     999900   -1    0    0    0    0 -0.00000000000E+00 -0.00000000000E+00 -0.74505805969E-08  0.93827000000E+00  0.93827000000E+00 0.  1.
     999902    2    1    2    0    0 -0.46664281594E-03  0.16336684089E-01 -0.17496378394E-01  0.10199878142E+01  0.10197067779E+01 0.  0.
     999903    2    3    3    0    0  0.12741928423E+00 -0.14609281953E-01 -0.79932609646E-02  0.13015481170E+00  0.20670696067E-01 0.  0.
         14    1    1    2    0    0  0.46664281594E-03 -0.16336684089E-01  0.17496378394E-01  0.23942185770E-01  0.00000000000E+00 0. -1.
     999901    1    3    3    0    0 -0.12788592704E+00  0.30945966043E-01 -0.95031174293E-02  0.88983300253E+00  0.88000000000E+00 0. -1.
        -11    1    4    4    0    0  0.64574142752E-01 -0.14268470009E-02  0.44516161888E-02  0.64745145086E-01  0.51100000000E-03 0.  1.
         11    1    4    4    0    0  0.62845141475E-01 -0.13182434952E-01 -0.12444877153E-01  0.65409666614E-01  0.51100000000E-03 0. -1.
</event>
<event>
 8    1  0.1123285E+005  0.1043930E+01  0.7957747E-01            NaN
         13   -1    0    0    0    0  0.00000000000E+00  0.00000000000E+00  0.74505805969E-08  0.10566000000E+00  0.10566000000E+00 0.  1.
     999900   -1    0    0    0    0 -0.00000000000E+00 -0.00000000000E+00 -0.74505805969E-08  0.93827000000E+00  0.93827000000E+00 0.  1.
     999902    2    1    2    0    0 -0.21966055973E-01  0.17621127710E-02 -0.33986411392E-02  0.10216328383E+01  0.10213894913E+01 0.  0.
     999903    2    3    3    0    0 -0.29396376075E-01 -0.31864197807E-01 -0.12387905565E+00  0.13275631784E+00  0.19968612095E-01 0.  0.
         14    1    1    2    0    0  0.21966055973E-01 -0.17621127710E-02  0.33986411392E-02  0.22297161658E-01  0.00000000000E+00 0. -1.
     999901    1    3    3    0    0  0.74303201027E-02  0.33626310578E-01  0.12048041451E+00  0.88887652050E+00  0.88000000000E+00 0. -1.
        -11    1    4    4    0    0 -0.25011908392E-01 -0.14723070196E-01 -0.89475697216E-01  0.94066603375E-01  0.51100000000E-03 0.  1.
         11    1    4    4    0    0 -0.43844676836E-02 -0.17141127611E-01 -0.34403358436E-01  0.38689714464E-01  0.51100000000E-03 0. -1.
</event>
<event>
 8    1  0.1123285E+005  0.1043930E+01  0.7957747E-01            NaN
         13   -1    0    0    0    0  0.00000000000E+00  0.00000000000E+00  0.74505805969E-08  0.10566000000E+00  0.10566000000E+00 0. -1.
     999900   -1    0    0    0    0 -0.00000000000E+00 -0.00000000000E+00 -0.74505805969E-08  0.93827000000E+00  0.93827000000E+00 0. -1.
     999902    2    1    2    0    0 -0.28437091747E-02  0.17255104819E-01  0.15816525569E-01  0.10203506063E+01  0.10200781206E+01 0.  0.
     999903    2    3    3    0    0 -0.80029831693E-01  0.10875193576E-01  0.10322493249E+00  0.13263520692E+00  0.20338820734E-01 0.  0.
         14    1    1    2    0    0  0.28437091747E-02 -0.17255104819E-01 -0.15816525569E-01  0.23579393658E-01  0.00000000000E+00 0.  1.
     999901    1    3    3    0    0  0.77186122519E-01  0.63799112433E-02 -0.87408406926E-01  0.88771539943E+00  0.88000000000E+00 0.  1.
        -11    1    4    4    0    0 -0.61197161593E-01  0.14891874392E-01  0.69481790034E-01  0.93780812415E-01  0.51100000000E-03 0. -1.
         11    1    4    4    0    0 -0.18832670101E-01 -0.40166808155E-02  0.33743142461E-01  0.38854394501E-01  0.51100000000E-03 0.  1.
</event>
<event>
 8    1  0.1123285E+005  0.1043930E+01  0.7957747E-01            NaN
         13   -1    0    0    0    0  0.00000000000E+00  0.00000000000E+00  0.74505805969E-08  0.10566000000E+00  0.10566000000E+00 0.  1.
     999900   -1    0    0    0    0 -0.00000000000E+00 -0.00000000000E+00 -0.74505805969E-08  0.93827000000E+00  0.93827000000E+00 0.  1.
     999902    2    1    2    0    0  0.12785751363E-01 -0.18164443875E-01 -0.56176190153E-02  0.10210175557E+01  0.10207604366E+01 0.  0.
     999903    2    3    3    0    0 -0.44106433832E-01  0.11314984461E+00  0.37565631219E-01  0.12841184423E+00  0.18170312297E-01 0.  0.
         14    1    1    2    0    0 -0.12785751363E-01  0.18164443875E-01  0.56176190153E-02  0.22912444274E-01  0.00000000000E+00 0.  1.
     999901    1    3    3    0    0  0.56892185195E-01 -0.13131428848E+00 -0.43183250234E-01  0.89260571150E+00  0.88000000000E+00 0.  1.
        -11    1    4    4    0    0 -0.34806583535E-01  0.69969493117E-01  0.18564759073E-01  0.80325211639E-01  0.51100000000E-03 0. -1.
         11    1    4    4    0    0 -0.92998502972E-02  0.43180351493E-01  0.19000872146E-01  0.48086632590E-01  0.51100000000E-03 0.  1.
</event>
<event>
 8    1  0.1123285E+005  0.1043930E+01  0.7957747E-01            NaN
         13   -1    0    0    0    0  0.00000000000E+00  0.00000000000E+00  0.74505805969E-08  0.10566000000E+00  0.10566000000E+00 0. -1.
     999900   -1    0    0    0    0 -0.00000000000E+00 -0.00000000000E+00 -0.74505805969E-08  0.93827000000E+00  0.93827000000E+00 0.  1.
     999902    2    1    2    0    0  0.23897054824E-01  0.33307029611E-02  0.42040075052E-02  0.10194384404E+01  0.10191441985E+01 0.  0.
     999903    2    3    3    0    0  0.11798766539E+00  0.43922122668E-01  0.37506075222E-01  0.13286654031E+00  0.19914060647E-01 0.  0.
         14    1    1    2    0    0 -0.23897054824E-01 -0.33307029611E-02 -0.42040075052E-02  0.24491559579E-01  0.00000000000E+00 0. -1.
     999901    1    3    3    0    0 -0.94090610567E-01 -0.40591419707E-01 -0.33302067717E-01  0.88657190011E+00  0.88000000000E+00 0. -1.
        -11    1    4    4    0    0  0.55328887424E-01  0.13413155228E-01  0.93314039994E-02  0.57693454900E-01  0.51100000000E-03 0.  1.
         11    1    4    4    0    0  0.62658777968E-01  0.30508967440E-01  0.28174671223E-01  0.75173085411E-01  0.51100000000E-03 0. -1.
</event>
<event>
 8    1  0.1123285E+005  0.1043930E+01  0.7957747E-01            NaN
         13   -1    0    0    0    0  0.00000000000E+00  0.00000000000E+00  0.74505805969E-08  0.10566000000E+00  0.10566000000E+00 0.  1.
     999900   -1    0    0    0    0 -0.00000000000E+00 -0.00000000000E+00 -0.74505805969E-08  0.93827000000E+00  0.93827000000E+00 0.  1.
     999902    2    1    2    0    0 -0.88657024997E-02 -0.69923859676E-02  0.20371286323E-01  0.10206387259E+01  0.10203729345E+01 0.  0.
     999903    2    3    3    0    0 -0.57091367617E-01  0.10237657244E+00 -0.51143805691E-01  0.12968323194E+00  0.21486389771E-01 0.  0.
         14    1    1    2    0    0  0.88657024997E-02  0.69923859676E-02 -0.20371286323E-01  0.23291274091E-01  0.00000000000E+00 0. -1.
     999901    1    3    3    0    0  0.48225665118E-01 -0.10936895841E+00  0.71515092014E-01  0.89095549396E+00  0.88000000000E+00 0.  1.
        -11    1    4    4    0    0 -0.12698887975E-01  0.31147093069E-01 -0.24525854645E-01  0.41631500447E-01  0.51100000000E-03 0.  1.
         11    1    4    4    0    0 -0.44392479643E-01  0.71229479374E-01 -0.26617951046E-01  0.88051731497E-01  0.51100000000E-03 0. -1.
</event>
<event>
 8    1  0.1123285E+005  0.1043930E+01  0.7957747E-01            NaN
         13   -1    0    0    0    0  0.00000000000E+00  0.00000000000E+00  0.74505805969E-08  0.10566000000E+00  0.10566000000E+00 0. -1.
     999900   -1    0    0    0    0 -0.00000000000E+00 -0.00000000000E+00 -0.74505805969E-08  0.93827000000E+00  0.93827000000E+00 0.  1.
     999902    2    1    2    0    0 -0.13604030773E-01 -0.19718869380E-01  0.45214816709E-03  0.10199694512E+01  0.10196879784E+01 0.  0.
     999903    2    3    3    0    0 -0.73429296557E-01 -0.10192638132E+00  0.39563762003E-01  0.13325255396E+00  0.20251001691E-01 0.  0.
         14    1    1    2    0    0  0.13604030773E-01  0.19718869380E-01 -0.45214816709E-03  0.23960548843E-01  0.00000000000E+00 0. -1.
     999901    1    3    3    0    0  0.59825265784E-01  0.82207511942E-01 -0.39111613836E-01  0.88671689720E+00  0.88000000000E+00 0.  1.
        -11    1    4    4    0    0 -0.32226355945E-01 -0.36545703991E-01  0.24404344144E-01  0.54497336007E-01  0.51100000000E-03 0.  1.
         11    1    4    4    0    0 -0.41202940612E-01 -0.65380677331E-01  0.15159417859E-01  0.78755217948E-01  0.51100000000E-03 0. -1.
</event>
<event>
 8    1  0.1123285E+005  0.1043930E+01  0.7957747E-01            NaN
         13   -1    0    0    0    0  0.00000000000E+00  0.00000000000E+00  0.74505805969E-08  0.10566000000E+00  0.10566000000E+00 0.  1.
     999900   -1    0    0    0    0 -0.00000000000E+00 -0.00000000000E+00 -0.74505805969E-08  0.93827000000E+00  0.93827000000E+00 0. -1.
     999902    2    1    2    0    0 -0.12083751798E-01  0.11917657985E-02  0.21233275371E-01  0.10194700461E+01  0.10191765723E+01 0.  0.
     999903    2    3    3    0    0  0.22034069438E-01 -0.12215185652E+00  0.32533866777E-01  0.13014143512E+00  0.21720137632E-01 0.  0.
         14    1    1    2    0    0  0.12083751798E-01 -0.11917657985E-02 -0.21233275371E-01  0.24459953929E-01  0.00000000000E+00 0. -1.
     999901    1    3    3    0    0 -0.34117821237E-01  0.12334362232E+00 -0.11300591406E-01  0.88932861095E+00  0.88000000000E+00 0. -1.
        -11    1    4    4    0    0  0.11684819886E-01 -0.32160616572E-01  0.17079733794E-01  0.38246812959E-01  0.51100000000E-03 0. -1.
         11    1    4    4    0    0  0.10349249553E-01 -0.89991239952E-01  0.15454132983E-01  0.91894622158E-01  0.51100000000E-03 0.  1.
</event>
<event>
 8    1  0.1123285E+005  0.1043930E+01  0.7957747E-01            NaN
         13   -1    0    0    0    0  0.00000000000E+00  0.00000000000E+00  0.74505805969E-08  0.10566000000E+00  0.10566000000E+00 0.  1.
     999900   -1    0    0    0    0 -0.00000000000E+00 -0.00000000000E+00 -0.74505805969E-08  0.93827000000E+00  0.93827000000E+00 0. -1.
     999902    2    1    2    0    0  0.23054308592E-01 -0.42528179429E-02  0.41868583123E-02  0.10201157734E+01  0.10198377684E+01 0.  0.
     999903    2    3    3    0    0 -0.81362990655E-01  0.96055068951E-01 -0.12664146088E-01  0.12812440524E+00  0.20223009240E-01 0.  0.
         14    1    1    2    0    0 -0.23054308592E-01  0.42528179429E-02 -0.41868583123E-02  0.23814226581E-01  0.00000000000E+00 0.  1.
     999901    1    3    3    0    0  0.10441729925E+00 -0.10030788689E+00  0.16851004401E-01  0.89199136818E+00  0.88000000000E+00 0.  1.
        -11    1    4    4    0    0 -0.20733552506E-01  0.14444980728E-01 -0.73325618339E-02  0.26316634508E-01  0.51100000000E-03 0. -1.
         11    1    4    4    0    0 -0.60629438148E-01  0.81610088224E-01 -0.53315842546E-02  0.10180777073E+00  0.51100000000E-03 0.  1.
</event>
<event>
 8    1  0.1123285E+005  0.1043930E+01  0.7957747E-01            NaN
         13   -1    0    0    0    0  0.00000000000E+00  0.00000000000E+00  0.74505805969E-08  0.10566000000E+00  0.10566000000E+00 0.  1.
     999900   -1    0    0    0    0 -0.00000000000E+00 -0.00000000000E+00 -0.74505805969E-08  0.93827000000E+00  0.93827000000E+00 0. -1.
     999902    2    1    2    0    0  0.13949722349E-01 -0.22013526759E-02 -0.19668149731E-01  0.10197168461E+01  0.10194293352E+01 0.  0.
     999903    2    3    3    0    0 -0.14712696465E-01 -0.12762183568E+00 -0.88395321032E-02  0.13029619717E+00  0.19878764792E-01 0.  0.
         14    1    1    2    0    0 -0.13949722349E-01  0.22013526759E-02  0.19668149731E-01  0.24213153885E-01  0.00000000000E+00 0.  1.
     999901    1    3    3    0    0  0.28662418814E-01  0.12542048300E+00 -0.10828617628E-01  0.88942064894E+00  0.88000000000E+00 0. -1.
        -11    1    4    4    0    0 -0.98204868685E-02 -0.53661259297E-01 -0.12906371214E-01  0.56060754995E-01  0.51100000000E-03 0. -1.
         11    1    4    4    0    0 -0.48922095968E-02 -0.73960576383E-01  0.40668391110E-02  0.74235442175E-01  0.51100000000E-03 0.  1.
</event>
<event>
 8    1  0.1123285E+005  0.1043930E+01  0.7957747E-01            NaN
         13   -1    0    0    0    0  0.00000000000E+00  0.00000000000E+00  0.74505805969E-08  0.10566000000E+00  0.10566000000E+00 0.  1.
     999900   -1    0    0    0    0 -0.00000000000E+00 -0.00000000000E+00 -0.74505805969E-08  0.93827000000E+00  0.93827000000E+00 0. -1.
     999902    2    1    2    0    0 -0.55206794363E-03 -0.17266508598E-02  0.23604728308E-01  0.10202557672E+01  0.10199810592E+01 0.  0.
     999903    2    3    3    0    0  0.12595243588E+00  0.24553860973E-01 -0.97391991901E-02  0.13019629033E+00  0.19731037013E-01 0.  0.
         14    1    1    2    0    0  0.55206794363E-03  0.17266508598E-02 -0.23604728308E-01  0.23674232843E-01  0.00000000000E+00 0. -1.
     999901    1    3    3    0    0 -0.12650450382E+00 -0.26280511833E-01  0.33343927498E-01  0.89005947683E+00  0.88000000000E+00 0. -1.
        -11    1    4    4    0    0  0.20412810903E-01  0.59568727672E-02 -0.88174185606E-02  0.23025533071E-01  0.51100000000E-03 0.  1.
         11    1    4    4    0    0  0.10553962498E+00  0.18596988206E-01 -0.92178062943E-03  0.10717075726E+00  0.51100000000E-03 0. -1.
</event>
<event>
 8    1  0.1123285E+005  0.1043930E+01  0.7957747E-01            NaN
         13   -1    0    0    0    0  0.00000000000E+00  0.00000000000E+00  0.74505805969E-08  0.10566000000E+00  0.10566000000E+00 0.  1.
     999900   -1    0    0    0    0 -0.00000000000E+00 -0.00000000000E+00 -0.74505805969E-08  0.93827000000E+00  0.93827000000E+00 0.  1.
     999902    2    1    2    0    0 -0.45970415483E-03 -0.25630225086E-01  0.78429471107E-02  0.10171226953E+01  0.10167693670E+01 0.  0.
     999903    2    3    3    0    0 -0.10563108365E+00 -0.60328760342E-01 -0.38203596593E-01  0.12898684330E+00  0.19509120839E-01 0.  0.
         14    1    1    2    0    0  0.45970415483E-03  0.25630225086E-01 -0.78429471107E-02  0.26807304699E-01  0.00000000000E+00 0. -1.
     999901    1    3    3    0    0  0.10517137949E+00  0.34698535257E-01  0.46046543704E-01  0.88813585200E+00  0.88000000000E+00 0. -1.
        -11    1    4    4    0    0 -0.13887074735E-01 -0.10846408069E-01  0.90888337613E-03  0.17651702544E-01  0.51100000000E-03 0. -1.
         11    1    4    4    0    0 -0.91744008913E-01 -0.49482352274E-01 -0.39112479969E-01  0.11133514076E+00  0.51100000000E-03 0.  1.
</event>
<event>
 8    1  0.1123285E+005  0.1043930E+01  0.7957747E-01            NaN
         13   -1    0    0    0    0  0.00000000000E+00  0.00000000000E+00  0.74505805969E-08  0.10566000000E+00  0.10566000000E+00 0.  1.
     999900   -1    0    0    0    0 -0.00000000000E+00 -0.00000000000E+00 -0.74505805969E-08  0.93827000000E+00  0.93827000000E+00 0.  1.
     999902    2    1    2    0    0 -0.18857062149E-01  0.77485356490E-02 -0.10622429019E-01  0.10209416422E+01  0.10206827970E+01 0.  0.
     999903    2    3    3    0    0  0.11635382137E-01 -0.12663850567E+00 -0.19276264197E-01  0.13017536817E+00  0.20033943168E-01 0.  0.
         14    1    1    2    0    0  0.18857062149E-01 -0.77485356490E-02  0.10622429019E-01  0.22988357833E-01  0.00000000000E+00 0.  1.
     999901    1    3    3    0    0 -0.30492444286E-01  0.13438704132E+00  0.86538351775E-02  0.89076627400E+00  0.88000000000E+00 0. -1.
        -11    1    4    4    0    0  0.11589434215E-01 -0.31034853369E-01 -0.53554315344E-02  0.33562164367E-01  0.51100000000E-03 0.  1.
         11    1    4    4    0    0  0.45947922217E-04 -0.95603652306E-01 -0.13920832662E-01  0.96613203800E-01  0.51100000000E-03 0. -1.
</event>
<event>
 8    1  0.1123285E+005  0.1043930E+01  0.7957747E-01            NaN
         13   -1    0    0    0    0  0.00000000000E+00  0.00000000000E+00  0.74505805969E-08  0.10566000000E+00  0.10566000000E+00 0. -1.
     999900   -1    0    0    0    0 -0.00000000000E+00 -0.00000000000E+00 -0.74505805969E-08  0.93827000000E+00  0.93827000000E+00 0.  1.
     999902    2    1    2    0    0 -0.17346861286E-01  0.74478791843E-03 -0.16349107770E-01  0.10200812761E+01  0.10198024555E+01 0.  0.
     999903    2    3    3    0    0 -0.10049190720E+00  0.63843729207E-01 -0.55825803221E-01  0.13303393549E+00  0.20170833268E-01 0.  0.
         14    1    1    2    0    0  0.17346861286E-01 -0.74478791843E-03  0.16349107770E-01  0.23848723873E-01  0.00000000000E+00 0.  1.
     999901    1    3    3    0    0  0.83145045912E-01 -0.63098941289E-01  0.39476695451E-01  0.88704734064E+00  0.88000000000E+00 0. -1.
        -11    1    4    4    0    0 -0.56677695768E-01  0.47429090097E-01 -0.36164525231E-01  0.82280093529E-01  0.51100000000E-03 0. -1.
         11    1    4    4    0    0 -0.43814211430E-01  0.16414639110E-01 -0.19661277989E-01  0.50753841958E-01  0.51100000000E-03 0.  1.
</event>
<event>
 8    1  0.1123285E+005  0.1043930E+01  0.7957747E-01            NaN
         13   -1    0    0    0    0  0.00000000000E+00  0.00000000000E+00  0.74505805969E-08  0.10566000000E+00  0.10566000000E+00 0. -1.
     999900   -1    0    0    0    0 -0.00000000000E+00 -0.00000000000E+00 -0.74505805969E-08  0.93827000000E+00  0.93827000000E+00 0.  1.
     999902    2    1    2    0    0  0.82168941969E-02  0.21129755630E-01  0.89251514375E-02  0.10195652252E+01  0.10192740584E+01 0.  0.
     999903    2    3    3    0    0  0.64820738495E-01  0.10635336800E+00 -0.40087490153E-01  0.13228325291E+00  0.19470108124E-01 0.  0.
         14    1    1    2    0    0 -0.82168941969E-02 -0.21129755630E-01 -0.89251514375E-02  0.24364774808E-01  0.00000000000E+00 0. -1.
     999901    1    3    3    0    0 -0.56603844298E-01 -0.85223612372E-01  0.49012641591E-01  0.88728197228E+00  0.88000000000E+00 0. -1.
        -11    1    4    4    0    0  0.51111122547E-01  0.87493786830E-01 -0.24555421942E-01  0.10426283830E+00  0.51100000000E-03 0. -1.
         11    1    4    4    0    0  0.13709615947E-01  0.18859581172E-01 -0.15532068211E-01  0.28020414617E-01  0.51100000000E-03 0.  1.
</event>
<event>
 8    1  0.1123285E+005  0.1043930E+01  0.7957747E-01            NaN
         13   -1    0    0    0    0  0.00000000000E+00  0.00000000000E+00  0.74505805969E-08  0.10566000000E+00  0.10566000000E+00 0. -1.
     999900   -1    0    0    0    0 -0.00000000000E+00 -0.00000000000E+00 -0.74505805969E-08  0.93827000000E+00  0.93827000000E+00 0.  1.
     999902    2    1    2    0    0 -0.20300850294E-01 -0.32737038923E-02 -0.11685290694E-01  0.10202786221E+01  0.10200044505E+01 0.  0.
     999903    2    3    3    0    0 -0.60080088296E-01 -0.26887244869E-01 -0.11426716925E+00  0.13311289408E+00  0.18152566097E-01 0.  0.
         14    1    1    2    0    0  0.20300850294E-01  0.32737038923E-02  0.11685290694E-01  0.23651377939E-01  0.00000000000E+00 0.  1.
     999901    1    3    3    0    0  0.39779238002E-01  0.23613540976E-01  0.10258187856E+00  0.88716572798E+00  0.88000000000E+00 0. -1.
        -11    1    4    4    0    0 -0.47968593595E-02 -0.87960817087E-02 -0.14659333855E-01  0.17763392221E-01  0.51100000000E-03 0. -1.
         11    1    4    4    0    0 -0.55283228937E-01 -0.18091163160E-01 -0.99607835395E-01  0.11534950186E+00  0.51100000000E-03 0.  1.
</event>
<event>
 8    1  0.1123285E+005  0.1043930E+01  0.7957747E-01            NaN
         13   -1    0    0    0    0  0.00000000000E+00  0.00000000000E+00  0.74505805969E-08  0.10566000000E+00  0.10566000000E+00 0.  1.
     999900   -1    0    0    0    0 -0.00000000000E+00 -0.00000000000E+00 -0.74505805969E-08  0.93827000000E+00  0.93827000000E+00 0. -1.
     999902    2    1    2    0    0  0.10464903599E-02 -0.21776042788E-01 -0.10243310312E-01  0.10198423146E+01  0.10195578110E+01 0.  0.
     999903    2    3    3    0    0 -0.71195466406E-01  0.10474720102E+00 -0.14692959653E-02  0.12781988503E+00  0.17175378295E-01 0.  0.
         14    1    1    2    0    0 -0.10464903599E-02  0.21776042788E-01  0.10243310312E-01  0.24087685396E-01  0.00000000000E+00 0. -1.
     999901    1    3    3    0    0  0.72241956766E-01 -0.12652324381E+00 -0.87740143465E-02  0.89202242958E+00  0.88000000000E+00 0. -1.
        -11    1    4    4    0    0 -0.19059173619E-01  0.42376705665E-01  0.11905332630E-02  0.46483500002E-01  0.51100000000E-03 0. -1.
         11    1    4    4    0    0 -0.52136292787E-01  0.62370495355E-01 -0.26598292283E-02  0.81336385025E-01  0.51100000000E-03 0.  1.
</event>
<event>
 8    1  0.1123285E+005  0.1043930E+01  0.7957747E-01            NaN
         13   -1    0    0    0    0  0.00000000000E+00  0.00000000000E+00  0.74505805969E-08  0.10566000000E+00  0.10566000000E+00 0.  1.
     999900   -1    0    0    0    0 -0.00000000000E+00 -0.00000000000E+00 -0.74505805969E-08  0.93827000000E+00  0.93827000000E+00 0.  1.
     999902    2    1    2    0    0  0.17591766663E-01  0.15315782770E-01 -0.67863005865E-02  0.10196380809E+01  0.10193486738E+01 0.  0.
     999903    2    3    3    0    0  0.87993918292E-01 -0.80164160303E-01 -0.49426837045E-01  0.13065489896E+00  0.21411869344E-01 0.  0.
         14    1    1    2    0    0 -0.17591766663E-01 -0.15315782770E-01  0.67863005865E-02  0.24291919065E-01  0.00000000000E+00 0. -1.
     999901    1    3    3    0    0 -0.70402151629E-01  0.95479943073E-01  0.42640536458E-01  0.88898318197E+00  0.88000000000E+00 0. -1.
        -11    1    4    4    0    0  0.39388096387E-02 -0.11359954885E-01 -0.77202823236E-02  0.14297785721E-01  0.51100000000E-03 0. -1.
         11    1    4    4    0    0  0.84055108654E-01 -0.68804205418E-01 -0.41706554721E-01  0.11635711324E+00  0.51100000000E-03 0.  1.
</event>
<event>
 8    1  0.1123285E+005  0.1043930E+01  0.7957747E-01            NaN
         13   -1    0    0    0    0  0.00000000000E+00  0.00000000000E+00  0.74505805969E-08  0.10566000000E+00  0.10566000000E+00 0. -1.
     999900   -1    0    0    0    0 -0.00000000000E+00 -0.00000000000E+00 -0.74505805969E-08  0.93827000000E+00  0.93827000000E+00 0. -1.
     999902    2    1    2    0    0 -0.21211569606E-01  0.13306468172E-01 -0.12169413746E-02  0.10188606217E+01  0.10185521552E+01 0.  0.
     999903    2    3    3    0    0 -0.38983233118E-01 -0.95218908737E-01  0.75318072586E-01  0.12871951055E+00  0.17594524511E-01 0.  0.
         14    1    1    2    0    0  0.21211569606E-01 -0.13306468172E-01  0.12169413746E-02  0.25069378266E-01  0.00000000000E+00 0. -1.
     999901    1    3    3    0    0  0.17771663512E-01  0.10852537691E+00 -0.76535013961E-01  0.89014111118E+00  0.88000000000E+00 0. -1.
        -11    1    4    4    0    0 -0.86054180337E-02 -0.27857803383E-01  0.30965843990E-01  0.42535338765E-01  0.51100000000E-03 0. -1.
         11    1    4    4    0    0 -0.30377815085E-01 -0.67361105353E-01  0.44352228596E-01  0.86184171785E-01  0.51100000000E-03 0.  1.
</event>
<event>
 8    1  0.1123285E+005  0.1043930E+01  0.7957747E-01            NaN
         13   -1    0    0    0    0  0.00000000000E+00  0.00000000000E+00  0.74505805969E-08  0.10566000000E+00  0.10566000000E+00 0.  1.
     999900   -1    0    0    0    0 -0.00000000000E+00 -0.00000000000E+00 -0.74505805969E-08  0.93827000000E+00  0.93827000000E+00 0. -1.
     999902    2    1    2    0    0  0.87964762038E-02 -0.68548589976E-02 -0.20562709033E-01  0.10205378627E+01  0.10202697374E+01 0.  0.
     999903    2    3    3    0    0 -0.85284355367E-01 -0.69594682626E-01  0.64731643697E-01  0.12921153919E+00  0.19712814233E-01 0.  0.
         14    1    1    2    0    0 -0.87964762038E-02  0.68548589976E-02  0.20562709033E-01  0.23392137317E-01  0.00000000000E+00 0.  1.
     999901    1    3    3    0    0  0.94080831571E-01  0.62739823628E-01 -0.85294352730E-01  0.89132632349E+00  0.88000000000E+00 0. -1.
        -11    1    4    4    0    0 -0.27228258369E-01 -0.12536583103E-01  0.22654622023E-01  0.37577080644E-01  0.51100000000E-03 0. -1.
         11    1    4    4    0    0 -0.58056096999E-01 -0.57058099523E-01  0.42077021674E-01  0.91634458550E-01  0.51100000000E-03 0.  1.
</event>
<event>
 8    1  0.1123285E+005  0.1043930E+01  0.7957747E-01            NaN
         13   -1    0    0    0    0  0.00000000000E+00  0.00000000000E+00  0.74505805969E-08  0.10566000000E+00  0.10566000000E+00 0.  1.
     999900   -1    0    0    0    0 -0.00000000000E+00 -0.00000000000E+00 -0.74505805969E-08  0.93827000000E+00  0.93827000000E+00 0.  1.
     999902    2    1    2    0    0  0.73922281192E-02 -0.19544852280E-01 -0.10945372347E-01  0.10203408613E+01  0.10200681476E+01 0.  0.
     999903    2    3    3    0    0 -0.11203941465E+00  0.34377846771E-01  0.49287130413E-01  0.12860125295E+00  0.19349270084E-01 0.  0.
         14    1    1    2    0    0 -0.73922281192E-02  0.19544852280E-01  0.10945372347E-01  0.23589138667E-01  0.00000000000E+00 0.  1.
     999901    1    3    3    0    0  0.11943164277E+00 -0.53922699051E-01 -0.60232502760E-01  0.89173960838E+00  0.88000000000E+00 0. -1.
        -11    1    4    4    0    0 -0.34680012162E-01  0.14658358808E-01  0.71437308637E-02  0.38325771201E-01  0.51100000000E-03 0. -1.
         11    1    4    4    0    0 -0.77359402488E-01  0.19719487963E-01  0.42143399549E-01  0.90275481751E-01  0.51100000000E-03 0.  1.
</event>
<event>
 8    1  0.1123285E+005  0.1043930E+01  0.7957747E-01            NaN
         13   -1    0    0    0    0  0.00000000000E+00  0.00000000000E+00  0.74505805969E-08  0.10566000000E+00  0.10566000000E+00 0. -1.
     999900   -1    0    0    0    0 -0.00000000000E+00 -0.00000000000E+00 -0.74505805969E-08  0.93827000000E+00  0.93827000000E+00 0. -1.
     999902    2    1    2    0    0  0.38442393685E-03  0.22581786443E-01  0.85391467618E-02  0.10197845680E+01  0.10194986823E+01 0.  0.
     999903    2    3    3    0    0 -0.46038005730E-02  0.12013653159E+00  0.53705490827E-01  0.13322841671E+00  0.20286696934E-01 0.  0.
         14    1    1    2    0    0 -0.38442393685E-03 -0.22581786443E-01 -0.85391467618E-02  0.24145432035E-01  0.00000000000E+00 0.  1.
     999901    1    3    3    0    0  0.49882245099E-02 -0.97554745149E-01 -0.45166344065E-01  0.88655615125E+00  0.88000000000E+00 0. -1.
        -11    1    4    4    0    0  0.78886800876E-02  0.37363218015E-01  0.15663745655E-01  0.41277783164E-01  0.51100000000E-03 0. -1.
         11    1    4    4    0    0 -0.12492480661E-01  0.82773313577E-01  0.38041745172E-01  0.91950633550E-01  0.51100000000E-03 0.  1.
</event>
<event>
 8    1  0.1123285E+005  0.1043930E+01  0.7957747E-01            NaN
         13   -1    0    0    0    0  0.00000000000E+00  0.00000000000E+00  0.74505805969E-08  0.10566000000E+00  0.10566000000E+00 0. -1.
     999900   -1    0    0    0    0 -0.00000000000E+00 -0.00000000000E+00 -0.74505805969E-08  0.93827000000E+00  0.93827000000E+00 0. -1.
     999902    2    1    2    0    0 -0.18192790072E-01 -0.49501840543E-02 -0.14069232989E-01  0.10204050080E+01  0.10201337927E+01 0.  0.
     999903    2    3    3    0    0  0.65931687366E-01 -0.90008488585E-01  0.61315407685E-01  0.12911679033E+00  0.21518617714E-01 0.  0.
         14    1    1    2    0    0  0.18192790072E-01  0.49501840543E-02  0.14069232989E-01  0.23524992023E-01  0.00000000000E+00 0.  1.
     999901    1    3    3    0    0 -0.84124477438E-01  0.85058304531E-01 -0.75384640674E-01  0.89128821765E+00  0.88000000000E+00 0.  1.
        -11    1    4    4    0    0  0.29059995341E-01 -0.29587332669E-01  0.13190436632E-01  0.43521745407E-01  0.51100000000E-03 0.  1.
         11    1    4    4    0    0  0.36871692025E-01 -0.60421155916E-01  0.48124971052E-01  0.85595044920E-01  0.51100000000E-03 0. -1.
</event>
<event>
 8    1  0.1123285E+005  0.1043930E+01  0.7957747E-01            NaN
         13   -1    0    0    0    0  0.00000000000E+00  0.00000000000E+00  0.74505805969E-08  0.10566000000E+00  0.10566000000E+00 0.  1.
     999900   -1    0    0    0    0 -0.00000000000E+00 -0.00000000000E+00 -0.74505805969E-08  0.93827000000E+00  0.93827000000E+00 0. -1.
     999902    2    1    2    0    0 -0.21185162051E-01 -0.90688393102E-02 -0.25762880805E-02  0.10207418091E+01  0.10204783920E+01 0.  0.
     999903    2    3    3    0    0  0.54014036149E-01  0.22765953346E-02  0.11597129669E+00  0.12954196160E+00  0.20225705734E-01 0.  0.
         14    1    1    2    0    0  0.21185162051E-01  0.90688393102E-02  0.25762880805E-02  0.23188190913E-01  0.00000000000E+00 0. -1.
     999901    1    3    3    0    0 -0.75199198200E-01 -0.11345434645E-01 -0.11854758477E+00  0.89119984748E+00  0.88000000000E+00 0. -1.
        -11    1    4    4    0    0  0.32024169131E-01  0.97082547926E-02  0.80125293829E-01  0.86833872722E-01  0.51100000000E-03 0.  1.
         11    1    4    4    0    0  0.21989867017E-01 -0.74316594579E-02  0.35846002863E-01  0.42708088882E-01  0.51100000000E-03 0. -1.
</event>
<event>
 8    1  0.1123285E+005  0.1043930E+01  0.7957747E-01            NaN
         13   -1    0    0    0    0  0.00000000000E+00  0.00000000000E+00  0.74505805969E-08  0.10566000000E+00  0.10566000000E+00 0.  1.
     999900   -1    0    0    0    0 -0.00000000000E+00 -0.00000000000E+00 -0.74505805969E-08  0.93827000000E+00  0.93827000000E+00 0. -1.
     999902    2    1    2    0    0 -0.13952178243E-01 -0.17793458533E-01 -0.12127159032E-01  0.10182718935E+01  0.10179485796E+01 0.  0.
     999903    2    3    3    0    0 -0.31942567161E-01  0.96216851194E-01  0.73256168413E-01  0.12663726123E+00  0.19812109176E-01 0.  0.
         14    1    1    2    0    0  0.13952178243E-01  0.17793458533E-01  0.12127159032E-01  0.25658106525E-01  0.00000000000E+00 0.  1.
     999901    1    3    3    0    0  0.17990388918E-01 -0.11401030973E+00 -0.85383327445E-01  0.89163463225E+00  0.88000000000E+00 0. -1.
        -11    1    4    4    0    0 -0.20608317953E-01  0.64399234118E-01  0.36984357390E-01  0.77071836208E-01  0.51100000000E-03 0. -1.
         11    1    4    4    0    0 -0.11334249208E-01  0.31817617076E-01  0.36271811022E-01  0.49565425020E-01  0.51100000000E-03 0.  1.
</event>
<event>
 8    1  0.1123285E+005  0.1043930E+01  0.7957747E-01            NaN
         13   -1    0    0    0    0  0.00000000000E+00  0.00000000000E+00  0.74505805969E-08  0.10566000000E+00  0.10566000000E+00 0. -1.
     999900   -1    0    0    0    0 -0.00000000000E+00 -0.00000000000E+00 -0.74505805969E-08  0.93827000000E+00  0.93827000000E+00 0. -1.
     999902    2    1    2    0    0  0.25786992163E-03  0.18019579660E-01  0.15752375411E-01  0.10199944808E+01  0.10197136028E+01 0.  0.
     999903    2    3    3    0    0  0.10310736083E+00 -0.53902248891E-01 -0.51076853921E-01  0.12858160615E+00  0.19692743405E-01 0.  0.
         14    1    1    2    0    0 -0.25786992163E-03 -0.18019579660E-01 -0.15752375411E-01  0.23935519194E-01  0.00000000000E+00 0.  1.
     999901    1    3    3    0    0 -0.10284949090E+00  0.71921828551E-01  0.66829229332E-01  0.89141287465E+00  0.88000000000E+00 0.  1.
        -11    1    4    4    0    0  0.82934849133E-02 -0.10380205104E-01 -0.26267113728E-02  0.13553275753E-01  0.51100000000E-03 0.  1.
         11    1    4    4    0    0  0.94813875913E-01 -0.43522043787E-01 -0.48450142549E-01  0.11502833040E+00  0.51100000000E-03 0. -1.
</event>
<event>
 7    1  0.1123285E+005  0.1043930E+01  0.7957747E-01            NaN
         13   -1    0    0    0    0  0.00000000000E+00  0.00000000000E+00  0.74505805969E-08  0.10566000000E+00  0.10566000000E+00 0.  1.
     999900   -1    0    0    0    0 -0.00000000000E+00 -0.00000000000E+00 -0.74505805969E-08  0.93827000000E+00  0.93827000000E+00 0. -1.
     999903    2    1    2    0    0 -0.54819903538E-01  0.66037003689E-01 -0.52385670928E-02  0.88573298419E-01  0.21252739295E-01 0.  0.
         14    1    1    2    0    0 -0.39792754165E-01 -0.16826068434E-01 -0.51357670125E-01  0.67113263545E-01  0.00000000000E+00 0. -1.
     999901    1    1    2    0    0  0.94612657703E-01 -0.49210935255E-01  0.56596237218E-01  0.88824343804E+00  0.88000000000E+00 0.  1.
        -11    1    3    3    0    0 -0.31259581915E-01  0.33454082112E-01 -0.13045125197E-01  0.47610644649E-01  0.51100000000E-03 0. -1.
         11    1    3    3    0    0 -0.23560321623E-01  0.32582921577E-01  0.78065581046E-02  0.40962653771E-01  0.51100000000E-03 0.  1.
</event>
<event>
 8    1  0.1123285E+005  0.1043930E+01  0.7957747E-01            NaN
         13   -1    0    0    0    0  0.00000000000E+00  0.00000000000E+00  0.74505805969E-08  0.10566000000E+00  0.10566000000E+00 0.  1.
     999900   -1    0    0    0    0 -0.00000000000E+00 -0.00000000000E+00 -0.74505805969E-08  0.93827000000E+00  0.93827000000E+00 0.  1.
     999902    2    1    2    0    0 -0.19660261324E-02  0.68730625577E-03 -0.23649419170E-01  0.10201890507E+01  0.10199127739E+01 0.  0.
     999903    2    3    3    0    0  0.47448680059E-01 -0.10100793231E+00 -0.67423914253E-01  0.13187607588E+00  0.19782202818E-01 0.  0.
         14    1    1    2    0    0  0.19660261324E-02 -0.68730625577E-03  0.23649419170E-01  0.23740949343E-01  0.00000000000E+00 0.  1.
     999901    1    3    3    0    0 -0.49414706191E-01  0.10169523856E+00  0.43774495084E-01  0.88831297478E+00  0.88000000000E+00 0. -1.
        -11    1    4    4    0    0  0.35729933195E-01 -0.74401519398E-01 -0.39275044139E-01  0.91405713322E-01  0.51100000000E-03 0. -1.
         11    1    4    4    0    0  0.11718746864E-01 -0.26606412910E-01 -0.28148870114E-01  0.40470362559E-01  0.51100000000E-03 0.  1.
</event>
<event>
 8    1  0.1123285E+005  0.1043930E+01  0.7957747E-01            NaN
         13   -1    0    0    0    0  0.00000000000E+00  0.00000000000E+00  0.74505805969E-08  0.10566000000E+00  0.10566000000E+00 0. -1.
     999900   -1    0    0    0    0 -0.00000000000E+00 -0.00000000000E+00 -0.74505805969E-08  0.93827000000E+00  0.93827000000E+00 0.  1.
     999902    2    1    2    0    0 -0.33746719628E-02 -0.19307240847E-01  0.97067247213E-02  0.10220581353E+01  0.10218240815E+01 0.  0.
     999903    2    3    3    0    0  0.44911264984E-01  0.63280497325E-01 -0.10253757667E+00  0.12978516733E+00  0.17572477488E-01 0.  0.
         14    1    1    2    0    0  0.33746719628E-02  0.19307240847E-01 -0.97067247213E-02  0.21871864685E-01  0.00000000000E+00 0.  1.
     999901    1    3    3    0    0 -0.48285936947E-01 -0.82587738173E-01  0.11224430139E+00  0.89227296799E+00  0.88000000000E+00 0. -1.
        -11    1    4    4    0    0  0.20173127200E-01  0.39901800964E-01 -0.67214082958E-01  0.80728575177E-01  0.51100000000E-03 0.  1.
         11    1    4    4    0    0  0.24738137784E-01  0.23378696362E-01 -0.35323493712E-01  0.49056592152E-01  0.51100000000E-03 0. -1.
</event>
<event>
 8    1  0.1123285E+005  0.1043930E+01  0.7957747E-01            NaN
         13   -1    0    0    0    0  0.00000000000E+00  0.00000000000E+00  0.74505805969E-08  0.10566000000E+00  0.10566000000E+00 0.  1.
     999900   -1    0    0    0    0 -0.00000000000E+00 -0.00000000000E+00 -0.74505805969E-08  0.93827000000E+00  0.93827000000E+00 0.  1.
     999902    2    1    2    0    0 -0.60456161159E-02  0.12423670193E-01  0.18467924779E-01  0.10208657137E+01  0.10206051363E+01 0.  0.
     999903    2    3    3    0    0  0.42364940557E-01 -0.12053497260E+00  0.10508473138E-01  0.12952686932E+00  0.18528736065E-01 0.  0.
         14    1    1    2    0    0  0.60456161159E-02 -0.12423670193E-01 -0.18467924779E-01  0.23064286266E-01  0.00000000000E+00 0. -1.
     999901    1    3    3    0    0 -0.48410556673E-01  0.13295864279E+00  0.79594516415E-02  0.89133884441E+00  0.88000000000E+00 0. -1.
        -11    1    4    4    0    0  0.28357297143E-02 -0.27813191803E-01  0.61775446736E-02  0.28636308779E-01  0.51100000000E-03 0. -1.
         11    1    4    4    0    0  0.39529210843E-01 -0.92721780797E-01  0.43309284644E-02  0.10089056054E+00  0.51100000000E-03 0.  1.
</event>
<event>
 8    1  0.1123285E+005  0.1043930E+01  0.7957747E-01            NaN
         13   -1    0    0    0    0  0.00000000000E+00  0.00000000000E+00  0.74505805969E-08  0.10566000000E+00  0.10566000000E+00 0. -1.
     999900   -1    0    0    0    0 -0.00000000000E+00 -0.00000000000E+00 -0.74505805969E-08  0.93827000000E+00  0.93827000000E+00 0. -1.
     999902    2    1    2    0    0  0.90998902527E-02  0.18854625473E-01  0.11291499249E-01  0.10201433891E+01  0.10198660360E+01 0.  0.
     999903    2    3    3    0    0 -0.75702189768E-01 -0.10056111158E+00 -0.84484266226E-02  0.12781991874E+00  0.20571752831E-01 0.  0.
         14    1    1    2    0    0 -0.90998902527E-02 -0.18854625473E-01 -0.11291499249E-01  0.23786610932E-01  0.00000000000E+00 0. -1.
     999901    1    3    3    0    0  0.84802080020E-01  0.11941573706E+00  0.19739925871E-01  0.89232347033E+00  0.88000000000E+00 0.  1.
        -11    1    4    4    0    0 -0.24926867868E-01 -0.45173717234E-01 -0.10483345469E-01  0.52651449397E-01  0.51100000000E-03 0.  1.
         11    1    4    4    0    0 -0.50775321900E-01 -0.55387394350E-01  0.20349188467E-02  0.75168469338E-01  0.51100000000E-03 0. -1.
</event>
<event>
 8    1  0.1123285E+005  0.1043930E+01  0.7957747E-01            NaN
         13   -1    0    0    0    0  0.00000000000E+00  0.00000000000E+00  0.74505805969E-08  0.10566000000E+00  0.10566000000E+00 0. -1.
     999900   -1    0    0    0    0 -0.00000000000E+00 -0.00000000000E+00 -0.74505805969E-08  0.93827000000E+00  0.93827000000E+00 0.  1.
     999902    2    1    2    0    0 -0.27293898331E-03  0.14928518766E-01 -0.18306185296E-01  0.10203068844E+01  0.10200333754E+01 0.  0.
     999903    2    3    3    0    0 -0.76502246073E-01  0.95663397392E-01 -0.47383594860E-01  0.13285292867E+00  0.20015402542E-01 0.  0.
         14    1    1    2    0    0  0.27293898331E-03 -0.14928518766E-01  0.18306185296E-01  0.23623115550E-01  0.00000000000E+00 0. -1.
     999901    1    3    3    0    0  0.76229307090E-01 -0.80734878626E-01  0.29077409565E-01  0.88745395578E+00  0.88000000000E+00 0.  1.
        -11    1    4    4    0    0 -0.52543402288E-01  0.50188672430E-01 -0.29597177691E-01  0.78459964393E-01  0.51100000000E-03 0. -1.
         11    1    4    4    0    0 -0.23958843785E-01  0.45474724961E-01 -0.17786417170E-01  0.54392964274E-01  0.51100000000E-03 0.  1.
</event>
<event>
 8    1  0.1123285E+005  0.1043930E+01  0.7957747E-01            NaN
         13   -1    0    0    0    0  0.00000000000E+00  0.00000000000E+00  0.74505805969E-08  0.10566000000E+00  0.10566000000E+00 0.  1.
     999900   -1    0    0    0    0 -0.00000000000E+00 -0.00000000000E+00 -0.74505805969E-08  0.93827000000E+00  0.93827000000E+00 0.  1.
     999902    2    1    2    0    0 -0.23430866418E-01  0.75197447260E-03  0.12944756164E-02  0.10204513579E+01  0.10201812227E+01 0.  0.
     999903    2    3    3    0    0 -0.36912332906E-01  0.71896037211E-01 -0.99944570088E-01  0.13169235123E+00  0.28677478885E-01 0.  0.
         14    1    1    2    0    0  0.23430866418E-01 -0.75197447260E-03 -0.12944756164E-02  0.23478642078E-01  0.00000000000E+00 0. -1.
     999901    1    3    3    0    0  0.13481466488E-01 -0.71144062738E-01  0.10123904570E+00  0.88875900669E+00  0.88000000000E+00 0. -1.
        -11    1    4    4    0    0 -0.33984428141E-01  0.74006093440E-01 -0.91485787648E-01  0.12248164632E+00  0.51100000000E-03 0.  1.
         11    1    4    4    0    0 -0.29279047642E-02 -0.21100562286E-02 -0.84587824405E-02  0.92107049118E-02  0.51100000000E-03 0. -1.
</event>
<event>
 8    1  0.1123285E+005  0.1043930E+01  0.7957747E-01            NaN
         13   -1    0    0    0    0  0.00000000000E+00  0.00000000000E+00  0.74505805969E-08  0.10566000000E+00  0.10566000000E+00 0. -1.
     999900   -1    0    0    0    0 -0.00000000000E+00 -0.00000000000E+00 -0.74505805969E-08  0.93827000000E+00  0.93827000000E+00 0.  1.
     999902    2    1    2    0    0  0.11269648231E-01 -0.20761827890E-01 -0.21805585624E-02  0.10202063134E+01  0.10199304431E+01 0.  0.
     999903    2    3    3    0    0  0.74818416422E-01 -0.97969615185E-01 -0.47262591004E-01  0.13339636874E+00  0.19104914280E-01 0.  0.
         14    1    1    2    0    0 -0.11269648231E-01  0.20761827890E-01  0.21805585624E-02  0.23723686565E-01  0.00000000000E+00 0. -1.
     999901    1    3    3    0    0 -0.63548768191E-01  0.77207787295E-01  0.45082032441E-01  0.88680994469E+00  0.88000000000E+00 0.  1.
        -11    1    4    4    0    0  0.15929460989E-01 -0.35356793409E-01 -0.15165391346E-01  0.41642535745E-01  0.51100000000E-03 0.  1.
         11    1    4    4    0    0  0.58888955433E-01 -0.62612821776E-01 -0.32097199658E-01  0.91753832997E-01  0.51100000000E-03 0. -1.
</event>
<event>
 8    1  0.1123285E+005  0.1043930E+01  0.7957747E-01            NaN
         13   -1    0    0    0    0  0.00000000000E+00  0.00000000000E+00  0.74505805969E-08  0.10566000000E+00  0.10566000000E+00 0. -1.
     999900   -1    0    0    0    0 -0.00000000000E+00 -0.00000000000E+00 -0.74505805969E-08  0.93827000000E+00  0.93827000000E+00 0.  1.
     999902    2    1    2    0    0 -0.16243629396E-01  0.15989751048E-01 -0.53947713425E-02  0.10205071225E+01  0.10202382838E+01 0.  0.
     999903    2    3    3    0    0 -0.10131098447E+00 -0.74462217902E-01  0.31236618593E-01  0.13103544089E+00  0.19647466974E-01 0.  0.
         14    1    1    2    0    0  0.16243629396E-01 -0.15989751048E-01  0.53947713425E-02  0.23422877542E-01  0.00000000000E+00 0. -1.
     999901    1    3    3    0    0  0.85067355074E-01  0.90451968950E-01 -0.36631389936E-01  0.88947168157E+00  0.88000000000E+00 0. -1.
        -11    1    4    4    0    0 -0.49049383437E-01 -0.46661781312E-01  0.11752949808E-01  0.68713585272E-01  0.51100000000E-03 0. -1.
         11    1    4    4    0    0 -0.52261601033E-01 -0.27800436590E-01  0.19483668785E-01  0.62321855616E-01  0.51100000000E-03 0.  1.
</event>
<event>
 8    1  0.1123285E+005  0.1043930E+01  0.7957747E-01            NaN
         13   -1    0    0    0    0  0.00000000000E+00  0.00000000000E+00  0.74505805969E-08  0.10566000000E+00  0.10566000000E+00 0.  1.
     999900   -1    0    0    0    0 -0.00000000000E+00 -0.00000000000E+00 -0.74505805969E-08  0.93827000000E+00  0.93827000000E+00 0. -1.
     999902    2    1    2    0    0 -0.25936297555E-01  0.12087959170E-01 -0.17338946662E-01  0.10104718267E+01  0.10099177507E+01 0.  0.
     999903    2    3    3    0    0 -0.96719609866E-01 -0.67192560329E-01  0.28183950251E-01  0.12290886433E+00  0.21041168739E-01 0.  0.
         14    1    1    2    0    0  0.25936297555E-01 -0.12087959170E-01  0.17338946662E-01  0.33458173278E-01  0.00000000000E+00 0. -1.
     999901    1    3    3    0    0  0.70783312310E-01  0.79280519499E-01 -0.45522896912E-01  0.88756296240E+00  0.88000000000E+00 0.  1.
        -11    1    4    4    0    0 -0.30129101762E-01 -0.18188645632E-01  0.18212146750E-01  0.39629950961E-01  0.51100000000E-03 0.  1.
         11    1    4    4    0    0 -0.66590508104E-01 -0.49003914697E-01  0.99718035004E-02  0.83278913365E-01  0.51100000000E-03 0. -1.
</event>
<event>
 8    1  0.1234693E+005  0.1043930E+01  0.7957747E-01            NaN
         13   -1    0    0    0    0  0.00000000000E+00  0.00000000000E+00  0.74505805969E-08  0.10566000000E+00  0.10566000000E+00 0. -1.
     999900   -1    0    0    0    0 -0.00000000000E+00 -0.00000000000E+00 -0.74505805969E-08  0.93827000000E+00  0.93827000000E+00 0.  1.
     999902    2    1    2    0    0  0.61133980420E-02  0.11173333296E-01  0.21288951887E-01  0.10191220076E+01  0.10188200184E+01 0.  0.
     999903    2    3    3    0    0  0.70456133310E-01  0.41835342891E-02 -0.10464151339E+00  0.12780426017E+00  0.20062749365E-01 0.  0.
         14    1    1    2    0    0 -0.61133980420E-02 -0.11173333296E-01 -0.21288951887E-01  0.24807992362E-01  0.00000000000E+00 0.  1.
     999901    1    3    3    0    0 -0.64342735268E-01  0.69897990066E-02  0.12593046528E+00  0.89131774747E+00  0.88000000000E+00 0. -1.
        -11    1    4    4    0    0  0.35255636200E-01 -0.73592427978E-02 -0.45733085604E-01  0.58214212855E-01  0.51100000000E-03 0. -1.
         11    1    4    4    0    0  0.35200497109E-01  0.11542777087E-01 -0.58908427787E-01  0.69590047312E-01  0.51100000000E-03 0.  1.
</event>
<event>
 8    1  0.1123285E+005  0.1043930E+01  0.7957747E-01            NaN
         13   -1    0    0    0    0  0.00000000000E+00  0.00000000000E+00  0.74505805969E-08  0.10566000000E+00  0.10566000000E+00 0. -1.
     999900   -1    0    0    0    0 -0.00000000000E+00 -0.00000000000E+00 -0.74505805969E-08  0.93827000000E+00  0.93827000000E+00 0.  1.
     999902    2    1    2    0    0  0.31152132834E-02  0.22475702967E-01  0.89669597930E-02  0.10195318823E+01  0.10192399084E+01 0.  0.
     999903    2    3    3    0    0  0.69737110448E-03 -0.10859835610E+00  0.64741914757E-01  0.12807403110E+00  0.20429210518E-01 0.  0.
         14    1    1    2    0    0 -0.31152132834E-02 -0.22475702967E-01 -0.89669597930E-02  0.24398117665E-01  0.00000000000E+00 0.  1.
     999901    1    3    3    0    0  0.24178421789E-02  0.13107405907E+00 -0.55774954965E-01  0.89145785123E+00  0.88000000000E+00 0. -1.
        -11    1    4    4    0    0 -0.78365974921E-02 -0.85716629586E-01  0.50826059696E-01  0.99961504155E-01  0.51100000000E-03 0. -1.
         11    1    4    4    0    0  0.85339685966E-02 -0.22881726515E-01  0.13915855061E-01  0.28112526948E-01  0.51100000000E-03 0.  1.
</event>
<event>
 8    1  0.1123285E+005  0.1043930E+01  0.7957747E-01            NaN
         13   -1    0    0    0    0  0.00000000000E+00  0.00000000000E+00  0.74505805969E-08  0.10566000000E+00  0.10566000000E+00 0. -1.
     999900   -1    0    0    0    0 -0.00000000000E+00 -0.00000000000E+00 -0.74505805969E-08  0.93827000000E+00  0.93827000000E+00 0. -1.
     999902    2    1    2    0    0  0.20264238405E-01 -0.45141359967E-02 -0.10760985525E-01  0.10205459116E+01  0.10202779729E+01 0.  0.
     999903    2    3    3    0    0 -0.10188627018E+00 -0.76694836388E-01 -0.14897754664E-02  0.12913312527E+00  0.20254249675E-01 0.  0.
         14    1    1    2    0    0 -0.20264238405E-01  0.45141359967E-02  0.10760985525E-01  0.23384088424E-01  0.00000000000E+00 0. -1.
     999901    1    3    3    0    0  0.12215050859E+00  0.72180700391E-01 -0.92712100589E-02  0.89141278631E+00  0.88000000000E+00 0. -1.
        -11    1    4    4    0    0 -0.50503055699E-01 -0.46433388956E-01  0.67256708148E-02  0.68935578723E-01  0.51100000000E-03 0. -1.
         11    1    4    4    0    0 -0.51383214485E-01 -0.30261447432E-01 -0.82154462812E-02  0.60197546545E-01  0.51100000000E-03 0.  1.
</event>
<event>
 8    1  0.1171937E+005  0.1043930E+01  0.7957747E-01            NaN
         13   -1    0    0    0    0  0.00000000000E+00  0.00000000000E+00  0.74505805969E-08  0.10566000000E+00  0.10566000000E+00 0.  1.
     999900   -1    0    0    0    0 -0.00000000000E+00 -0.00000000000E+00 -0.74505805969E-08  0.93827000000E+00  0.93827000000E+00 0.  1.
     999902    2    1    2    0    0  0.28315116893E-02 -0.20326877663E-02 -0.23450793733E-01  0.10202215837E+01  0.10199460725E+01 0.  0.
     999903    2    3    3    0    0  0.30010227457E-01  0.11508208057E-01  0.12191015964E+00  0.12778007567E+00  0.20799233399E-01 0.  0.
         14    1    1    2    0    0 -0.28315116893E-02  0.20326877663E-02  0.23450793733E-01  0.23708416326E-01  0.00000000000E+00 0.  1.
     999901    1    3    3    0    0 -0.27178715768E-01 -0.13540895824E-01 -0.14536095337E+00  0.89244150801E+00  0.88000000000E+00 0.  1.
        -11    1    4    4    0    0  0.75200577234E-02  0.11726533758E-01  0.67096685389E-01  0.68529476674E-01  0.51100000000E-03 0.  1.
         11    1    4    4    0    0  0.22490169734E-01 -0.21832570082E-03  0.54813474248E-01  0.59250598992E-01  0.51100000000E-03 0. -1.
</event>
<event>
 8    1  0.1123285E+005  0.1043930E+01  0.7957747E-01            NaN
         13   -1    0    0    0    0  0.00000000000E+00  0.00000000000E+00  0.74505805969E-08  0.10566000000E+00  0.10566000000E+00 0.  1.
     999900   -1    0    0    0    0 -0.00000000000E+00 -0.00000000000E+00 -0.74505805969E-08  0.93827000000E+00  0.93827000000E+00 0. -1.
     999902    2    1    2    0    0  0.23767210776E-01 -0.52928772463E-02  0.74070517629E-02  0.10184788846E+01  0.10181608317E+01 0.  0.
     999903    2    3    3    0    0  0.10870550462E+00  0.15974663822E-01 -0.68241828911E-01  0.13090377502E+00  0.20168650959E-01 0.  0.
         14    1    1    2    0    0 -0.23767210776E-01  0.52928772463E-02 -0.74070517629E-02  0.25451115367E-01  0.00000000000E+00 0. -1.
     999901    1    3    3    0    0 -0.84938293844E-01 -0.21267541068E-01  0.75648880674E-01  0.88757510962E+00  0.88000000000E+00 0.  1.
        -11    1    4    4    0    0  0.35166923849E-03  0.14524288136E-02 -0.35198507080E-02  0.38579386619E-02  0.51100000000E-03 0. -1.
         11    1    4    4    0    0  0.10835383538E+00  0.14522235008E-01 -0.64721978203E-01  0.12704583635E+00  0.51100000000E-03 0.  1.
</event>
<event>
 8    1  0.1123285E+005  0.1043930E+01  0.7957747E-01            NaN
         13   -1    0    0    0    0  0.00000000000E+00  0.00000000000E+00  0.74505805969E-08  0.10566000000E+00  0.10566000000E+00 0.  1.
     999900   -1    0    0    0    0 -0.00000000000E+00 -0.00000000000E+00 -0.74505805969E-08  0.93827000000E+00  0.93827000000E+00 0. -1.
     999902    2    1    2    0    0 -0.50231575831E-02  0.10848578540E-01  0.21291689980E-01  0.10195115678E+01  0.10192191016E+01 0.  0.
     999903    2    3    3    0    0  0.17154985159E-01 -0.12095643425E+00 -0.32290510980E-01  0.12780787057E+00  0.19168259661E-01 0.  0.
         14    1    1    2    0    0  0.50231575831E-02 -0.10848578540E-01 -0.21291689980E-01  0.24418432191E-01  0.00000000000E+00 0. -1.
     999901    1    3    3    0    0 -0.22178142742E-01  0.13180501279E+00  0.53582200960E-01  0.89170369724E+00  0.88000000000E+00 0.  1.
        -11    1    4    4    0    0 -0.42514967993E-02 -0.19421364668E-01 -0.56314988078E-02  0.20669773352E-01  0.51100000000E-03 0.  1.
         11    1    4    4    0    0  0.21406481959E-01 -0.10153506958E+00 -0.26659012172E-01  0.10713809722E+00  0.51100000000E-03 0. -1.
</event>
<event>
 8    1  0.1123285E+005  0.1043930E+01  0.7957747E-01            NaN
         13   -1    0    0    0    0  0.00000000000E+00  0.00000000000E+00  0.74505805969E-08  0.10566000000E+00  0.10566000000E+00 0. -1.
     999900   -1    0    0    0    0 -0.00000000000E+00 -0.00000000000E+00 -0.74505805969E-08  0.93827000000E+00  0.93827000000E+00 0. -1.
     999902    2    1    2    0    0  0.79683920936E-02 -0.22415797758E-01  0.23470169456E-02  0.10200245247E+01  0.10197443597E+01 0.  0.
     999903    2    3    3    0    0 -0.19058237245E-01 -0.29852528547E-01 -0.12407449956E+00  0.13054819363E+00  0.19848414329E-01 0.  0.
         14    1    1    2    0    0 -0.79683920936E-02  0.22415797758E-01 -0.23470169456E-02  0.23905475319E-01  0.00000000000E+00 0.  1.
     999901    1    3    3    0    0  0.27026629339E-01  0.74367307891E-02  0.12642151651E+00  0.88947633105E+00  0.88000000000E+00 0.  1.
        -11    1    4    4    0    0 -0.53451450507E-02 -0.24115108352E-01 -0.62573130614E-01  0.67273819739E-01  0.51100000000E-03 0.  1.
         11    1    4    4    0    0 -0.13713092195E-01 -0.57374201952E-02 -0.61501368950E-01  0.63274373894E-01  0.51100000000E-03 0. -1.
</event>
<event>
 8    1  0.1123285E+005  0.1043930E+01  0.7957747E-01            NaN
         13   -1    0    0    0    0  0.00000000000E+00  0.00000000000E+00  0.74505805969E-08  0.10566000000E+00  0.10566000000E+00 0.  1.
     999900   -1    0    0    0    0 -0.00000000000E+00 -0.00000000000E+00 -0.74505805969E-08  0.93827000000E+00  0.93827000000E+00 0. -1.
     999902    2    1    2    0    0 -0.18582127403E-02  0.21406217602E-01  0.97221916339E-02  0.10203461047E+01  0.10200735137E+01 0.  0.
     999903    2    3    3    0    0 -0.11418801578E-01  0.12821127640E+00  0.29792491480E-01  0.13360964873E+00  0.19885302583E-01 0.  0.
         14    1    1    2    0    0  0.18582127403E-02 -0.21406217602E-01 -0.97221916339E-02  0.23583895285E-01  0.00000000000E+00 0. -1.
     999901    1    3    3    0    0  0.95605888373E-02 -0.10680505880E+00 -0.20070299846E-01  0.88673645599E+00  0.88000000000E+00 0.  1.
        -11    1    4    4    0    0 -0.53062405535E-02  0.14719005864E-01  0.90257012010E-02  0.18070133525E-01  0.51100000000E-03 0. -1.
         11    1    4    4    0    0 -0.61125610242E-02  0.11349227054E+00  0.20766790279E-01  0.11553951520E+00  0.51100000000E-03 0.  1.
</event>
<event>
 8    1  0.1123285E+005  0.1043930E+01  0.7957747E-01            NaN
         13   -1    0    0    0    0  0.00000000000E+00  0.00000000000E+00  0.74505805969E-08  0.10566000000E+00  0.10566000000E+00 0. -1.
     999900   -1    0    0    0    0 -0.00000000000E+00 -0.00000000000E+00 -0.74505805969E-08  0.93827000000E+00  0.93827000000E+00 0. -1.
     999902    2    1    2    0    0 -0.22432377773E-02  0.62247894658E-02  0.19694490493E-01  0.10231537377E+01  0.10229427735E+01 0.  0.
     999903    2    3    3    0    0  0.18164615122E-01 -0.11756212215E+00 -0.51923717234E-01  0.13137526317E+00  0.20312103655E-01 0.  0.
         14    1    1    2    0    0  0.22432377773E-02 -0.62247894658E-02 -0.19694490493E-01  0.20776262305E-01  0.00000000000E+00 0.  1.
     999901    1    3    3    0    0 -0.20407852899E-01  0.12378691162E+00  0.71618207726E-01  0.89177847452E+00  0.88000000000E+00 0. -1.
        -11    1    4    4    0    0  0.77428383481E-02 -0.65418758819E-01 -0.39339085346E-01  0.76729331471E-01  0.51100000000E-03 0.  1.
         11    1    4    4    0    0  0.10421776774E-01 -0.52143363331E-01 -0.12584631887E-01  0.54645931700E-01  0.51100000000E-03 0. -1.
</event>
<event>
 8    1  0.1123285E+005  0.1043930E+01  0.7957747E-01            NaN
         13   -1    0    0    0    0  0.00000000000E+00  0.00000000000E+00  0.74505805969E-08  0.10566000000E+00  0.10566000000E+00 0.  1.
     999900   -1    0    0    0    0 -0.00000000000E+00 -0.00000000000E+00 -0.74505805969E-08  0.93827000000E+00  0.93827000000E+00 0. -1.
     999902    2    1    2    0    0 -0.37965874221E-02  0.23947141227E-01 -0.81509236861E-03  0.10196700737E+01  0.10193814375E+01 0.  0.
     999903    2    3    3    0    0  0.11674257281E+00 -0.21828607568E-01 -0.46433663379E-01  0.12910499333E+00  0.20166749693E-01 0.  0.
         14    1    1    2    0    0  0.37965874221E-02 -0.23947141227E-01  0.81509236861E-03  0.24259926310E-01  0.00000000000E+00 0. -1.
     999901    1    3    3    0    0 -0.12053916024E+00  0.45775748795E-01  0.45618571011E-01  0.89056508036E+00  0.88000000000E+00 0.  1.
        -11    1    4    4    0    0  0.45603889020E-01 -0.67630794169E-02 -0.28517445682E-01  0.54212173598E-01  0.51100000000E-03 0.  1.
         11    1    4    4    0    0  0.71138683794E-01 -0.15065528151E-01 -0.17916217698E-01  0.74892819736E-01  0.51100000000E-03 0. -1.
</event>
<event>
 8    1  0.1123285E+005  0.1043930E+01  0.7957747E-01            NaN
         13   -1    0    0    0    0  0.00000000000E+00  0.00000000000E+00  0.74505805969E-08  0.10566000000E+00  0.10566000000E+00 0.  1.
     999900   -1    0    0    0    0 -0.00000000000E+00 -0.00000000000E+00 -0.74505805969E-08  0.93827000000E+00  0.93827000000E+00 0. -1.
     999902    2    1    2    0    0 -0.11156454397E-01 -0.21057804152E-01 -0.31059170252E-02  0.10198978484E+01  0.10196146708E+01 0.  0.
     999903    2    3    3    0    0  0.50983523436E-01  0.33200311890E-01  0.11148309870E+00  0.12864257490E+00  0.20465835206E-01 0.  0.
         14    1    1    2    0    0  0.11156454397E-01  0.21057804152E-01  0.31059170252E-02  0.24032151609E-01  0.00000000000E+00 0. -1.
     999901    1    3    3    0    0 -0.62139977832E-01 -0.54258116042E-01 -0.11458901572E+00  0.89125527349E+00  0.88000000000E+00 0.  1.
        -11    1    4    4    0    0  0.84843974997E-02  0.54961806888E-02  0.64614351745E-02  0.12008508176E-01  0.51100000000E-03 0.  1.
         11    1    4    4    0    0  0.42499125936E-01  0.27704131202E-01  0.10502166352E+00  0.11663406672E+00  0.51100000000E-03 0. -1.
</event>
<event>
 8    1  0.1123285E+005  0.1043930E+01  0.7957747E-01            NaN
         13   -1    0    0    0    0  0.00000000000E+00  0.00000000000E+00  0.74505805969E-08  0.10566000000E+00  0.10566000000E+00 0.  1.
     999900   -1    0    0    0    0 -0.00000000000E+00 -0.00000000000E+00 -0.74505805969E-08  0.93827000000E+00  0.93827000000E+00 0. -1.
     999902    2    1    2    0    0 -0.72754198426E-02  0.21597377158E-01 -0.65929276311E-02  0.10202056427E+01  0.10199297565E+01 0.  0.
     999903    2    3    3    0    0 -0.70411628922E-01 -0.10307550218E+00  0.24234375640E-01  0.12864530804E+00  0.19492400578E-01 0.  0.
         14    1    1    2    0    0  0.72754198426E-02 -0.21597377158E-01  0.65929276311E-02  0.23724357289E-01  0.00000000000E+00 0. -1.
     999901    1    3    3    0    0  0.63136209080E-01  0.12467287934E+00 -0.30827303271E-01  0.89156033468E+00  0.88000000000E+00 0.  1.
        -11    1    4    4    0    0 -0.57559923644E-01 -0.70384645444E-01  0.21342096306E-01  0.93396409567E-01  0.51100000000E-03 0.  1.
         11    1    4    4    0    0 -0.12851705278E-01 -0.32690856734E-01  0.28922793337E-02  0.35248898469E-01  0.51100000000E-03 0. -1.
</event>
<event>
 8    1  0.1123285E+005  0.1043930E+01  0.7957747E-01            NaN
         13   -1    0    0    0    0  0.00000000000E+00  0.00000000000E+00  0.74505805969E-08  0.10566000000E+00  0.10566000000E+00 0.  1.
     999900   -1    0    0    0    0 -0.00000000000E+00 -0.00000000000E+00 -0.74505805969E-08  0.93827000000E+00  0.93827000000E+00 0.  1.
     999902    2    1    2    0    0 -0.13900891989E-01  0.28245532173E-02 -0.18858175713E-01  0.10203324643E+01  0.10200595542E+01 0.  0.
     999903    2    3    3    0    0  0.48196409957E-01  0.98835791757E-01  0.64633055374E-01  0.12901601182E+00  0.19398242010E-01 0.  0.
         14    1    1    2    0    0  0.13900891989E-01 -0.28245532173E-02  0.18858175713E-01  0.23597535681E-01  0.00000000000E+00 0. -1.
     999901    1    3    3    0    0 -0.62097301946E-01 -0.96011238539E-01 -0.83491231087E-01  0.89131645250E+00  0.88000000000E+00 0. -1.
        -11    1    4    4    0    0  0.17455140418E-01  0.57806705657E-01  0.35291571905E-01  0.69943214928E-01  0.51100000000E-03 0.  1.
         11    1    4    4    0    0  0.30741269539E-01  0.41029086100E-01  0.29341483469E-01  0.59072796888E-01  0.51100000000E-03 0. -1.
</event>
<event>
 8    1  0.1123285E+005  0.1043930E+01  0.7957747E-01            NaN
         13   -1    0    0    0    0  0.00000000000E+00  0.00000000000E+00  0.74505805969E-08  0.10566000000E+00  0.10566000000E+00 0. -1.
     999900   -1    0    0    0    0 -0.00000000000E+00 -0.00000000000E+00 -0.74505805969E-08  0.93827000000E+00  0.93827000000E+00 0. -1.
     999902    2    1    2    0    0 -0.18909214252E-01  0.13093432936E-01 -0.38177284262E-02  0.10206153818E+01  0.10203490512E+01 0.  0.
     999903    2    3    3    0    0  0.88663773841E-01  0.66067610971E-01 -0.66209763753E-01  0.13029466582E+00  0.19151321439E-01 0.  0.
         14    1    1    2    0    0  0.18909214252E-01 -0.13093432936E-01  0.38177284262E-02  0.23314618161E-01  0.00000000000E+00 0.  1.
     999901    1    3    3    0    0 -0.10757298809E+00 -0.52974178035E-01  0.62392035327E-01  0.89032071602E+00  0.88000000000E+00 0.  1.
        -11    1    4    4    0    0  0.47565852997E-01  0.44598162952E-01 -0.31768688574E-01  0.72532869823E-01  0.51100000000E-03 0.  1.
         11    1    4    4    0    0  0.41097920844E-01  0.21469448020E-01 -0.34441075179E-01  0.57761795994E-01  0.51100000000E-03 0. -1.
</event>
<event>
 8    1  0.1123285E+005  0.1043930E+01  0.7957747E-01            NaN
         13   -1    0    0    0    0  0.00000000000E+00  0.00000000000E+00  0.74505805969E-08  0.10566000000E+00  0.10566000000E+00 0. -1.
     999900   -1    0    0    0    0 -0.00000000000E+00 -0.00000000000E+00 -0.74505805969E-08  0.93827000000E+00  0.93827000000E+00 0. -1.
     999902    2    1    2    0    0  0.21457401261E-01 -0.83148343365E-03  0.11001183960E-01  0.10198024746E+01  0.10195170179E+01 0.  0.
     999903    2    3    3    0    0 -0.81370746759E-01  0.74110441369E-01  0.64323217249E-01  0.12905382354E+00  0.20096197300E-01 0.  0.
         14    1    1    2    0    0 -0.21457401261E-01  0.83148343365E-03 -0.11001183960E-01  0.24127525403E-01  0.00000000000E+00 0.  1.
     999901    1    3    3    0    0  0.10282814802E+00 -0.74941924803E-01 -0.53322033289E-01  0.89074865105E+00  0.88000000000E+00 0. -1.
        -11    1    4    4    0    0 -0.43407664216E-01  0.36453546938E-01  0.44339067649E-01  0.71967356753E-01  0.51100000000E-03 0.  1.
         11    1    4    4    0    0 -0.37963082544E-01  0.37656894431E-01  0.19984149600E-01  0.57086466791E-01  0.51100000000E-03 0. -1.
</event>
<event>
 8    1  0.1123285E+005  0.1043930E+01  0.7957747E-01            NaN
         13   -1    0    0    0    0  0.00000000000E+00  0.00000000000E+00  0.74505805969E-08  0.10566000000E+00  0.10566000000E+00 0. -1.
     999900   -1    0    0    0    0 -0.00000000000E+00 -0.00000000000E+00 -0.74505805969E-08  0.93827000000E+00  0.93827000000E+00 0.  1.
     999902    2    1    2    0    0  0.11193042939E-01 -0.11237070254E-02  0.20285822481E-01  0.10207338468E+01  0.10204702468E+01 0.  0.
     999903    2    3    3    0    0  0.40783707616E-01  0.10972767259E+00 -0.53339495948E-01  0.13023717458E+00  0.20326014698E-01 0.  0.
         14    1    1    2    0    0 -0.11193042939E-01  0.11237070254E-02 -0.20285822481E-01  0.23196153161E-01  0.00000000000E+00 0.  1.
     999901    1    3    3    0    0 -0.29590664676E-01 -0.11085137962E+00  0.73625318429E-01  0.89049667226E+00  0.88000000000E+00 0. -1.
        -11    1    4    4    0    0  0.31529971303E-01  0.63893567308E-01 -0.24747548184E-01  0.75426979893E-01  0.51100000000E-03 0. -1.
         11    1    4    4    0    0  0.92537363126E-02  0.45834105287E-01 -0.28591947764E-01  0.54810194682E-01  0.51100000000E-03 0.  1.
</event>
<event>
 8    1  0.1123285E+005  0.1043930E+01  0.7957747E-01            NaN
         13   -1    0    0    0    0  0.00000000000E+00  0.00000000000E+00  0.74505805969E-08  0.10566000000E+00  0.10566000000E+00 0. -1.
     999900   -1    0    0    0    0 -0.00000000000E+00 -0.00000000000E+00 -0.74505805969E-08  0.93827000000E+00  0.93827000000E+00 0.  1.
     999902    2    1    2    0    0  0.20549413170E-01 -0.90890595360E-02 -0.16815121674E-02  0.10213974265E+01  0.10211488560E+01 0.  0.
     999903    2    3    3    0    0 -0.11311951742E+00 -0.35307036347E-01  0.48312700093E-01  0.12951504269E+00  0.19935326796E-01 0.  0.
         14    1    1    2    0    0 -0.20549413170E-01  0.90890595360E-02  0.16815121674E-02  0.22532573489E-01  0.00000000000E+00 0. -1.
     999901    1    3    3    0    0  0.13366893059E+00  0.26217976811E-01 -0.49994212261E-01  0.89188238382E+00  0.88000000000E+00 0. -1.
        -11    1    4    4    0    0 -0.39382267397E-01 -0.40453036510E-02  0.21501976980E-01  0.45054673476E-01  0.51100000000E-03 0. -1.
         11    1    4    4    0    0 -0.73737250026E-01 -0.31261732696E-01  0.26810723113E-01  0.84460369212E-01  0.51100000000E-03 0.  1.
</event>
<event>
 8    1  0.1123285E+005  0.1043930E+01  0.7957747E-01            NaN
         13   -1    0    0    0    0  0.00000000000E+00  0.00000000000E+00  0.74505805969E-08  0.10566000000E+00  0.10566000000E+00 0. -1.
     999900   -1    0    0    0    0 -0.00000000000E+00 -0.00000000000E+00 -0.74505805969E-08  0.93827000000E+00  0.93827000000E+00 0. -1.
     999902    2    1    2    0    0 -0.56536182727E-04  0.23226504940E-01  0.23630201789E-01  0.10107960270E+01  0.10102528140E+01 0.  0.
     999903    2    3    3    0    0  0.26496883862E-01 -0.98858460366E-01  0.61655841967E-01  0.12115802639E+00  0.20068494471E-01 0.  0.
         14    1    1    2    0    0  0.56536182727E-04 -0.23226504940E-01 -0.23630201789E-01  0.33133972968E-01  0.00000000000E+00 0.  1.
     999901    1    3    3    0    0 -0.26553420045E-01  0.12208496531E+00 -0.38025640178E-01  0.88963800064E+00  0.88000000000E+00 0. -1.
        -11    1    4    4    0    0  0.17496017740E-01 -0.32286649428E-01  0.16845987265E-01  0.40405281535E-01  0.51100000000E-03 0. -1.
         11    1    4    4    0    0  0.90008661224E-02 -0.66571810939E-01  0.44809854702E-01  0.80752744857E-01  0.51100000000E-03 0.  1.
</event>
<event>
 8    1  0.1123285E+005  0.1043930E+01  0.7957747E-01            NaN
         13   -1    0    0    0    0  0.00000000000E+00  0.00000000000E+00  0.74505805969E-08  0.10566000000E+00  0.10566000000E+00 0. -1.
     999900   -1    0    0    0    0 -0.00000000000E+00 -0.00000000000E+00 -0.74505805969E-08  0.93827000000E+00  0.93827000000E+00 0.  1.
     999902    2    1    2    0    0 -0.84860813013E-02  0.13474313014E-01  0.17769172586E-01  0.10200696944E+01  0.10197905997E+01 0.  0.
     999903    2    3    3    0    0  0.47213053500E-01  0.65699077464E-01 -0.98492202211E-01  0.12914515953E+00  0.20792237314E-01 0.  0.
         14    1    1    2    0    0  0.84860813013E-02 -0.13474313014E-01 -0.17769172586E-01  0.23860305560E-01  0.00000000000E+00 0.  1.
     999901    1    3    3    0    0 -0.55699134801E-01 -0.52224764451E-01  0.11626137480E+00  0.89092453491E+00  0.88000000000E+00 0. -1.
        -11    1    4    4    0    0  0.26142087843E-01  0.23913278257E-01 -0.31410478368E-01  0.47351165836E-01  0.51100000000E-03 0.  1.
         11    1    4    4    0    0  0.21070965657E-01  0.41785799208E-01 -0.67081723843E-01  0.81793993691E-01  0.51100000000E-03 0. -1.
</event>
<event>
 8    1  0.1123285E+005  0.1043930E+01  0.7957747E-01            NaN
         13   -1    0    0    0    0  0.00000000000E+00  0.00000000000E+00  0.74505805969E-08  0.10566000000E+00  0.10566000000E+00 0. -1.
     999900   -1    0    0    0    0 -0.00000000000E+00 -0.00000000000E+00 -0.74505805969E-08  0.93827000000E+00  0.93827000000E+00 0. -1.
     999902    2    1    2    0    0  0.24641087060E-01  0.74799318366E-02 -0.87934726587E-03  0.10181636304E+01  0.10178375472E+01 0.  0.
     999903    2    3    3    0    0 -0.96334511442E-01 -0.45391240919E-01 -0.64329729026E-01  0.12605578528E+00  0.20274223026E-01 0.  0.
         14    1    1    2    0    0 -0.24641087060E-01 -0.74799318366E-02  0.87934726587E-03  0.25766369620E-01  0.00000000000E+00 0.  1.
     999901    1    3    3    0    0  0.12097559850E+00  0.52871172756E-01  0.63450381760E-01  0.89210784510E+00  0.88000000000E+00 0.  1.
        -11    1    4    4    0    0 -0.25582987577E-01 -0.12528771842E-01 -0.72723295525E-02  0.29404205062E-01  0.51100000000E-03 0. -1.
         11    1    4    4    0    0 -0.70751523865E-01 -0.32862469078E-01 -0.57057399473E-01  0.96651580218E-01  0.51100000000E-03 0.  1.
</event>
<event>
 7    1  0.1123285E+005  0.1043930E+01  0.7957747E-01            NaN
         13   -1    0    0    0    0  0.00000000000E+00  0.00000000000E+00  0.74505805969E-08  0.10566000000E+00  0.10566000000E+00 0. -1.
     999900   -1    0    0    0    0 -0.00000000000E+00 -0.00000000000E+00 -0.74505805969E-08  0.93827000000E+00  0.93827000000E+00 0.  1.
     999902    2    1    2    0    0 -0.28421293906E-02 -0.19691522456E-01 -0.11439816647E-01  0.10209799856E+01  0.10207220130E+01 0.  0.
         14    1    1    2    0    0  0.28421293906E-02  0.19691522456E-01  0.11439816647E-01  0.22950014402E-01  0.00000000000E+00 0.  1.
     999901    1    3    3    0    0  0.33446738265E-01 -0.82847437042E-02 -0.12446267758E+00  0.88942581444E+00  0.88000000000E+00 0.  1.
        -11    1    3    3    0    0 -0.87918881393E-02  0.12661312555E-01  0.82526732748E-01  0.83955517221E-01  0.51100000000E-03 0. -1.
         11    1    3    3    0    0 -0.27496979516E-01 -0.24068091307E-01  0.30496128183E-01  0.47598653940E-01  0.51100000000E-03 0.  1.
</event>
<event>
 8    1  0.1123285E+005  0.1043930E+01  0.7957747E-01            NaN
         13   -1    0    0    0    0  0.00000000000E+00  0.00000000000E+00  0.74505805969E-08  0.10566000000E+00  0.10566000000E+00 0.  1.
     999900   -1    0    0    0    0 -0.00000000000E+00 -0.00000000000E+00 -0.74505805969E-08  0.93827000000E+00  0.93827000000E+00 0.  1.
     999902    2    1    2    0    0 -0.16480062687E-01  0.77694307635E-02  0.16142043118E-01  0.10195882236E+01  0.10192976129E+01 0.  0.
     999903    2    3    3    0    0  0.10937867952E+00  0.41582418199E-01 -0.47092126614E-01  0.12774614046E+00  0.20214227062E-01 0.  0.
         14    1    1    2    0    0  0.16480062687E-01 -0.77694307635E-02 -0.16142043118E-01  0.24341776365E-01  0.00000000000E+00 0.  1.
     999901    1    3    3    0    0 -0.12585874221E+00 -0.33812987435E-01  0.63234169732E-01  0.89184208318E+00  0.88000000000E+00 0. -1.
        -11    1    4    4    0    0  0.12293845928E-01  0.11573255289E-01 -0.96183421235E-02  0.19438428740E-01  0.51100000000E-03 0. -1.
         11    1    4    4    0    0  0.97084833591E-01  0.30009162909E-01 -0.37473784491E-01  0.10830771172E+00  0.51100000000E-03 0.  1.
</event>
<event>
 8    1  0.1123285E+005  0.1043930E+01  0.7957747E-01            NaN
         13   -1    0    0    0    0  0.00000000000E+00  0.00000000000E+00  0.74505805969E-08  0.10566000000E+00  0.10566000000E+00 0.  1.
     999900   -1    0    0    0    0 -0.00000000000E+00 -0.00000000000E+00 -0.74505805969E-08  0.93827000000E+00  0.93827000000E+00 0.  1.
     999902    2    1    2    0    0 -0.20070326349E-01 -0.65844259028E-02  0.86706285546E-02  0.10210968560E+01  0.10208415337E+01 0.  0.
     999903    2    3    3    0    0  0.11226854665E+00 -0.47386432766E-01 -0.38124823514E-01  0.12903845244E+00  0.18647237438E-01 0.  0.
         14    1    1    2    0    0  0.20070326349E-01  0.65844259028E-02 -0.86706285546E-02  0.22833143974E-01  0.00000000000E+00 0. -1.
     999901    1    3    3    0    0 -0.13233887300E+00  0.40802006864E-01  0.46795452069E-01  0.89205840358E+00  0.88000000000E+00 0.  1.
        -11    1    4    4    0    0  0.65716672970E-01 -0.22933572372E-01 -0.30136648230E-01  0.75849248747E-01  0.51100000000E-03 0. -1.
         11    1    4    4    0    0  0.46551873677E-01 -0.24452860394E-01 -0.79881752845E-02  0.53189203695E-01  0.51100000000E-03 0.  1.
</event>
<event>
 8    1  0.1123285E+005  0.1043930E+01  0.7957747E-01            NaN
         13   -1    0    0    0    0  0.00000000000E+00  0.00000000000E+00  0.74505805969E-08  0.10566000000E+00  0.10566000000E+00 0.  1.
     999900   -1    0    0    0    0 -0.00000000000E+00 -0.00000000000E+00 -0.74505805969E-08  0.93827000000E+00  0.93827000000E+00 0.  1.
     999902    2    1    2    0    0 -0.12059831948E-01 -0.12044470810E-01  0.16799269759E-01  0.10199983413E+01  0.10197175550E+01 0.  0.
     999903    2    3    3    0    0 -0.70410261302E-01 -0.10714261021E+00 -0.24012765657E-01  0.13201520466E+00  0.20353317338E-01 0.  0.
         14    1    1    2    0    0  0.12059831948E-01  0.12044470810E-01 -0.16799269759E-01  0.23931658700E-01  0.00000000000E+00 0.  1.
     999901    1    3    3    0    0  0.58350429355E-01  0.95098139404E-01  0.40812035416E-01  0.88798313664E+00  0.88000000000E+00 0. -1.
        -11    1    4    4    0    0 -0.94539949280E-02 -0.30168256344E-01 -0.63682137951E-02  0.32253945167E-01  0.51100000000E-03 0. -1.
         11    1    4    4    0    0 -0.60956266374E-01 -0.76974353870E-01 -0.17644551862E-01  0.99761259492E-01  0.51100000000E-03 0.  1.
</event>
<event>
 8    1  0.1123285E+005  0.1043930E+01  0.7957747E-01            NaN
         13   -1    0    0    0    0  0.00000000000E+00  0.00000000000E+00  0.74505805969E-08  0.10566000000E+00  0.10566000000E+00 0. -1.
     999900   -1    0    0    0    0 -0.00000000000E+00 -0.00000000000E+00 -0.74505805969E-08  0.93827000000E+00  0.93827000000E+00 0. -1.
     999902    2    1    2    0    0  0.10464418689E-01  0.11869309870E-01  0.16967146289E-01  0.10207293830E+01  0.10204656803E+01 0.  0.
     999903    2    3    3    0    0  0.17027294468E-01 -0.18559232082E-01  0.12903997926E+00  0.13307557246E+00  0.20577120444E-01 0.  0.
         14    1    1    2    0    0 -0.10464418689E-01 -0.11869309870E-01 -0.16967146289E-01  0.23200616985E-01  0.00000000000E+00 0.  1.
     999901    1    3    3    0    0 -0.65628757790E-02  0.30428541952E-01 -0.11207283297E+00  0.88765381056E+00  0.88000000000E+00 0. -1.
        -11    1    4    4    0    0  0.16857434476E-02 -0.11093600112E-01  0.22192412163E-01  0.24873157682E-01  0.51100000000E-03 0.  1.
         11    1    4    4    0    0  0.15341551020E-01 -0.74656319692E-02  0.10684756710E+00  0.10820241478E+00  0.51100000000E-03 0. -1.
</event>
<event>
 8    1  0.1123285E+005  0.1043930E+01  0.7957747E-01            NaN
         13   -1    0    0    0    0  0.00000000000E+00  0.00000000000E+00  0.74505805969E-08  0.10566000000E+00  0.10566000000E+00 0.  1.
     999900   -1    0    0    0    0 -0.00000000000E+00 -0.00000000000E+00 -0.74505805969E-08  0.93827000000E+00  0.93827000000E+00 0. -1.
     999902    2    1    2    0    0 -0.22098444072E-01 -0.20961250374E-01 -0.30613755763E-02  0.10133181188E+01  0.10128556278E+01 0.  0.
     999903    2    3    3    0    0 -0.15086730411E-01 -0.49269253856E-01  0.11228885462E+00  0.12531125919E+00  0.20953663077E-01 0.  0.
         14    1    1    2    0    0  0.22098444072E-01  0.20961250374E-01  0.30613755763E-02  0.30611881158E-01  0.00000000000E+00 0. -1.
     999901    1    3    3    0    0 -0.70117136608E-02  0.28308003482E-01 -0.11535023020E+00  0.88800685966E+00  0.88000000000E+00 0. -1.
        -11    1    4    4    0    0  0.23287781364E-02 -0.28006059523E-01  0.54787656596E-01  0.61576870771E-01  0.51100000000E-03 0.  1.
         11    1    4    4    0    0 -0.17415508548E-01 -0.21263194333E-01  0.57501198026E-01  0.63734388415E-01  0.51100000000E-03 0. -1.
</event>
<event>
 8    1  0.1123285E+005  0.1043930E+01  0.7957747E-01            NaN
         13   -1    0    0    0    0  0.00000000000E+00  0.00000000000E+00  0.74505805969E-08  0.10566000000E+00  0.10566000000E+00 0.  1.
     999900   -1    0    0    0    0 -0.00000000000E+00 -0.00000000000E+00 -0.74505805969E-08  0.93827000000E+00  0.93827000000E+00 0. -1.
     999902    2    1    2    0    0  0.59117873552E-02 -0.13999773268E-01  0.18964051934E-01  0.10196281863E+01  0.10193385405E+01 0.  0.
     999903    2    3    3    0    0 -0.72428313219E-01 -0.99391908786E-01  0.42632650328E-01  0.13171535801E+00  0.20168801996E-01 0.  0.
         14    1    1    2    0    0 -0.59117873552E-02  0.13999773268E-01 -0.18964051934E-01  0.24301813658E-01  0.00000000000E+00 0. -1.
     999901    1    3    3    0    0  0.78340100574E-01  0.85392135518E-01 -0.23668598394E-01  0.88791282833E+00  0.88000000000E+00 0.  1.
        -11    1    4    4    0    0 -0.37491913025E-01 -0.41754736238E-01  0.28118839353E-01  0.62769672519E-01  0.51100000000E-03 0. -1.
         11    1    4    4    0    0 -0.34936400194E-01 -0.57637172549E-01  0.14513810975E-01  0.68945685492E-01  0.51100000000E-03 0.  1.
</event>
<event>
 8    1  0.1123285E+005  0.1043930E+01  0.7957747E-01            NaN
         13   -1    0    0    0    0  0.00000000000E+00  0.00000000000E+00  0.74505805969E-08  0.10566000000E+00  0.10566000000E+00 0.  1.
     999900   -1    0    0    0    0 -0.00000000000E+00 -0.00000000000E+00 -0.74505805969E-08  0.93827000000E+00  0.93827000000E+00 0.  1.
     999902    2    1    2    0    0 -0.11838302808E-01 -0.19295183937E-01  0.21992179622E-02  0.10211860756E+01  0.10209327671E+01 0.  0.
     999903    2    3    3    0    0 -0.54722889538E-01  0.77677795039E-01 -0.86881136045E-01  0.13035603801E+00  0.20394370914E-01 0.  0.
         14    1    1    2    0    0  0.11838302808E-01  0.19295183937E-01 -0.21992179622E-02  0.22743924379E-01  0.00000000000E+00 0.  1.
     999901    1    3    3    0    0  0.42884586730E-01 -0.96972978976E-01  0.89080354007E-01  0.89083003761E+00  0.88000000000E+00 0.  1.
        -11    1    4    4    0    0 -0.22706483140E-01  0.32570965324E-01 -0.23137778210E-01  0.45957263411E-01  0.51100000000E-03 0.  1.
         11    1    4    4    0    0 -0.32016406397E-01  0.45106829715E-01 -0.63743357836E-01  0.84398774604E-01  0.51100000000E-03 0. -1.
</event>
<event>
 8    1  0.1123285E+005  0.1043930E+01  0.7957747E-01            NaN
         13   -1    0    0    0    0  0.00000000000E+00  0.00000000000E+00  0.74505805969E-08  0.10566000000E+00  0.10566000000E+00 0.  1.
     999900   -1    0    0    0    0 -0.00000000000E+00 -0.00000000000E+00 -0.74505805969E-08  0.93827000000E+00  0.93827000000E+00 0.  1.
     999902    2    1    2    0    0  0.48110229197E-02 -0.42494913068E-02  0.22645739655E-01  0.10203920808E+01  0.10201205639E+01 0.  0.
     999903    2    3    3    0    0 -0.32518677149E-02  0.10068155472E+00 -0.77563876402E-01  0.12847420237E+00  0.18496368519E-01 0.  0.
         14    1    1    2    0    0 -0.48110229197E-02  0.42494913068E-02 -0.22645739655E-01  0.23537919246E-01  0.00000000000E+00 0. -1.
     999901    1    3    3    0    0  0.80628906345E-02 -0.10493104603E+00  0.10020961606E+00  0.89191787838E+00  0.88000000000E+00 0. -1.
        -11    1    4    4    0    0 -0.20001290858E-02  0.26090559873E-01 -0.30833912154E-01  0.40443900536E-01  0.51100000000E-03 0.  1.
         11    1    4    4    0    0 -0.12517386291E-02  0.74590994848E-01 -0.46729964248E-01  0.88030301837E-01  0.51100000000E-03 0. -1.
</event>
<event>
 8    1  0.1123285E+005  0.1043930E+01  0.7957747E-01            NaN
         13   -1    0    0    0    0  0.00000000000E+00  0.00000000000E+00  0.74505805969E-08  0.10566000000E+00  0.10566000000E+00 0.  1.
     999900   -1    0    0    0    0 -0.00000000000E+00 -0.00000000000E+00 -0.74505805969E-08  0.93827000000E+00  0.93827000000E+00 0. -1.
     999902    2    1    2    0    0 -0.44264935601E-03 -0.11192175808E-01  0.21746580026E-01  0.10194683059E+01  0.10191747898E+01 0.  0.
     999903    2    3    3    0    0 -0.41811382452E-01 -0.10368232996E+00  0.68195382607E-01  0.13243770212E+00  0.19771633385E-01 0.  0.
         14    1    1    2    0    0  0.44264935601E-03  0.11192175808E-01 -0.21746580026E-01  0.24461694148E-01  0.00000000000E+00 0. -1.
     999901    1    3    3    0    0  0.41368733095E-01  0.92490154149E-01 -0.46448802581E-01  0.88703060373E+00  0.88000000000E+00 0. -1.
        -11    1    4    4    0    0 -0.94764721048E-02 -0.23366395303E-01  0.62648859052E-02  0.25986570944E-01  0.51100000000E-03 0.  1.
         11    1    4    4    0    0 -0.32334910347E-01 -0.80315934654E-01  0.61930496702E-01  0.10645113118E+00  0.51100000000E-03 0. -1.
</event>
<event>
 8    1  0.1123285E+005  0.1043930E+01  0.7957747E-01            NaN
         13   -1    0    0    0    0  0.00000000000E+00  0.00000000000E+00  0.74505805969E-08  0.10566000000E+00  0.10566000000E+00 0. -1.
     999900   -1    0    0    0    0 -0.00000000000E+00 -0.00000000000E+00 -0.74505805969E-08  0.93827000000E+00  0.93827000000E+00 0. -1.
     999902    2    1    2    0    0 -0.95831012812E-03 -0.92375814929E-02 -0.23249293458E-01  0.10188944070E+01  0.10185867816E+01 0.  0.
     999903    2    3    3    0    0 -0.66428744850E-01 -0.89140888844E-01 -0.67978801892E-01  0.13172382292E+00  0.19265819774E-01 0.  0.
         14    1    1    2    0    0  0.95831012812E-03  0.92375814929E-02  0.23249293458E-01  0.25035592992E-01  0.00000000000E+00 0. -1.
     999901    1    3    3    0    0  0.65470434722E-01  0.79903307351E-01  0.44729508433E-01  0.88717058409E+00  0.88000000000E+00 0.  1.
        -11    1    4    4    0    0 -0.65967667438E-01 -0.80643075549E-01 -0.61215928952E-01  0.12084158994E+00  0.51100000000E-03 0. -1.
         11    1    4    4    0    0 -0.46107741219E-03 -0.84978132947E-02 -0.67628729395E-02  0.10882232977E-01  0.51100000000E-03 0.  1.
</event>
<event>
 8    1  0.1123285E+005  0.1043930E+01  0.7957747E-01            NaN
         13   -1    0    0    0    0  0.00000000000E+00  0.00000000000E+00  0.74505805969E-08  0.10566000000E+00  0.10566000000E+00 0.  1.
     999900   -1    0    0    0    0 -0.00000000000E+00 -0.00000000000E+00 -0.74505805969E-08  0.93827000000E+00  0.93827000000E+00 0.  1.
     999902    2    1    2    0    0  0.20624573708E-01 -0.10094694984E-01 -0.23617955376E-02  0.10208463697E+01  0.10205853500E+01 0.  0.
     999903    2    3    3    0    0  0.39542004046E-01  0.39699600126E-01  0.11711345033E+00  0.13117695060E+00  0.18767093198E-01 0.  0.
         14    1    1    2    0    0 -0.20624573708E-01  0.10094694984E-01  0.23617955376E-02  0.23083630252E-01  0.00000000000E+00 0.  1.
     999901    1    3    3    0    0 -0.18917430338E-01 -0.49794295110E-01 -0.11947524586E+00  0.88966941915E+00  0.88000000000E+00 0.  1.
        -11    1    4    4    0    0  0.67848129034E-02  0.10540780884E-01  0.45523724373E-01  0.47220888911E-01  0.51100000000E-03 0.  1.
         11    1    4    4    0    0  0.32757191142E-01  0.29158819242E-01  0.71589725953E-01  0.83956061688E-01  0.51100000000E-03 0. -1.
</event>
<event>
 8    1  0.1444494E+005  0.1043930E+01  0.7957747E-01            NaN
         13   -1    0    0    0    0  0.00000000000E+00  0.00000000000E+00  0.74505805969E-08  0.10566000000E+00  0.10566000000E+00 0. -1.
     999900   -1    0    0    0    0 -0.00000000000E+00 -0.00000000000E+00 -0.74505805969E-08  0.93827000000E+00  0.93827000000E+00 0.  1.
     999902    2    1    2    0    0 -0.20695456646E-01  0.12296027156E-01  0.84668926411E-02  0.10184117226E+01  0.10180919675E+01 0.  0.
     999903    2    3    3    0    0  0.40158613044E-02 -0.15216342380E-01 -0.12500473092E+00  0.12757938485E+00  0.20066202134E-01 0.  0.
         14    1    1    2    0    0  0.20695456646E-01 -0.12296027156E-01 -0.84668926411E-02  0.25518277383E-01  0.00000000000E+00 0. -1.
     999901    1    3    3    0    0 -0.24711317950E-01  0.27512369536E-01  0.13347162357E+00  0.89083233777E+00  0.88000000000E+00 0. -1.
        -11    1    4    4    0    0  0.10601026430E-01 -0.12337040674E-01 -0.59700881905E-01  0.61879243331E-01  0.51100000000E-03 0.  1.
         11    1    4    4    0    0 -0.65851651254E-02 -0.28793017057E-02 -0.65303849019E-01  0.65700141520E-01  0.51100000000E-03 0. -1.
</event>
<event>
 8    1  0.1123285E+005  0.1043930E+01  0.7957747E-01            NaN
         13   -1    0    0    0    0  0.00000000000E+00  0.00000000000E+00  0.74505805969E-08  0.10566000000E+00  0.10566000000E+00 0. -1.
     999900   -1    0    0    0    0 -0.00000000000E+00 -0.00000000000E+00 -0.74505805969E-08  0.93827000000E+00  0.93827000000E+00 0.  1.
     999902    2    1    2    0    0 -0.11688896067E-01  0.20043536161E-01  0.19727896318E-02  0.10206434045E+01  0.10203777210E+01 0.  0.
     999903    2    3    3    0    0  0.11930069054E+00 -0.30170221257E-01 -0.31322626075E-01  0.12891010467E+00  0.22221862393E-01 0.  0.
         14    1    1    2    0    0  0.11688896067E-01 -0.20043536161E-01 -0.19727896318E-02  0.23286595544E-01  0.00000000000E+00 0. -1.
     999901    1    3    3    0    0 -0.13098958661E+00  0.50213757419E-01  0.33295415706E-01  0.89173329978E+00  0.88000000000E+00 0.  1.
        -11    1    4    4    0    0  0.71867573015E-01 -0.29258710435E-01 -0.20012452164E-01  0.80136006576E-01  0.51100000000E-03 0.  1.
         11    1    4    4    0    0  0.47433117527E-01 -0.91151082253E-03 -0.11310173911E-01  0.48774098097E-01  0.51100000000E-03 0. -1.
</event>
<event>
 8    1  0.1123285E+005  0.1043930E+01  0.7957747E-01            NaN
         13   -1    0    0    0    0  0.00000000000E+00  0.00000000000E+00  0.74505805969E-08  0.10566000000E+00  0.10566000000E+00 0.  1.
     999900   -1    0    0    0    0 -0.00000000000E+00 -0.00000000000E+00 -0.74505805969E-08  0.93827000000E+00  0.93827000000E+00 0. -1.
     999902    2    1    2    0    0 -0.11923415431E-01 -0.14462611486E-01  0.10960730048E-01  0.10222165809E+01  0.10219859420E+01 0.  0.
     999903    2    3    3    0    0  0.11078691784E+00  0.63997135362E-01 -0.10742428915E-01  0.12998074610E+00  0.20253890446E-01 0.  0.
         14    1    1    2    0    0  0.11923415431E-01  0.14462611486E-01 -0.10960730048E-01  0.21713419116E-01  0.00000000000E+00 0. -1.
     999901    1    3    3    0    0 -0.12271033327E+00 -0.78459746848E-01  0.21703158964E-01  0.89223583479E+00  0.88000000000E+00 0.  1.
        -11    1    4    4    0    0  0.20536669732E-01  0.17360545701E-01 -0.90488244904E-02  0.28377556209E-01  0.51100000000E-03 0.  1.
         11    1    4    4    0    0  0.90250248108E-01  0.46636589661E-01 -0.16936044248E-02  0.10160318989E+00  0.51100000000E-03 0. -1.
</event>
<event>
 8    1  0.1123285E+005  0.1043930E+01  0.7957747E-01            NaN
         13   -1    0    0    0    0  0.00000000000E+00  0.00000000000E+00  0.74505805969E-08  0.10566000000E+00  0.10566000000E+00 0.  1.
     999900   -1    0    0    0    0 -0.00000000000E+00 -0.00000000000E+00 -0.74505805969E-08  0.93827000000E+00  0.93827000000E+00 0.  1.
     999902    2    1    2    0    0  0.55597877869E-02 -0.51624700892E-02 -0.18729807919E-01  0.10237218818E+01  0.10235224097E+01 0.  0.
     999903    2    3    3    0    0 -0.10898518791E+00 -0.17765233894E-01 -0.74237865975E-01  0.13447471387E+00  0.19463124271E-01 0.  0.
         14    1    1    2    0    0 -0.55597877869E-02  0.51624700892E-02  0.18729807919E-01  0.20208118228E-01  0.00000000000E+00 0.  1.
     999901    1    3    3    0    0  0.11454497570E+00  0.12602763805E-01  0.55508058057E-01  0.88924716790E+00  0.88000000000E+00 0. -1.
        -11    1    4    4    0    0 -0.50770354127E-01 -0.16713561585E-01 -0.41531335948E-01  0.67691099752E-01  0.51100000000E-03 0.  1.
         11    1    4    4    0    0 -0.58214833784E-01 -0.10516723096E-02 -0.32706530027E-01  0.66783614117E-01  0.51100000000E-03 0. -1.
</event>
<event>
 8    1  0.1123285E+005  0.1043930E+01  0.7957747E-01            NaN
         13   -1    0    0    0    0  0.00000000000E+00  0.00000000000E+00  0.74505805969E-08  0.10566000000E+00  0.10566000000E+00 0. -1.
     999900   -1    0    0    0    0 -0.00000000000E+00 -0.00000000000E+00 -0.74505805969E-08  0.93827000000E+00  0.93827000000E+00 0.  1.
     999902    2    1    2    0    0 -0.58115163221E-02  0.23171104737E-01  0.39604531430E-02  0.10197151491E+01  0.10194275973E+01 0.  0.
     999903    2    3    3    0    0  0.64462106472E-01  0.78854242488E-01 -0.76755442690E-01  0.13148429522E+00  0.31990110609E-01 0.  0.
         14    1    1    2    0    0  0.58115163221E-02 -0.23171104737E-01 -0.39604531430E-02  0.24214850934E-01  0.00000000000E+00 0. -1.
     999901    1    3    3    0    0 -0.70273622794E-01 -0.55683137751E-01  0.80715895833E-01  0.88823085385E+00  0.88000000000E+00 0.  1.
        -11    1    4    4    0    0  0.63918214852E-02  0.30551763272E-01 -0.22889993812E-01  0.38710186755E-01  0.51100000000E-03 0. -1.
         11    1    4    4    0    0  0.58070284986E-01  0.48302479216E-01 -0.53865448879E-01  0.92774108461E-01  0.51100000000E-03 0.  1.
</event>
<event>
 8    1  0.1123285E+005  0.1043930E+01  0.7957747E-01            NaN
         13   -1    0    0    0    0  0.00000000000E+00  0.00000000000E+00  0.74505805969E-08  0.10566000000E+00  0.10566000000E+00 0. -1.
     999900   -1    0    0    0    0 -0.00000000000E+00 -0.00000000000E+00 -0.74505805969E-08  0.93827000000E+00  0.93827000000E+00 0.  1.
     999902    2    1    2    0    0 -0.39643704697E-02 -0.89146348895E-03 -0.24725558954E-01  0.10188727814E+01  0.10185646177E+01 0.  0.
     999903    2    3    3    0    0 -0.23673021859E-01  0.77001866149E-01 -0.10201188271E+00  0.13183897277E+00  0.22031594851E-01 0.  0.
         14    1    1    2    0    0  0.39643704697E-02  0.89146348895E-03  0.24725558954E-01  0.25057218639E-01  0.00000000000E+00 0. -1.
     999901    1    3    3    0    0  0.19708651390E-01 -0.77893329638E-01  0.77286323761E-01  0.88703380859E+00  0.88000000000E+00 0. -1.
        -11    1    4    4    0    0 -0.23147541341E-01  0.54767399073E-01 -0.61021028566E-01  0.85200373941E-01  0.51100000000E-03 0.  1.
         11    1    4    4    0    0 -0.52548051783E-03  0.22234467077E-01 -0.40990854149E-01  0.46638598830E-01  0.51100000000E-03 0. -1.
</event>
<event>
 8    1  0.1123285E+005  0.1043930E+01  0.7957747E-01            NaN
         13   -1    0    0    0    0  0.00000000000E+00  0.00000000000E+00  0.74505805969E-08  0.10566000000E+00  0.10566000000E+00 0.  1.
     999900   -1    0    0    0    0 -0.00000000000E+00 -0.00000000000E+00 -0.74505805969E-08  0.93827000000E+00  0.93827000000E+00 0.  1.
     999902    2    1    2    0    0 -0.85120601504E-02  0.20880768353E-01  0.11705880532E-01  0.10185235187E+01  0.10182065943E+01 0.  0.
     999903    2    3    3    0    0  0.89653462537E-01  0.56780093728E-01  0.73220805518E-01  0.13020526634E+00  0.18176980878E-01 0.  0.
         14    1    1    2    0    0  0.85120601504E-02 -0.20880768353E-01 -0.11705880532E-01  0.25406481339E-01  0.00000000000E+00 0. -1.
     999901    1    3    3    0    0 -0.98165522688E-01 -0.35899325375E-01 -0.61514924985E-01  0.88831825232E+00  0.88000000000E+00 0. -1.
        -11    1    4    4    0    0  0.75554755050E-01  0.39304715464E-01  0.56500954155E-01  0.10220567797E+00  0.51100000000E-03 0. -1.
         11    1    4    4    0    0  0.14098707487E-01  0.17475378264E-01  0.16719851363E-01  0.27999588369E-01  0.51100000000E-03 0.  1.
</event>
<event>
 8    1  0.1123285E+005  0.1043930E+01  0.7957747E-01            NaN
         13   -1    0    0    0    0  0.00000000000E+00  0.00000000000E+00  0.74505805969E-08  0.10566000000E+00  0.10566000000E+00 0. -1.
     999900   -1    0    0    0    0 -0.00000000000E+00 -0.00000000000E+00 -0.74505805969E-08  0.93827000000E+00  0.93827000000E+00 0.  1.
     999902    2    1    2    0    0  0.23062368023E-02  0.23332106342E-01 -0.13420929061E-02  0.10204458111E+01  0.10201755468E+01 0.  0.
     999903    2    3    3    0    0  0.13517702473E-01  0.50890889481E-01  0.11917736063E+00  0.13173319042E+00  0.19436544449E-01 0.  0.
         14    1    1    2    0    0 -0.23062368023E-02 -0.23332106342E-01  0.13420929061E-02  0.23484188892E-01  0.00000000000E+00 0.  1.
     999901    1    3    3    0    0 -0.11211465671E-01 -0.27558783139E-01 -0.12051945353E+00  0.88871262069E+00  0.88000000000E+00 0.  1.
        -11    1    4    4    0    0  0.19007771741E-02  0.13271425979E-01  0.13833857024E-01  0.19271233031E-01  0.51100000000E-03 0. -1.
         11    1    4    4    0    0  0.11616925299E-01  0.37619463502E-01  0.10534350360E+00  0.11246195739E+00  0.51100000000E-03 0.  1.
</event>
<event>
 8    1  0.1123285E+005  0.1043930E+01  0.7957747E-01            NaN
         13   -1    0    0    0    0  0.00000000000E+00  0.00000000000E+00  0.74505805969E-08  0.10566000000E+00  0.10566000000E+00 0. -1.
     999900   -1    0    0    0    0 -0.00000000000E+00 -0.00000000000E+00 -0.74505805969E-08  0.93827000000E+00  0.93827000000E+00 0. -1.
     999902    2    1    2    0    0 -0.17273647886E-01  0.84126791688E-02  0.17122407687E-01  0.10181942481E+01  0.10178689493E+01 0.  0.
     999903    2    3    3    0    0  0.11387721018E+00  0.28206107186E-01 -0.43875844650E-01  0.12616671815E+00  0.15144224758E-01 0.  0.
         14    1    1    2    0    0  0.17273647886E-01 -0.84126791688E-02 -0.17122407687E-01  0.25735751924E-01  0.00000000000E+00 0.  1.
     999901    1    3    3    0    0 -0.13115085806E+00 -0.19793428017E-01  0.60998252337E-01  0.89202752993E+00  0.88000000000E+00 0. -1.
        -11    1    4    4    0    0  0.88774606983E-01  0.25027129003E-01 -0.40108798137E-01  0.10057964426E+00  0.51100000000E-03 0.  1.
         11    1    4    4    0    0  0.25102603195E-01  0.31789781824E-02 -0.37670465126E-02  0.25587073883E-01  0.51100000000E-03 0. -1.
</event>
<event>
 8    1  0.1123285E+005  0.1043930E+01  0.7957747E-01            NaN
         13   -1    0    0    0    0  0.00000000000E+00  0.00000000000E+00  0.74505805969E-08  0.10566000000E+00  0.10566000000E+00 0. -1.
     999900   -1    0    0    0    0 -0.00000000000E+00 -0.00000000000E+00 -0.74505805969E-08  0.93827000000E+00  0.93827000000E+00 0. -1.
     999902    2    1    2    0    0 -0.12868736873E-01 -0.16950856333E-01 -0.70359468882E-02  0.10215148161E+01  0.10212688574E+01 0.  0.
     999903    2    3    3    0    0  0.15559644732E-01  0.11961322012E-01  0.12732538332E+00  0.13039358196E+00  0.20138451052E-01 0.  0.
         14    1    1    2    0    0  0.12868736873E-01  0.16950856333E-01  0.70359468882E-02  0.22415183866E-01  0.00000000000E+00 0.  1.
     999901    1    3    3    0    0 -0.28428381606E-01 -0.28912178345E-01 -0.13436133021E+00  0.89112123417E+00  0.88000000000E+00 0.  1.
        -11    1    4    4    0    0  0.10118631517E-01  0.13665227935E-01  0.49183810062E-01  0.52042611882E-01  0.51100000000E-03 0.  1.
         11    1    4    4    0    0  0.54410132153E-02 -0.17039059225E-02  0.78141573258E-01  0.78350970079E-01  0.51100000000E-03 0. -1.
</event>
<event>
 8    1  0.1123285E+005  0.1043930E+01  0.7957747E-01            NaN
         13   -1    0    0    0    0  0.00000000000E+00  0.00000000000E+00  0.74505805969E-08  0.10566000000E+00  0.10566000000E+00 0.  1.
     999900   -1    0    0    0    0 -0.00000000000E+00 -0.00000000000E+00 -0.74505805969E-08  0.93827000000E+00  0.93827000000E+00 0. -1.
     999902    2    1    2    0    0  0.14751431628E-01 -0.97461648065E-02 -0.15132300350E-01  0.10206581505E+01  0.10203928073E+01 0.  0.
     999903    2    3    3    0    0 -0.51890401069E-01 -0.89440637183E-01  0.76179672566E-01  0.12985501898E+00  0.19150512781E-01 0.  0.
         14    1    1    2    0    0 -0.14751431628E-01  0.97461648065E-02  0.15132300350E-01  0.23271849462E-01  0.00000000000E+00 0.  1.
     999901    1    3    3    0    0  0.66641832696E-01  0.79694472376E-01 -0.91311972916E-01  0.89080313156E+00  0.88000000000E+00 0.  1.
        -11    1    4    4    0    0 -0.74182476425E-02 -0.29924942054E-01  0.23741120188E-01  0.38915735427E-01  0.51100000000E-03 0.  1.
         11    1    4    4    0    0 -0.44472153426E-01 -0.59515695129E-01  0.52438552378E-01  0.90939283556E-01  0.51100000000E-03 0. -1.
</event>
<event>
 8    1  0.1123285E+005  0.1043930E+01  0.7957747E-01            NaN
         13   -1    0    0    0    0  0.00000000000E+00  0.00000000000E+00  0.74505805969E-08  0.10566000000E+00  0.10566000000E+00 0. -1.
     999900   -1    0    0    0    0 -0.00000000000E+00 -0.00000000000E+00 -0.74505805969E-08  0.93827000000E+00  0.93827000000E+00 0.  1.
     999902    2    1    2    0    0 -0.94427115627E-02 -0.13461280365E-01 -0.18657181514E-01  0.10190611180E+01  0.10187576262E+01 0.  0.
     999903    2    3    3    0    0  0.25683127661E-01 -0.10942670012E+00 -0.65923050126E-01  0.13188737586E+00  0.20361867045E-01 0.  0.
         14    1    1    2    0    0  0.94427115627E-02  0.13461280365E-01  0.18657181514E-01  0.24868882017E-01  0.00000000000E+00 0. -1.
     999901    1    3    3    0    0 -0.35125839224E-01  0.95965419752E-01  0.47265868611E-01  0.88717374212E+00  0.88000000000E+00 0. -1.
        -11    1    4    4    0    0  0.10484450773E-01 -0.20205125847E-01 -0.67359185060E-02  0.23744568592E-01  0.51100000000E-03 0. -1.
         11    1    4    4    0    0  0.15198676888E-01 -0.89221574270E-01 -0.59187131619E-01  0.10814280727E+00  0.51100000000E-03 0.  1.
</event>
<event>
 8    1  0.1123285E+005  0.1043930E+01  0.7957747E-01            NaN
         13   -1    0    0    0    0  0.00000000000E+00  0.00000000000E+00  0.74505805969E-08  0.10566000000E+00  0.10566000000E+00 0. -1.
     999900   -1    0    0    0    0 -0.00000000000E+00 -0.00000000000E+00 -0.74505805969E-08  0.93827000000E+00  0.93827000000E+00 0. -1.
     999902    2    1    2    0    0  0.10330250751E-02 -0.67364542593E-02 -0.22801814273E-01  0.10201314771E+01  0.10198538429E+01 0.  0.
     999903    2    3    3    0    0  0.11022456408E+00  0.64450690292E-01  0.12278490044E-01  0.12983881205E+00  0.20099994830E-01 0.  0.
         14    1    1    2    0    0 -0.10330250751E-02  0.67364542593E-02  0.22801814273E-01  0.23798522873E-01  0.00000000000E+00 0. -1.
     999901    1    3    3    0    0 -0.10919153900E+00 -0.71187144551E-01 -0.35080304317E-01  0.89029266508E+00  0.88000000000E+00 0.  1.
        -11    1    4    4    0    0  0.39104191952E-01  0.31872560828E-01 -0.11626690917E-02  0.50463956270E-01  0.51100000000E-03 0. -1.
         11    1    4    4    0    0  0.71120372123E-01  0.32578129464E-01  0.13441159135E-01  0.79374855781E-01  0.51100000000E-03 0.  1.
</event>
<event>
 8    1  0.1123285E+005  0.1043930E+01  0.7957747E-01            NaN
         13   -1    0    0    0    0  0.00000000000E+00  0.00000000000E+00  0.74505805969E-08  0.10566000000E+00  0.10566000000E+00 0.  1.
     999900   -1    0    0    0    0 -0.00000000000E+00 -0.00000000000E+00 -0.74505805969E-08  0.93827000000E+00  0.93827000000E+00 0.  1.
     999902    2    1    2    0    0 -0.40321989127E-02  0.24466518250E-01 -0.92903449893E-02  0.10174502029E+01  0.10171055677E+01 0.  0.
     999903    2    3    3    0    0 -0.11573902321E+00 -0.38885787722E-01 -0.32195192479E-01  0.12783424010E+00  0.19935810558E-01 0.  0.
         14    1    1    2    0    0  0.40321989127E-02 -0.24466518250E-01  0.92903449893E-02  0.26479797080E-01  0.00000000000E+00 0.  1.
     999901    1    3    3    0    0  0.11170682430E+00  0.63352305972E-01  0.22904847490E-01  0.88961596282E+00  0.88000000000E+00 0. -1.
        -11    1    4    4    0    0 -0.44576279496E-01 -0.25311643316E-01 -0.13712903730E-01  0.53066268295E-01  0.51100000000E-03 0. -1.
         11    1    4    4    0    0 -0.71162743715E-01 -0.13574144406E-01 -0.18482288750E-01  0.74767971805E-01  0.51100000000E-03 0.  1.
</event>
<event>
 8    1  0.1123285E+005  0.1043930E+01  0.7957747E-01            NaN
         13   -1    0    0    0    0  0.00000000000E+00  0.00000000000E+00  0.74505805969E-08  0.10566000000E+00  0.10566000000E+00 0.  1.
     999900   -1    0    0    0    0 -0.00000000000E+00 -0.00000000000E+00 -0.74505805969E-08  0.93827000000E+00  0.93827000000E+00 0. -1.
     999902    2    1    2    0    0  0.18653232355E-01 -0.11481922178E-01 -0.62460393927E-02  0.10211530243E+01  0.10208989707E+01 0.  0.
     999903    2    3    3    0    0  0.81456397047E-01  0.16826406299E-01 -0.10213891593E+00  0.13326730939E+00  0.20237219116E-01 0.  0.
         14    1    1    2    0    0 -0.18653232355E-01  0.11481922178E-01  0.62460393927E-02  0.22776975706E-01  0.00000000000E+00 0. -1.
     999901    1    3    3    0    0 -0.62803164691E-01 -0.28308328477E-01  0.95892876533E-01  0.88788571490E+00  0.88000000000E+00 0.  1.
        -11    1    4    4    0    0  0.78679400485E-01  0.12922559116E-01 -0.90183519061E-01  0.12037760932E+00  0.51100000000E-03 0. -1.
         11    1    4    4    0    0  0.27769965618E-02  0.39038471825E-02 -0.11955396865E-01  0.12889700071E-01  0.51100000000E-03 0.  1.
</event>
<event>
 8    1  0.1123285E+005  0.1043930E+01  0.7957747E-01            NaN
         13   -1    0    0    0    0  0.00000000000E+00  0.00000000000E+00  0.74505805969E-08  0.10566000000E+00  0.10566000000E+00 0.  1.
     999900   -1    0    0    0    0 -0.00000000000E+00 -0.00000000000E+00 -0.74505805969E-08  0.93827000000E+00  0.93827000000E+00 0. -1.
     999902    2    1    2    0    0 -0.15728969665E-01 -0.35994828146E-02 -0.19719112724E-01  0.10184505932E+01  0.10181318238E+01 0.  0.
     999903    2    3    3    0    0  0.11817270163E+00 -0.38007487086E-01 -0.21888389100E-01  0.12765416637E+00  0.20177416323E-01 0.  0.
         14    1    1    2    0    0  0.15728969665E-01  0.35994828146E-02  0.19719112724E-01  0.25479406780E-01  0.00000000000E+00 0.  1.
     999901    1    3    3    0    0 -0.13390167129E+00  0.34408004271E-01  0.21692763752E-02  0.89079642685E+00  0.88000000000E+00 0.  1.
        -11    1    4    4    0    0  0.64782040617E-01 -0.22742925216E-01 -0.20695475672E-02  0.68691321009E-01  0.51100000000E-03 0. -1.
         11    1    4    4    0    0  0.53390661009E-01 -0.15264561869E-01 -0.19818841532E-01  0.58962845358E-01  0.51100000000E-03 0.  1.
</event>
<event>
 8    1  0.1123285E+005  0.1043930E+01  0.7957747E-01            NaN
         13   -1    0    0    0    0  0.00000000000E+00  0.00000000000E+00  0.74505805969E-08  0.10566000000E+00  0.10566000000E+00 0.  1.
     999900   -1    0    0    0    0 -0.00000000000E+00 -0.00000000000E+00 -0.74505805969E-08  0.93827000000E+00  0.93827000000E+00 0. -1.
     999902    2    1    2    0    0  0.83751361615E-02 -0.20898066366E-01  0.73240232912E-02  0.10202548358E+01  0.10199801060E+01 0.  0.
     999903    2    3    3    0    0 -0.23010446314E-01 -0.12182984768E+00  0.46171711919E-01  0.13307874155E+00  0.14357299406E-01 0.  0.
         14    1    1    2    0    0 -0.83751361615E-02  0.20898066366E-01 -0.73240232912E-02  0.23675164218E-01  0.00000000000E+00 0.  1.
     999901    1    3    3    0    0  0.31385582475E-01  0.10093178131E+00 -0.38847688628E-01  0.88717609423E+00  0.88000000000E+00 0. -1.
        -11    1    4    4    0    0 -0.53692905774E-02 -0.62425893225E-01  0.26822020465E-01  0.68157929319E-01  0.51100000000E-03 0. -1.
         11    1    4    4    0    0 -0.17641155736E-01 -0.59403954452E-01  0.19349691454E-01  0.64920812230E-01  0.51100000000E-03 0.  1.
</event>
<event>
 8    1  0.1123285E+005  0.1043930E+01  0.7957747E-01            NaN
         13   -1    0    0    0    0  0.00000000000E+00  0.00000000000E+00  0.74505805969E-08  0.10566000000E+00  0.10566000000E+00 0. -1.
     999900   -1    0    0    0    0 -0.00000000000E+00 -0.00000000000E+00 -0.74505805969E-08  0.93827000000E+00  0.93827000000E+00 0. -1.
     999902    2    1    2    0    0 -0.15642475583E-01 -0.28711127124E-02 -0.20794236030E-01  0.10177511806E+01  0.10174144363E+01 0.  0.
     999903    2    3    3    0    0  0.12260188242E+00 -0.23099554870E-01 -0.79998959554E-02  0.12663705354E+00  0.20202326232E-01 0.  0.
         14    1    1    2    0    0  0.15642475583E-01  0.28711127124E-02  0.20794236030E-01  0.26178819351E-01  0.00000000000E+00 0. -1.
     999901    1    3    3    0    0 -0.13824435801E+00  0.20228442157E-01 -0.12794340075E-01  0.89111412711E+00  0.88000000000E+00 0. -1.
        -11    1    4    4    0    0  0.57937277399E-01 -0.27898448562E-02  0.24341733622E-02  0.58057709804E-01  0.51100000000E-03 0. -1.
         11    1    4    4    0    0  0.64664605025E-01 -0.20309710013E-01 -0.10434069318E-01  0.68579343737E-01  0.51100000000E-03 0.  1.
</event>
<event>
 8    1  0.1123285E+005  0.1043930E+01  0.7957747E-01            NaN
         13   -1    0    0    0    0  0.00000000000E+00  0.00000000000E+00  0.74505805969E-08  0.10566000000E+00  0.10566000000E+00 0. -1.
     999900   -1    0    0    0    0 -0.00000000000E+00 -0.00000000000E+00 -0.74505805969E-08  0.93827000000E+00  0.93827000000E+00 0. -1.
     999902    2    1    2    0    0 -0.17894685313E-01 -0.40638003009E-02 -0.14965275528E-01  0.10202510282E+01  0.10199762089E+01 0.  0.
     999903    2    3    3    0    0  0.22477568396E-01 -0.90854682472E-01 -0.90657591297E-01  0.13183001155E+00  0.20013462430E-01 0.  0.
         14    1    1    2    0    0  0.17894685313E-01  0.40638003009E-02  0.14965275528E-01  0.23678971831E-01  0.00000000000E+00 0. -1.
     999901    1    3    3    0    0 -0.40372253709E-01  0.86790882171E-01  0.75692315769E-01  0.88842101662E+00  0.88000000000E+00 0.  1.
        -11    1    4    4    0    0  0.22110968863E-01 -0.48482230566E-01 -0.48510102603E-01  0.72061867866E-01  0.51100000000E-03 0.  1.
         11    1    4    4    0    0  0.36659953284E-03 -0.42372451906E-01 -0.42147488694E-01  0.59768143688E-01  0.51100000000E-03 0. -1.
</event>
<event>
 8    1  0.1123285E+005  0.1043930E+01  0.7957747E-01            NaN
         13   -1    0    0    0    0  0.00000000000E+00  0.00000000000E+00  0.74505805969E-08  0.10566000000E+00  0.10566000000E+00 0. -1.
     999900   -1    0    0    0    0 -0.00000000000E+00 -0.00000000000E+00 -0.74505805969E-08  0.93827000000E+00  0.93827000000E+00 0. -1.
     999902    2    1    2    0    0  0.17326405497E-01 -0.52534218166E-03 -0.12890297771E-01  0.10223281462E+01  0.10220998965E+01 0.  0.
     999903    2    3    3    0    0  0.17533340242E-01  0.44236574145E-01  0.12058097857E+00  0.13113891062E+00  0.19833027344E-01 0.  0.
         14    1    1    2    0    0 -0.17326405497E-01  0.52534218166E-03  0.12890297771E-01  0.21601853821E-01  0.00000000000E+00 0.  1.
     999901    1    3    3    0    0 -0.20693474537E-03 -0.44761916327E-01 -0.13347127634E+00  0.89118923556E+00  0.88000000000E+00 0. -1.
        -11    1    4    4    0    0  0.11380548388E-01  0.72751422763E-02  0.41127530846E-01  0.43291794734E-01  0.51100000000E-03 0. -1.
         11    1    4    4    0    0  0.61527918540E-02  0.36961431869E-01  0.79453447720E-01  0.87847115883E-01  0.51100000000E-03 0.  1.
</event>
<event>
 8    1  0.1123285E+005  0.1043930E+01  0.7957747E-01            NaN
         13   -1    0    0    0    0  0.00000000000E+00  0.00000000000E+00  0.74505805969E-08  0.10566000000E+00  0.10566000000E+00 0.  1.
     999900   -1    0    0    0    0 -0.00000000000E+00 -0.00000000000E+00 -0.74505805969E-08  0.93827000000E+00  0.93827000000E+00 0. -1.
     999902    2    1    2    0    0 -0.94488478656E-02 -0.17909513467E-01  0.11933448962E-01  0.10204259875E+01  0.10201552614E+01 0.  0.
     999903    2    3    3    0    0 -0.52069287064E-01  0.11666134368E-01  0.11942630477E+00  0.13236859363E+00  0.20285289330E-01 0.  0.
         14    1    1    2    0    0  0.94488478656E-02  0.17909513467E-01 -0.11933448962E-01  0.23504012482E-01  0.00000000000E+00 0. -1.
     999901    1    3    3    0    0  0.42620439199E-01 -0.29575647834E-01 -0.10749285581E+00  0.88805739388E+00  0.88000000000E+00 0. -1.
        -11    1    4    4    0    0 -0.92612046284E-02  0.96475636341E-02  0.19625674497E-01  0.23754444126E-01  0.51100000000E-03 0.  1.
         11    1    4    4    0    0 -0.42808082436E-01  0.20185707336E-02  0.99800630273E-01  0.10861414951E+00  0.51100000000E-03 0. -1.
</event>
<event>
 8    1  0.1123285E+005  0.1043930E+01  0.7957747E-01            NaN
         13   -1    0    0    0    0  0.00000000000E+00  0.00000000000E+00  0.74505805969E-08  0.10566000000E+00  0.10566000000E+00 0. -1.
     999900   -1    0    0    0    0 -0.00000000000E+00 -0.00000000000E+00 -0.74505805969E-08  0.93827000000E+00  0.93827000000E+00 0. -1.
     999902    2    1    2    0    0 -0.14270801981E-01  0.31853735140E-01  0.11095984577E-01  0.10073043655E+01  0.10066382903E+01 0.  0.
     999903    2    3    3    0    0  0.36359471275E-01 -0.10652679532E+00  0.12669875931E-01  0.11505155773E+00  0.20158519434E-01 0.  0.
         14    1    1    2    0    0  0.14270801981E-01 -0.31853735140E-01 -0.11095984577E-01  0.36625634537E-01  0.00000000000E+00 0.  1.
     999901    1    3    3    0    0 -0.50630273256E-01  0.13838053046E+00 -0.15738913543E-02  0.89225280774E+00  0.88000000000E+00 0. -1.
        -11    1    4    4    0    0  0.13401664861E-01 -0.69488387611E-01  0.75440681170E-02  0.71171726961E-01  0.51100000000E-03 0. -1.
         11    1    4    4    0    0  0.22957806414E-01 -0.37038407712E-01  0.51258078138E-02  0.43879830765E-01  0.51100000000E-03 0.  1.
</event>
<event>
 8    1  0.1123285E+005  0.1043930E+01  0.7957747E-01            NaN
         13   -1    0    0    0    0  0.00000000000E+00  0.00000000000E+00  0.74505805969E-08  0.10566000000E+00  0.10566000000E+00 0.  1.
     999900   -1    0    0    0    0 -0.00000000000E+00 -0.00000000000E+00 -0.74505805969E-08  0.93827000000E+00  0.93827000000E+00 0.  1.
     999902    2    1    2    0    0  0.13927597903E-01 -0.18122492296E-01 -0.46094047619E-02  0.10206137112E+01  0.10203473419E+01 0.  0.
     999903    2    3    3    0    0  0.61680327985E-01  0.11132408142E+00  0.15060560369E-01  0.12964589687E+00  0.19588877769E-01 0.  0.
         14    1    1    2    0    0 -0.13927597903E-01  0.18122492296E-01  0.46094047619E-02  0.23316288783E-01  0.00000000000E+00 0.  1.
     999901    1    3    3    0    0 -0.47752730081E-01 -0.12944657371E+00 -0.19669965131E-01  0.89096781435E+00  0.88000000000E+00 0.  1.
        -11    1    4    4    0    0  0.44861918274E-01  0.64031422109E-01  0.42633818818E-02  0.78301036230E-01  0.51100000000E-03 0. -1.
         11    1    4    4    0    0  0.16818409710E-01  0.47292659309E-01  0.10797178487E-01  0.51344860639E-01  0.51100000000E-03 0.  1.
</event>
<event>
 8    1  0.1123285E+005  0.1043930E+01  0.7957747E-01            NaN
         13   -1    0    0    0    0  0.00000000000E+00  0.00000000000E+00  0.74505805969E-08  0.10566000000E+00  0.10566000000E+00 0. -1.
     999900   -1    0    0    0    0 -0.00000000000E+00 -0.00000000000E+00 -0.74505805969E-08  0.93827000000E+00  0.93827000000E+00 0.  1.
     999902    2    1    2    0    0 -0.10730415310E-01 -0.57707054873E-02 -0.20411296590E-01  0.10201589276E+01  0.10198819410E+01 0.  0.
     999903    2    3    3    0    0  0.91883488834E-02 -0.33280922342E-01  0.12178260800E+00  0.12809801281E+00  0.19648199093E-01 0.  0.
         14    1    1    2    0    0  0.10730415310E-01  0.57707054873E-02  0.20411296590E-01  0.23771072400E-01  0.00000000000E+00 0. -1.
     999901    1    3    3    0    0 -0.19918764194E-01  0.27510216855E-01 -0.14219390459E+00  0.89206091479E+00  0.88000000000E+00 0.  1.
        -11    1    4    4    0    0  0.62262257634E-02 -0.24849027748E-01  0.11176147374E+00  0.11466092709E+00  0.51100000000E-03 0.  1.
         11    1    4    4    0    0  0.29621231200E-02 -0.84318945942E-02  0.10021134257E-01  0.13437085719E-01  0.51100000000E-03 0. -1.
</event>
<event>
 8    1  0.1123285E+005  0.1043930E+01  0.7957747E-01            NaN
         13   -1    0    0    0    0  0.00000000000E+00  0.00000000000E+00  0.74505805969E-08  0.10566000000E+00  0.10566000000E+00 0. -1.
     999900   -1    0    0    0    0 -0.00000000000E+00 -0.00000000000E+00 -0.74505805969E-08  0.93827000000E+00  0.93827000000E+00 0. -1.
     999902    2    1    2    0    0 -0.13587013350E-01 -0.12904830222E-01  0.15184250714E-01  0.10198114792E+01  0.10195262381E+01 0.  0.
     999903    2    3    3    0    0 -0.67745987321E-01  0.70676293473E-01  0.85132709256E-01  0.13143555341E+00  0.21049210410E-01 0.  0.
         14    1    1    2    0    0  0.13587013350E-01  0.12904830222E-01 -0.15184250714E-01  0.24118520780E-01  0.00000000000E+00 0. -1.
     999901    1    3    3    0    0  0.54158973970E-01 -0.83581123695E-01 -0.69948458541E-01  0.88837592581E+00  0.88000000000E+00 0. -1.
        -11    1    4    4    0    0 -0.58107017479E-01  0.47647760042E-01  0.65092712055E-01  0.99418593839E-01  0.51100000000E-03 0. -1.
         11    1    4    4    0    0 -0.96389698414E-02  0.23028533431E-01  0.20039997201E-01  0.32016959575E-01  0.51100000000E-03 0.  1.
</event>
<event>
 8    1  0.1123285E+005  0.1043930E+01  0.7957747E-01            NaN
         13   -1    0    0    0    0  0.00000000000E+00  0.00000000000E+00  0.74505805969E-08  0.10566000000E+00  0.10566000000E+00 0. -1.
     999900   -1    0    0    0    0 -0.00000000000E+00 -0.00000000000E+00 -0.74505805969E-08  0.93827000000E+00  0.93827000000E+00 0.  1.
     999902    2    1    2    0    0  0.99323204443E-02 -0.30378576499E-01  0.35491931691E-02  0.10117724865E+01  0.10112613208E+01 0.  0.
     999903    2    3    3    0    0 -0.27960002448E-01  0.79899898739E-01 -0.82609479711E-01  0.11990899522E+00  0.19699884323E-01 0.  0.
         14    1    1    2    0    0 -0.99323204443E-02  0.30378576499E-01 -0.35491931691E-02  0.32157513456E-01  0.00000000000E+00 0. -1.
     999901    1    3    3    0    0  0.37892322892E-01 -0.11027847524E+00  0.86158672880E-01  0.89186349132E+00  0.88000000000E+00 0. -1.
        -11    1    4    4    0    0 -0.26253401363E-01  0.46091619490E-01 -0.51357587756E-01  0.73834554319E-01  0.51100000000E-03 0.  1.
         11    1    4    4    0    0 -0.17066010846E-02  0.33808279249E-01 -0.31251891956E-01  0.46074440906E-01  0.51100000000E-03 0. -1.
</event>
<event>
 8    1  0.1123285E+005  0.1043930E+01  0.7957747E-01            NaN
         13   -1    0    0    0    0  0.00000000000E+00  0.00000000000E+00  0.74505805969E-08  0.10566000000E+00  0.10566000000E+00 0. -1.
     999900   -1    0    0    0    0 -0.00000000000E+00 -0.00000000000E+00 -0.74505805969E-08  0.93827000000E+00  0.93827000000E+00 0.  1.
     999902    2    1    2    0    0  0.38595952964E-02 -0.67538143219E-02  0.21946118230E-01  0.10206460444E+01  0.10203804219E+01 0.  0.
     999903    2    3    3    0    0  0.32664920295E-01 -0.38977847599E-01  0.12231476656E+00  0.13388677568E+00  0.19454998392E-01 0.  0.
         14    1    1    2    0    0 -0.38595952964E-02  0.67538143219E-02 -0.21946118230E-01  0.23283955616E-01  0.00000000000E+00 0.  1.
     999901    1    3    3    0    0 -0.28805324999E-01  0.32224033277E-01 -0.10036864833E+00  0.88675926871E+00  0.88000000000E+00 0.  1.
        -11    1    4    4    0    0  0.52364022965E-02 -0.81261728336E-02  0.47119651696E-01  0.48103817841E-01  0.51100000000E-03 0. -1.
         11    1    4    4    0    0  0.27428517999E-01 -0.30851674765E-01  0.75195114861E-01  0.85782957837E-01  0.51100000000E-03 0.  1.
</event>
<event>
 8    1  0.1123285E+005  0.1043930E+01  0.7957747E-01            NaN
         13   -1    0    0    0    0  0.00000000000E+00  0.00000000000E+00  0.74505805969E-08  0.10566000000E+00  0.10566000000E+00 0. -1.
     999900   -1    0    0    0    0 -0.00000000000E+00 -0.00000000000E+00 -0.74505805969E-08  0.93827000000E+00  0.93827000000E+00 0. -1.
     999902    2    1    2    0    0  0.19529981305E-01 -0.53672450230E-02  0.11658862775E-01  0.10205600071E+01  0.10202923951E+01 0.  0.
     999903    2    3    3    0    0  0.29715129343E-01  0.95292201350E-01 -0.80642171083E-01  0.12996720323E+00  0.20608775015E-01 0.  0.
         14    1    1    2    0    0 -0.19529981305E-01  0.53672450230E-02 -0.11658862775E-01  0.23369992942E-01  0.00000000000E+00 0.  1.
     999901    1    3    3    0    0 -0.10185148037E-01 -0.10065944637E+00  0.92301033858E-01  0.89059280383E+00  0.88000000000E+00 0.  1.
        -11    1    4    4    0    0  0.27270461472E-01  0.54282215412E-01 -0.50737068796E-01  0.79150162665E-01  0.51100000000E-03 0.  1.
         11    1    4    4    0    0  0.24446678711E-02  0.41009985938E-01 -0.29905102287E-01  0.50817040562E-01  0.51100000000E-03 0. -1.
</event>
<event>
 8    1  0.1123285E+005  0.1043930E+01  0.7957747E-01            NaN
         13   -1    0    0    0    0  0.00000000000E+00  0.00000000000E+00  0.74505805969E-08  0.10566000000E+00  0.10566000000E+00 0. -1.
     999900   -1    0    0    0    0 -0.00000000000E+00 -0.00000000000E+00 -0.74505805969E-08  0.93827000000E+00  0.93827000000E+00 0. -1.
     999902    2    1    2    0    0 -0.48792960133E-02 -0.22008383678E-01 -0.43084592551E-02  0.10209791982E+01  0.10207212077E+01 0.  0.
     999903    2    3    3    0    0 -0.86994798695E-01  0.81388586652E-01  0.47355960858E-01  0.12963016357E+00  0.19214453941E-01 0.  0.
         14    1    1    2    0    0  0.48792960133E-02  0.22008383678E-01  0.43084592551E-02  0.22950801791E-01  0.00000000000E+00 0. -1.
     999901    1    3    3    0    0  0.82115502681E-01 -0.10339697033E+00 -0.51664420113E-01  0.89134903464E+00  0.88000000000E+00 0. -1.
        -11    1    4    4    0    0 -0.61036746416E-01  0.54907181420E-01  0.41804769873E-01  0.92131335004E-01  0.51100000000E-03 0.  1.
         11    1    4    4    0    0 -0.25958052279E-01  0.26481405232E-01  0.55511909854E-02  0.37498828562E-01  0.51100000000E-03 0. -1.
</event>
<event>
 8    1  0.1123285E+005  0.1043930E+01  0.7957747E-01            NaN
         13   -1    0    0    0    0  0.00000000000E+00  0.00000000000E+00  0.74505805969E-08  0.10566000000E+00  0.10566000000E+00 0. -1.
     999900   -1    0    0    0    0 -0.00000000000E+00 -0.00000000000E+00 -0.74505805969E-08  0.93827000000E+00  0.93827000000E+00 0.  1.
     999902    2    1    2    0    0 -0.16505412750E-01  0.55606178676E-02  0.14915880642E-01  0.10209989595E+01  0.10207414182E+01 0.  0.
     999903    2    3    3    0    0  0.90047552766E-01 -0.86366716770E-01  0.29187737243E-01  0.12970335470E+00  0.20081451425E-01 0.  0.
         14    1    1    2    0    0  0.16505412750E-01 -0.55606178676E-02 -0.14915880642E-01  0.22931040457E-01  0.00000000000E+00 0. -1.
     999901    1    3    3    0    0 -0.10655296552E+00  0.91927334638E-01 -0.14271856602E-01  0.89129560484E+00  0.88000000000E+00 0.  1.
        -11    1    4    4    0    0  0.22211471099E-01 -0.14242705139E-01 -0.29628899888E-03  0.26392290659E-01  0.51100000000E-03 0. -1.
         11    1    4    4    0    0  0.67836081667E-01 -0.72124011631E-01  0.29484026242E-01  0.10331106405E+00  0.51100000000E-03 0.  1.
</event>
<event>
 8    1  0.1123285E+005  0.1043930E+01  0.7957747E-01            NaN
         13   -1    0    0    0    0  0.00000000000E+00  0.00000000000E+00  0.74505805969E-08  0.10566000000E+00  0.10566000000E+00 0.  1.
     999900   -1    0    0    0    0 -0.00000000000E+00 -0.00000000000E+00 -0.74505805969E-08  0.93827000000E+00  0.93827000000E+00 0. -1.
     999902    2    1    2    0    0 -0.18704559406E-01  0.13405144144E-01 -0.53457950547E-02  0.10203050988E+01  0.10200315479E+01 0.  0.
     999903    2    3    3    0    0  0.76509167599E-01  0.51090467182E-01  0.88697071933E-01  0.12938989620E+00  0.20265391833E-01 0.  0.
         14    1    1    2    0    0  0.18704559406E-01 -0.13405144144E-01  0.53457950547E-02  0.23624901203E-01  0.00000000000E+00 0. -1.
     999901    1    3    3    0    0 -0.95213727005E-01 -0.37685323038E-01 -0.94042866988E-01  0.89091520259E+00  0.88000000000E+00 0. -1.
        -11    1    4    4    0    0  0.36804446402E-01  0.36282339693E-01  0.52251209687E-01  0.73494390829E-01  0.51100000000E-03 0. -1.
         11    1    4    4    0    0  0.39704721198E-01  0.14808127489E-01  0.36445862246E-01  0.55895505373E-01  0.51100000000E-03 0.  1.
</event>
<event>
 8    1  0.1123285E+005  0.1043930E+01  0.7957747E-01            NaN
         13   -1    0    0    0    0  0.00000000000E+00  0.00000000000E+00  0.74505805969E-08  0.10566000000E+00  0.10566000000E+00 0.  1.
     999900   -1    0    0    0    0 -0.00000000000E+00 -0.00000000000E+00 -0.74505805969E-08  0.93827000000E+00  0.93827000000E+00 0. -1.
     999902    2    1    2    0    0 -0.19110192571E-01  0.14306530243E-01 -0.18142053682E-02  0.10199890809E+01  0.10197080746E+01 0.  0.
     999903    2    3    3    0    0 -0.95450052093E-01 -0.46025427241E-01 -0.75245021701E-01  0.13158612948E+00  0.20592323424E-01 0.  0.
         14    1    1    2    0    0  0.19110192571E-01 -0.14306530243E-01  0.18142053682E-02  0.23940919131E-01  0.00000000000E+00 0.  1.
     999901    1    3    3    0    0  0.76339859523E-01  0.60331957485E-01  0.73430816333E-01  0.88840295139E+00  0.88000000000E+00 0. -1.
        -11    1    4    4    0    0 -0.80420948833E-02  0.11545862429E-02 -0.92969676841E-02  0.12357309117E-01  0.51100000000E-03 0. -1.
         11    1    4    4    0    0 -0.87407957210E-01 -0.47180013484E-01 -0.65948054017E-01  0.11922882037E+00  0.51100000000E-03 0.  1.
</event>
<event>
 8    1  0.1123285E+005  0.1043930E+01  0.7957747E-01            NaN
         13   -1    0    0    0    0  0.00000000000E+00  0.00000000000E+00  0.74505805969E-08  0.10566000000E+00  0.10566000000E+00 0.  1.
     999900   -1    0    0    0    0 -0.00000000000E+00 -0.00000000000E+00 -0.74505805969E-08  0.93827000000E+00  0.93827000000E+00 0.  1.
     999902    2    1    2    0    0  0.11180099643E-01  0.16983468977E-01 -0.12846541717E-01  0.10198786699E+01  0.10195950347E+01 0.  0.
     999903    2    3    3    0    0 -0.94892031765E-01 -0.61386392212E-01  0.55545978005E-01  0.12742661573E+00  0.19478189912E-01 0.  0.
         14    1    1    2    0    0 -0.11180099643E-01 -0.16983468977E-01  0.12846541717E-01  0.24051330121E-01  0.00000000000E+00 0.  1.
     999901    1    3    3    0    0  0.10607213141E+00  0.78369861189E-01 -0.68392519722E-01  0.89245205415E+00  0.88000000000E+00 0. -1.
        -11    1    4    4    0    0 -0.66180870212E-01 -0.32820281547E-01  0.31392297381E-01  0.80267153423E-01  0.51100000000E-03 0.  1.
         11    1    4    4    0    0 -0.28711161553E-01 -0.28566110665E-01  0.24153680624E-01  0.47159462305E-01  0.51100000000E-03 0. -1.
</event>
<event>
 8    1  0.1123285E+005  0.1043930E+01  0.7957747E-01            NaN
         13   -1    0    0    0    0  0.00000000000E+00  0.00000000000E+00  0.74505805969E-08  0.10566000000E+00  0.10566000000E+00 0. -1.
     999900   -1    0    0    0    0 -0.00000000000E+00 -0.00000000000E+00 -0.74505805969E-08  0.93827000000E+00  0.93827000000E+00 0. -1.
     999902    2    1    2    0    0 -0.83040054886E-02  0.16677957356E-01  0.13663161749E-01  0.10208260445E+01  0.10205645597E+01 0.  0.
     999903    2    3    3    0    0  0.11510738968E+00  0.48176153741E-01  0.35747867972E-01  0.13138226156E+00  0.20315896273E-01 0.  0.
         14    1    1    2    0    0  0.83040054886E-02 -0.16677957356E-01 -0.13663161749E-01  0.23103955456E-01  0.00000000000E+00 0.  1.
     999901    1    3    3    0    0 -0.12341139517E+00 -0.31498196385E-01 -0.22084706224E-01  0.88944378298E+00  0.88000000000E+00 0.  1.
        -11    1    4    4    0    0  0.53403779763E-01  0.29616065805E-01  0.94910888189E-02  0.61801431494E-01  0.51100000000E-03 0. -1.
         11    1    4    4    0    0  0.61703609916E-01  0.18560087936E-01  0.26256779153E-01  0.69580830071E-01  0.51100000000E-03 0.  1.
</event>
<event>
 8    1  0.1123285E+005  0.1043930E+01  0.7957747E-01            NaN
         13   -1    0    0    0    0  0.00000000000E+00  0.00000000000E+00  0.74505805969E-08  0.10566000000E+00  0.10566000000E+00 0.  1.
     999900   -1    0    0    0    0 -0.00000000000E+00 -0.00000000000E+00 -0.74505805969E-08  0.93827000000E+00  0.93827000000E+00 0.  1.
     999902    2    1    2    0    0  0.16777629672E-01  0.74206396223E-02  0.13495043038E-01  0.10211556518E+01  0.10209016575E+01 0.  0.
     999903    2    3    3    0    0 -0.42326530204E-02 -0.30479719192E-01  0.12758312581E+00  0.13273347748E+00  0.19844228834E-01 0.  0.
         14    1    1    2    0    0 -0.16777629672E-01 -0.74206396223E-02 -0.13495043038E-01  0.22774348210E-01  0.00000000000E+00 0. -1.
     999901    1    3    3    0    0  0.21010282693E-01  0.37900358815E-01 -0.11408808277E+00  0.88842217431E+00  0.88000000000E+00 0.  1.
        -11    1    4    4    0    0 -0.84421407874E-02 -0.20657587348E-01  0.10925024192E+00  0.11150731876E+00  0.51100000000E-03 0. -1.
         11    1    4    4    0    0  0.42094877670E-02 -0.98221318447E-02  0.18332883893E-01  0.21226158722E-01  0.51100000000E-03 0.  1.
</event>
<event>
 8    1  0.1123285E+005  0.1043930E+01  0.7957747E-01            NaN
         13   -1    0    0    0    0  0.00000000000E+00  0.00000000000E+00  0.74505805969E-08  0.10566000000E+00  0.10566000000E+00 0. -1.
     999900   -1    0    0    0    0 -0.00000000000E+00 -0.00000000000E+00 -0.74505805969E-08  0.93827000000E+00  0.93827000000E+00 0. -1.
     999902    2    1    2    0    0  0.17569704568E-01 -0.13577750063E-02  0.16941231349E-01  0.10194852993E+01  0.10191921959E+01 0.  0.
     999903    2    3    3    0    0 -0.10148424975E+00 -0.70159046138E-01  0.30784483738E-01  0.12869963791E+00  0.19863727140E-01 0.  0.
         14    1    1    2    0    0 -0.17569704568E-01  0.13577750063E-02 -0.16941231349E-01  0.24444700677E-01  0.00000000000E+00 0.  1.
     999901    1    3    3    0    0  0.11905395432E+00  0.68801271132E-01 -0.13843252389E-01  0.89078566142E+00  0.88000000000E+00 0.  1.
        -11    1    4    4    0    0 -0.73992651119E-01 -0.41928885384E-01  0.15598355205E-01  0.86466835581E-01  0.51100000000E-03 0. -1.
         11    1    4    4    0    0 -0.27491598631E-01 -0.28230160755E-01  0.15186128533E-01  0.42232802326E-01  0.51100000000E-03 0.  1.
</event>
<event>
 8    1  0.1123285E+005  0.1043930E+01  0.7957747E-01            NaN
         13   -1    0    0    0    0  0.00000000000E+00  0.00000000000E+00  0.74505805969E-08  0.10566000000E+00  0.10566000000E+00 0. -1.
     999900   -1    0    0    0    0 -0.00000000000E+00 -0.00000000000E+00 -0.74505805969E-08  0.93827000000E+00  0.93827000000E+00 0.  1.
     999902    2    1    2    0    0 -0.23647512272E-01  0.27218590141E-02 -0.40906375807E-02  0.10197774294E+01  0.10194913726E+01 0.  0.
     999903    2    3    3    0    0 -0.11162953530E+00  0.15594752949E-01  0.66481091470E-01  0.13248552884E+00  0.20696143525E-01 0.  0.
         14    1    1    2    0    0  0.23647512272E-01 -0.27218590141E-02  0.40906375807E-02  0.24152570649E-01  0.00000000000E+00 0. -1.
     999901    1    3    3    0    0  0.87982023031E-01 -0.12872893935E-01 -0.70571729051E-01  0.88729190051E+00  0.88000000000E+00 0.  1.
        -11    1    4    4    0    0 -0.40723900838E-01 -0.36168386875E-02  0.27975324875E-01  0.49541876674E-01  0.51100000000E-03 0.  1.
         11    1    4    4    0    0 -0.70905634465E-01  0.19211591637E-01  0.38505766595E-01  0.82943652163E-01  0.51100000000E-03 0. -1.
</event>
<event>
 8    1  0.1123285E+005  0.1043930E+01  0.7957747E-01            NaN
         13   -1    0    0    0    0  0.00000000000E+00  0.00000000000E+00  0.74505805969E-08  0.10566000000E+00  0.10566000000E+00 0.  1.
     999900   -1    0    0    0    0 -0.00000000000E+00 -0.00000000000E+00 -0.74505805969E-08  0.93827000000E+00  0.93827000000E+00 0.  1.
     999902    2    1    2    0    0 -0.15073976134E-01  0.17461463502E-01  0.55227752585E-02  0.10202102085E+01  0.10199344297E+01 0.  0.
     999903    2    3    3    0    0 -0.77008197038E-01 -0.73537240682E-01  0.73103499767E-01  0.13078130956E+00  0.20533900575E-01 0.  0.
         14    1    1    2    0    0  0.15073976134E-01 -0.17461463502E-01 -0.55227752585E-02  0.23719791539E-01  0.00000000000E+00 0. -1.
     999901    1    3    3    0    0  0.61934220904E-01  0.90998704183E-01 -0.67580724509E-01  0.88942889890E+00  0.88000000000E+00 0.  1.
        -11    1    4    4    0    0 -0.64270123186E-01 -0.60294122590E-01  0.69053544829E-01  0.11195839909E+00  0.51100000000E-03 0. -1.
         11    1    4    4    0    0 -0.12738073852E-01 -0.13243118092E-01  0.40499549379E-02  0.18822910462E-01  0.51100000000E-03 0.  1.
</event>
<event>
 8    1  0.1123285E+005  0.1043930E+01  0.7957747E-01            NaN
         13   -1    0    0    0    0  0.00000000000E+00  0.00000000000E+00  0.74505805969E-08  0.10566000000E+00  0.10566000000E+00 0. -1.
     999900   -1    0    0    0    0 -0.00000000000E+00 -0.00000000000E+00 -0.74505805969E-08  0.93827000000E+00  0.93827000000E+00 0.  1.
     999902    2    1    2    0    0 -0.24504570949E-01 -0.12687388527E-01  0.13388873531E-02  0.10163032658E+01  0.10159277000E+01 0.  0.
     999903    2    3    3    0    0  0.68057641762E-01  0.20133117949E-01  0.10129254313E+00  0.12521646743E+00  0.19539687317E-01 0.  0.
         14    1    1    2    0    0  0.24504570949E-01  0.12687388527E-01 -0.13388873531E-02  0.27626734233E-01  0.00000000000E+00 0.  1.
     999901    1    3    3    0    0 -0.92562212711E-01 -0.32820506477E-01 -0.99953655781E-01  0.89108679834E+00  0.88000000000E+00 0.  1.
        -11    1    4    4    0    0  0.33353789823E-01  0.17599102993E-03  0.41256444660E-01  0.53055269441E-01  0.51100000000E-03 0. -1.
         11    1    4    4    0    0  0.34703851939E-01  0.19957126919E-01  0.60036098474E-01  0.72161197989E-01  0.51100000000E-03 0.  1.
</event>
<event>
 8    1  0.1123285E+005  0.1043930E+01  0.7957747E-01            NaN
         13   -1    0    0    0    0  0.00000000000E+00  0.00000000000E+00  0.74505805969E-08  0.10566000000E+00  0.10566000000E+00 0. -1.
     999900   -1    0    0    0    0 -0.00000000000E+00 -0.00000000000E+00 -0.74505805969E-08  0.93827000000E+00  0.93827000000E+00 0. -1.
     999902    2    1    2    0    0 -0.35277760495E-02  0.77115892301E-02  0.22509690249E-01  0.10198758950E+01  0.10195921936E+01 0.  0.
     999903    2    3    3    0    0 -0.82667206772E-01  0.98475310046E-01 -0.13729508227E-01  0.13093586214E+00  0.20602107519E-01 0.  0.
         14    1    1    2    0    0  0.35277760495E-02 -0.77115892301E-02 -0.22509690249E-01  0.24054105001E-01  0.00000000000E+00 0.  1.
     999901    1    3    3    0    0  0.79139430723E-01 -0.90763720816E-01  0.36239198476E-01  0.88894003286E+00  0.88000000000E+00 0. -1.
        -11    1    4    4    0    0 -0.59668569712E-01  0.79975092704E-01 -0.40352050023E-02  0.99864396383E-01  0.51100000000E-03 0.  1.
         11    1    4    4    0    0 -0.22998637060E-01  0.18500217342E-01 -0.96943032250E-02  0.31071465758E-01  0.51100000000E-03 0. -1.
</event>
<event>
 8    1  0.1123285E+005  0.1043930E+01  0.7957747E-01            NaN
         13   -1    0    0    0    0  0.00000000000E+00  0.00000000000E+00  0.74505805969E-08  0.10566000000E+00  0.10566000000E+00 0.  1.
     999900   -1    0    0    0    0 -0.00000000000E+00 -0.00000000000E+00 -0.74505805969E-08  0.93827000000E+00  0.93827000000E+00 0. -1.
     999902    2    1    2    0    0 -0.14697249461E-02 -0.13853907098E-01  0.18784295512E-01  0.10205432390E+01  0.10202752384E+01 0.  0.
     999903    2    3    3    0    0  0.58582076967E-01  0.20533547292E-01  0.11546191793E+00  0.13254814968E+00  0.19597734226E-01 0.  0.
         14    1    1    2    0    0  0.14697249461E-02  0.13853907098E-01 -0.18784295512E-01  0.23386761024E-01  0.00000000000E+00 0. -1.
     999901    1    3    3    0    0 -0.60051801914E-01 -0.34387454390E-01 -0.96677622416E-01  0.88799508929E+00  0.88000000000E+00 0. -1.
        -11    1    4    4    0    0  0.25057068130E-01  0.59714352785E-02  0.29680294576E-01  0.39302617084E-01  0.51100000000E-03 0.  1.
         11    1    4    4    0    0  0.33525008837E-01  0.14562112013E-01  0.85781623352E-01  0.93245532599E-01  0.51100000000E-03 0. -1.
</event>
<event>
 8    1  0.1123285E+005  0.1043930E+01  0.7957747E-01            NaN
         13   -1    0    0    0    0  0.00000000000E+00  0.00000000000E+00  0.74505805969E-08  0.10566000000E+00  0.10566000000E+00 0. -1.
     999900   -1    0    0    0    0 -0.00000000000E+00 -0.00000000000E+00 -0.74505805969E-08  0.93827000000E+00  0.93827000000E+00 0. -1.
     999902    2    1    2    0    0 -0.58840448278E-02 -0.18170220837E-01  0.13942423316E-01  0.10202832227E+01  0.10200091590E+01 0.  0.
     999903    2    3    3    0    0 -0.18878913777E-02 -0.64757025332E-01 -0.11105378247E+00  0.13022122988E+00  0.20678240913E-01 0.  0.
         14    1    1    2    0    0  0.58840448278E-02  0.18170220837E-01 -0.13942423316E-01  0.23646777301E-01  0.00000000000E+00 0.  1.
     999901    1    3    3    0    0 -0.39961534500E-02  0.46586804495E-01  0.12499620579E+00  0.89006199282E+00  0.88000000000E+00 0.  1.
        -11    1    4    4    0    0 -0.10279887332E-02 -0.32641773038E-01 -0.75713005325E-01  0.82457640059E-01  0.51100000000E-03 0.  1.
         11    1    4    4    0    0 -0.85990264456E-03 -0.32115252294E-01 -0.35340777147E-01  0.47763589824E-01  0.51100000000E-03 0. -1.
</event>
<event>
 8    1  0.1123285E+005  0.1043930E+01  0.7957747E-01            NaN
         13   -1    0    0    0    0  0.00000000000E+00  0.00000000000E+00  0.74505805969E-08  0.10566000000E+00  0.10566000000E+00 0.  1.
     999900   -1    0    0    0    0 -0.00000000000E+00 -0.00000000000E+00 -0.74505805969E-08  0.93827000000E+00  0.93827000000E+00 0. -1.
     999902    2    1    2    0    0  0.27593126933E-01  0.14443409291E-01 -0.97221192189E-02  0.10113031349E+01  0.10107766906E+01 0.  0.
     999903    2    3    3    0    0 -0.49472844903E-01  0.86969633439E-01  0.66294294222E-01  0.12170900702E+00  0.20171004422E-01 0.  0.
         14    1    1    2    0    0 -0.27593126933E-01 -0.14443409291E-01  0.97221192189E-02  0.32626865127E-01  0.00000000000E+00 0.  1.
     999901    1    3    3    0    0  0.77065971836E-01 -0.72526224148E-01 -0.76016413440E-01  0.88959412786E+00  0.88000000000E+00 0. -1.
        -11    1    4    4    0    0 -0.45860422283E-01  0.64168547172E-01  0.53550858150E-01  0.95334864072E-01  0.51100000000E-03 0.  1.
         11    1    4    4    0    0 -0.36124226203E-02  0.22801086267E-01  0.12743436071E-01  0.26374142944E-01  0.51100000000E-03 0. -1.
</event>
<event>
 8    1  0.1123285E+005  0.1043930E+01  0.7957747E-01            NaN
         13   -1    0    0    0    0  0.00000000000E+00  0.00000000000E+00  0.74505805969E-08  0.10566000000E+00  0.10566000000E+00 0.  1.
     999900   -1    0    0    0    0 -0.00000000000E+00 -0.00000000000E+00 -0.74505805969E-08  0.93827000000E+00  0.93827000000E+00 0. -1.
     999902    2    1    2    0    0 -0.10914656169E-01 -0.23577930437E-02 -0.20792323707E-01  0.10203289485E+01  0.10200559561E+01 0.  0.
     999903    2    3    3    0    0  0.10697096100E+00 -0.32005727072E-01 -0.65200051069E-01  0.13086390422E+00  0.20178248337E-01 0.  0.
         14    1    1    2    0    0  0.10914656169E-01  0.23577930437E-02  0.20792323707E-01  0.23601051511E-01  0.00000000000E+00 0.  1.
     999901    1    3    3    0    0 -0.11788561717E+00  0.29647934029E-01  0.44407727363E-01  0.88946504427E+00  0.88000000000E+00 0.  1.
        -11    1    4    4    0    0  0.44072314080E-01 -0.23536567025E-01 -0.27209756513E-01  0.56894383081E-01  0.51100000000E-03 0. -1.
         11    1    4    4    0    0  0.62898646918E-01 -0.84691600475E-02 -0.37990294556E-01  0.73969521139E-01  0.51100000000E-03 0.  1.
</event>
<event>
 8    1  0.1123285E+005  0.1043930E+01  0.7957747E-01            NaN
         13   -1    0    0    0    0  0.00000000000E+00  0.00000000000E+00  0.74505805969E-08  0.10566000000E+00  0.10566000000E+00 0.  1.
     999900   -1    0    0    0    0 -0.00000000000E+00 -0.00000000000E+00 -0.74505805969E-08  0.93827000000E+00  0.93827000000E+00 0. -1.
     999902    2    1    2    0    0 -0.24175384617E-02 -0.23186280943E-01 -0.62764042704E-02  0.10197878922E+01  0.10195020862E+01 0.  0.
     999903    2    3    3    0    0  0.87580693031E-02  0.98971941330E-01  0.76977471105E-01  0.12738734695E+00  0.20732972704E-01 0.  0.
         14    1    1    2    0    0  0.24175384617E-02  0.23186280943E-01  0.62764042704E-02  0.24142107753E-01  0.00000000000E+00 0. -1.
     999901    1    3    3    0    0 -0.11175607765E-01 -0.12215822227E+00 -0.83253875375E-01  0.89240054530E+00  0.88000000000E+00 0. -1.
        -11    1    4    4    0    0 -0.59183678970E-02  0.33835110372E-01  0.21061035027E-01  0.40294789860E-01  0.51100000000E-03 0. -1.
         11    1    4    4    0    0  0.14676437200E-01  0.65136830958E-01  0.55916436077E-01  0.87092557092E-01  0.51100000000E-03 0.  1.
</event>
<event>
 8    1  0.1123285E+005  0.1043930E+01  0.7957747E-01            NaN
         13   -1    0    0    0    0  0.00000000000E+00  0.00000000000E+00  0.74505805969E-08  0.10566000000E+00  0.10566000000E+00 0.  1.
     999900   -1    0    0    0    0 -0.00000000000E+00 -0.00000000000E+00 -0.74505805969E-08  0.93827000000E+00  0.93827000000E+00 0. -1.
     999902    2    1    2    0    0 -0.20381780964E-01  0.72683486121E-02 -0.90955936484E-02  0.10204571282E+01  0.10201871273E+01 0.  0.
     999903    2    3    3    0    0  0.23896609615E-02  0.10655895903E+00 -0.74477856759E-01  0.13217113584E+00  0.23700965672E-01 0.  0.
         14    1    1    2    0    0  0.20381780964E-01 -0.72683486121E-02  0.90955936484E-02  0.23472871802E-01  0.00000000000E+00 0.  1.
     999901    1    3    3    0    0 -0.22771441925E-01 -0.99290610418E-01  0.65382263110E-01  0.88828599235E+00  0.88000000000E+00 0.  1.
        -11    1    4    4    0    0  0.65679427725E-03  0.51187931583E-01 -0.21530191644E-01  0.55537788862E-01  0.51100000000E-03 0. -1.
         11    1    4    4    0    0  0.17328666843E-02  0.55371027446E-01 -0.52947665115E-01  0.76633346981E-01  0.51100000000E-03 0.  1.
</event>
<event>
 8    1  0.1123285E+005  0.1043930E+01  0.7957747E-01            NaN
         13   -1    0    0    0    0  0.00000000000E+00  0.00000000000E+00  0.74505805969E-08  0.10566000000E+00  0.10566000000E+00 0.  1.
     999900   -1    0    0    0    0 -0.00000000000E+00 -0.00000000000E+00 -0.74505805969E-08  0.93827000000E+00  0.93827000000E+00 0.  1.
     999902    2    1    2    0    0 -0.19585538125E-01  0.74305870179E-02  0.10607523065E-01  0.10204496577E+01  0.10201794830E+01 0.  0.
     999903    2    3    3    0    0  0.30220129690E-01 -0.85383882429E-01  0.91761252236E-01  0.13046029935E+00  0.19902227966E-01 0.  0.
         14    1    1    2    0    0  0.19585538125E-01 -0.74305870179E-02 -0.10607523065E-01  0.23480342261E-01  0.00000000000E+00 0.  1.
     999901    1    3    3    0    0 -0.49805667816E-01  0.92814469447E-01 -0.81153729170E-01  0.88998935839E+00  0.88000000000E+00 0.  1.
        -11    1    4    4    0    0  0.26391488970E-02 -0.20885259300E-01  0.31994007417E-01  0.38301916330E-01  0.51100000000E-03 0. -1.
         11    1    4    4    0    0  0.27580980793E-01 -0.64498623129E-01  0.59767244819E-01  0.92158383022E-01  0.51100000000E-03 0.  1.
</event>
<event>
 8    1  0.1123285E+005  0.1043930E+01  0.7957747E-01            NaN
         13   -1    0    0    0    0  0.00000000000E+00  0.00000000000E+00  0.74505805969E-08  0.10566000000E+00  0.10566000000E+00 0.  1.
     999900   -1    0    0    0    0 -0.00000000000E+00 -0.00000000000E+00 -0.74505805969E-08  0.93827000000E+00  0.93827000000E+00 0. -1.
     999902    2    1    2    0    0 -0.15348827909E-01  0.80764446058E-02 -0.17492984428E-01  0.10192962837E+01  0.10189985741E+01 0.  0.
     999903    2    3    3    0    0  0.74589497435E-01 -0.78548957005E-01 -0.66683665701E-01  0.12912069106E+00  0.22179039972E-01 0.  0.
         14    1    1    2    0    0  0.15348827909E-01 -0.80764446058E-02  0.17492984428E-01  0.24633716322E-01  0.00000000000E+00 0.  1.
     999901    1    3    3    0    0 -0.89938325344E-01  0.86625401611E-01  0.49190681273E-01  0.89017559262E+00  0.88000000000E+00 0. -1.
        -11    1    4    4    0    0  0.30273814339E-01 -0.22977497133E-01 -0.13459222428E-01  0.40322214702E-01  0.51100000000E-03 0.  1.
         11    1    4    4    0    0  0.44315683095E-01 -0.55571459872E-01 -0.53224443273E-01  0.88798476357E-01  0.51100000000E-03 0. -1.
</event>
<event>
 8    1  0.1139325E+005  0.1043930E+01  0.7957747E-01            NaN
         13   -1    0    0    0    0  0.00000000000E+00  0.00000000000E+00  0.74505805969E-08  0.10566000000E+00  0.10566000000E+00 0. -1.
     999900   -1    0    0    0    0 -0.00000000000E+00 -0.00000000000E+00 -0.74505805969E-08  0.93827000000E+00  0.93827000000E+00 0.  1.
     999902    2    1    2    0    0  0.18421533228E-01 -0.14600590199E-01  0.26840033663E-02  0.10202713019E+01  0.10199969586E+01 0.  0.
     999903    2    3    3    0    0  0.85371231870E-01 -0.94363499582E-01  0.35148242833E-01  0.13353666817E+00  0.20097897552E-01 0.  0.
         14    1    1    2    0    0 -0.18421533228E-01  0.14600590199E-01 -0.26840033663E-02  0.23658698077E-01  0.00000000000E+00 0.  1.
     999901    1    3    3    0    0 -0.66949698642E-01  0.79762909383E-01 -0.32464239467E-01  0.88673463376E+00  0.88000000000E+00 0.  1.
        -11    1    4    4    0    0  0.36632700242E-01 -0.28327768773E-01  0.18018233176E-01  0.49692404434E-01  0.51100000000E-03 0.  1.
         11    1    4    4    0    0  0.48738531628E-01 -0.66035730808E-01  0.17130009657E-01  0.83844263731E-01  0.51100000000E-03 0. -1.
</event>
<event>
 8    1  0.1123285E+005  0.1043930E+01  0.7957747E-01            NaN
         13   -1    0    0    0    0  0.00000000000E+00  0.00000000000E+00  0.74505805969E-08  0.10566000000E+00  0.10566000000E+00 0. -1.
     999900   -1    0    0    0    0 -0.00000000000E+00 -0.00000000000E+00 -0.74505805969E-08  0.93827000000E+00  0.93827000000E+00 0. -1.
     999902    2    1    2    0    0 -0.44424450368E-02  0.14492677493E-01  0.15824042782E-01  0.10220171419E+01  0.10217822004E+01 0.  0.
     999903    2    3    3    0    0 -0.41981612286E-01  0.15513216414E-01  0.12450564958E+00  0.13453648173E+00  0.24398616431E-01 0.  0.
         14    1    1    2    0    0  0.44424450368E-02 -0.14492677493E-01 -0.15824042782E-01  0.21912858069E-01  0.00000000000E+00 0. -1.
     999901    1    3    3    0    0  0.37539167250E-01 -0.10205389214E-02 -0.10868160680E+00  0.88748066020E+00  0.88000000000E+00 0. -1.
        -11    1    4    4    0    0 -0.85312634855E-02 -0.59162206026E-02  0.17015888344E-01  0.19939551148E-01  0.51100000000E-03 0. -1.
         11    1    4    4    0    0 -0.33450348801E-01  0.21429437017E-01  0.10748976124E+00  0.11459693058E+00  0.51100000000E-03 0.  1.
</event>
<event>
 8    1  0.1123285E+005  0.1043930E+01  0.7957747E-01            NaN
         13   -1    0    0    0    0  0.00000000000E+00  0.00000000000E+00  0.74505805969E-08  0.10566000000E+00  0.10566000000E+00 0. -1.
     999900   -1    0    0    0    0 -0.00000000000E+00 -0.00000000000E+00 -0.74505805969E-08  0.93827000000E+00  0.93827000000E+00 0.  1.
     999902    2    1    2    0    0 -0.16158984736E-01 -0.10014246827E-01 -0.13924356165E-01  0.10203655008E+01  0.10200933632E+01 0.  0.
     999903    2    3    3    0    0  0.62427828092E-01 -0.10605354639E+00 -0.41202098059E-01  0.13124036372E+00  0.19540515948E-01 0.  0.
         14    1    1    2    0    0  0.16158984736E-01  0.10014246827E-01  0.13924356165E-01  0.23564499185E-01  0.00000000000E+00 0. -1.
     999901    1    3    3    0    0 -0.78586812829E-01  0.96039299560E-01  0.27277741894E-01  0.88912513709E+00  0.88000000000E+00 0. -1.
        -11    1    4    4    0    0  0.25449009290E-01 -0.61715994870E-01 -0.24833103298E-01  0.71228226406E-01  0.51100000000E-03 0. -1.
         11    1    4    4    0    0  0.36978818802E-01 -0.44337551517E-01 -0.16368994761E-01  0.60012137314E-01  0.51100000000E-03 0.  1.
</event>
<event>
 8    1  0.1123285E+005  0.1043930E+01  0.7957747E-01            NaN
         13   -1    0    0    0    0  0.00000000000E+00  0.00000000000E+00  0.74505805969E-08  0.10566000000E+00  0.10566000000E+00 0. -1.
     999900   -1    0    0    0    0 -0.00000000000E+00 -0.00000000000E+00 -0.74505805969E-08  0.93827000000E+00  0.93827000000E+00 0.  1.
     999902    2    1    2    0    0 -0.84511677531E-02 -0.16240520932E-01  0.14146506371E-01  0.10207934402E+01  0.10205312083E+01 0.  0.
     999903    2    3    3    0    0 -0.11669224345E+00  0.46902891159E-01 -0.30009847102E-01  0.13081984256E+00  0.19906767814E-01 0.  0.
         14    1    1    2    0    0  0.84511677531E-02  0.16240520932E-01 -0.14146506371E-01  0.23136559792E-01  0.00000000000E+00 0. -1.
     999901    1    3    3    0    0  0.10824107569E+00 -0.63143412090E-01  0.44156353473E-01  0.88997359765E+00  0.88000000000E+00 0. -1.
        -11    1    4    4    0    0 -0.54327842432E-01  0.25928499670E-01 -0.23779508775E-01  0.64726561140E-01  0.51100000000E-03 0. -1.
         11    1    4    4    0    0 -0.62364401014E-01  0.20974391489E-01 -0.62303383269E-02  0.66093281420E-01  0.51100000000E-03 0.  1.
</event>
<event>
 8    1  0.1123285E+005  0.1043930E+01  0.7957747E-01            NaN
         13   -1    0    0    0    0  0.00000000000E+00  0.00000000000E+00  0.74505805969E-08  0.10566000000E+00  0.10566000000E+00 0. -1.
     999900   -1    0    0    0    0 -0.00000000000E+00 -0.00000000000E+00 -0.74505805969E-08  0.93827000000E+00  0.93827000000E+00 0.  1.
     999902    2    1    2    0    0  0.13256712256E-01  0.43914231361E-02  0.19705757214E-01  0.10197775284E+01  0.10194914740E+01 0.  0.
     999903    2    3    3    0    0 -0.10493289599E+00 -0.85445258557E-02  0.72993593692E-01  0.13018452270E+00  0.23152184509E-01 0.  0.
         14    1    1    2    0    0 -0.13256712256E-01 -0.43914231361E-02 -0.19705757214E-01  0.24152471600E-01  0.00000000000E+00 0. -1.
     999901    1    3    3    0    0  0.11818960825E+00  0.12935948992E-01 -0.53287836478E-01  0.88959300570E+00  0.88000000000E+00 0.  1.
        -11    1    4    4    0    0 -0.40476512692E-01 -0.54979941704E-02  0.42023231491E-01  0.58607074023E-01  0.51100000000E-03 0. -1.
         11    1    4    4    0    0 -0.64456383299E-01 -0.30465316853E-02  0.30970362201E-01  0.71577448677E-01  0.51100000000E-03 0.  1.
</event>
<event>
 8    1  0.1123285E+005  0.1043930E+01  0.7957747E-01            NaN
         13   -1    0    0    0    0  0.00000000000E+00  0.00000000000E+00  0.74505805969E-08  0.10566000000E+00  0.10566000000E+00 0.  1.
     999900   -1    0    0    0    0 -0.00000000000E+00 -0.00000000000E+00 -0.74505805969E-08  0.93827000000E+00  0.93827000000E+00 0.  1.
     999902    2    1    2    0    0  0.20194142285E-01 -0.12927004176E-01  0.27090514727E-03  0.10199511716E+01  0.10196692642E+01 0.  0.
     999903    2    3    3    0    0 -0.11386654181E+00  0.43468840189E-01  0.31528101230E-01  0.12746600617E+00  0.19960765342E-01 0.  0.
         14    1    1    2    0    0 -0.20194142285E-01  0.12927004176E-01 -0.27090514727E-03  0.23978828353E-01  0.00000000000E+00 0.  1.
     999901    1    3    3    0    0  0.13406068409E+00 -0.56395844364E-01 -0.31257196083E-01  0.89248516547E+00  0.88000000000E+00 0. -1.
        -11    1    4    4    0    0 -0.99633455682E-01  0.32210594200E-01  0.31372371941E-01  0.10931072551E+00  0.51100000000E-03 0. -1.
         11    1    4    4    0    0 -0.14233086123E-01  0.11258245988E-01  0.15572928898E-03  0.18155280662E-01  0.51100000000E-03 0.  1.
</event>
<event>
 8    1  0.1123285E+005  0.1043930E+01  0.7957747E-01            NaN
         13   -1    0    0    0    0  0.00000000000E+00  0.00000000000E+00  0.74505805969E-08  0.10566000000E+00  0.10566000000E+00 0.  1.
     999900   -1    0    0    0    0 -0.00000000000E+00 -0.00000000000E+00 -0.74505805969E-08  0.93827000000E+00  0.93827000000E+00 0.  1.
     999902    2    1    2    0    0  0.14977398711E-02 -0.16072563151E-01  0.17168620901E-01  0.10203645156E+01  0.10200923550E+01 0.  0.
     999903    2    3    3    0    0 -0.91308531083E-01  0.77880027705E-01  0.45761874121E-01  0.13005127445E+00  0.20411719636E-01 0.  0.
         14    1    1    2    0    0 -0.14977398711E-02  0.16072563151E-01 -0.17168620901E-01  0.23565484391E-01  0.00000000000E+00 0. -1.
     999901    1    3    3    0    0  0.92806270954E-01 -0.93952590856E-01 -0.28593253220E-01  0.89031324116E+00  0.88000000000E+00 0. -1.
        -11    1    4    4    0    0 -0.87960257363E-01  0.78314627240E-01  0.42169424079E-01  0.12509480070E+00  0.51100000000E-03 0.  1.
         11    1    4    4    0    0 -0.33482737200E-02 -0.43459953519E-03  0.35924500423E-02  0.49564737431E-02  0.51100000000E-03 0. -1.
</event>
<event>
 8    1  0.1123285E+005  0.1043930E+01  0.7957747E-01            NaN
         13   -1    0    0    0    0  0.00000000000E+00  0.00000000000E+00  0.74505805969E-08  0.10566000000E+00  0.10566000000E+00 0.  1.
     999900   -1    0    0    0    0 -0.00000000000E+00 -0.00000000000E+00 -0.74505805969E-08  0.93827000000E+00  0.93827000000E+00 0.  1.
     999902    2    1    2    0    0  0.52741142992E-02  0.21356157936E-01 -0.11467228275E-01  0.10191227614E+01  0.10188207908E+01 0.  0.
     999903    2    3    3    0    0  0.12369761542E+00 -0.24657149819E-01  0.21083779381E-01  0.12940318859E+00  0.19788490768E-01 0.  0.
         14    1    1    2    0    0 -0.52741142992E-02 -0.21356157936E-01  0.11467228275E-01  0.24807238616E-01  0.00000000000E+00 0. -1.
     999901    1    3    3    0    0 -0.11842350112E+00  0.46013307755E-01 -0.32551007656E-01  0.88971957279E+00  0.88000000000E+00 0. -1.
        -11    1    4    4    0    0  0.31071285327E-01  0.24142370597E-02  0.54794636243E-02  0.31647100263E-01  0.51100000000E-03 0.  1.
         11    1    4    4    0    0  0.92626330095E-01 -0.27071386879E-01  0.15604315757E-01  0.97756088330E-01  0.51100000000E-03 0. -1.
</event>
<event>
 8    1  0.1123285E+005  0.1043930E+01  0.7957747E-01            NaN
         13   -1    0    0    0    0  0.00000000000E+00  0.00000000000E+00  0.74505805969E-08  0.10566000000E+00  0.10566000000E+00 0.  1.
     999900   -1    0    0    0    0 -0.00000000000E+00 -0.00000000000E+00 -0.74505805969E-08  0.93827000000E+00  0.93827000000E+00 0.  1.
     999902    2    1    2    0    0  0.18790138916E-01 -0.88802893915E-02  0.14275118233E-01  0.10187167523E+01  0.10184046904E+01 0.  0.
     999903    2    3    3    0    0  0.22023474391E-01 -0.12504307153E+00 -0.19168372757E-01  0.13044724728E+00  0.22983790982E-01 0.  0.
         14    1    1    2    0    0 -0.18790138916E-01  0.88802893915E-02 -0.14275118233E-01  0.25213247723E-01  0.00000000000E+00 0. -1.
     999901    1    3    3    0    0 -0.32333354749E-02  0.11616278214E+00  0.33443490990E-01  0.88826950499E+00  0.88000000000E+00 0.  1.
        -11    1    4    4    0    0  0.12582606437E-02 -0.72437015129E-01 -0.95400135996E-02  0.73075148724E-01  0.51100000000E-03 0. -1.
         11    1    4    4    0    0  0.20765213747E-01 -0.52606056401E-01 -0.96283591575E-02  0.57372098559E-01  0.51100000000E-03 0.  1.
</event>
<event>
 8    1  0.1123285E+005  0.1043930E+01  0.7957747E-01            NaN
         13   -1    0    0    0    0  0.00000000000E+00  0.00000000000E+00  0.74505805969E-08  0.10566000000E+00  0.10566000000E+00 0.  1.
     999900   -1    0    0    0    0 -0.00000000000E+00 -0.00000000000E+00 -0.74505805969E-08  0.93827000000E+00  0.93827000000E+00 0.  1.
     999902    2    1    2    0    0 -0.19418736553E-01  0.56156883727E-02 -0.94060758948E-02  0.10216343155E+01  0.10213910010E+01 0.  0.
     999903    2    3    3    0    0 -0.72057990899E-01  0.31208433750E-01  0.10465090137E+00  0.13234534456E+00  0.19928840368E-01 0.  0.
         14    1    1    2    0    0  0.19418736553E-01 -0.56156883727E-02  0.94060758948E-02  0.22295684536E-01  0.00000000000E+00 0. -1.
     999901    1    3    3    0    0  0.52639254346E-01 -0.25592745377E-01 -0.11405697727E+00  0.88928897091E+00  0.88000000000E+00 0.  1.
        -11    1    4    4    0    0 -0.30119567852E-01  0.44544462969E-02  0.49085318453E-01  0.57763830102E-01  0.51100000000E-03 0. -1.
         11    1    4    4    0    0 -0.41938423047E-01  0.26753987453E-01  0.55565582919E-01  0.74581514455E-01  0.51100000000E-03 0.  1.
</event>
<event>
 8    1  0.1245855E+005  0.1043930E+01  0.7957747E-01            NaN
         13   -1    0    0    0    0  0.00000000000E+00  0.00000000000E+00  0.74505805969E-08  0.10566000000E+00  0.10566000000E+00 0.  1.
     999900   -1    0    0    0    0 -0.00000000000E+00 -0.00000000000E+00 -0.74505805969E-08  0.93827000000E+00  0.93827000000E+00 0. -1.
     999902    2    1    2    0    0  0.12335217148E-01 -0.19921393598E-02 -0.24396361233E-01  0.10165199901E+01  0.10161503735E+01 0.  0.
     999903    2    3    3    0    0  0.86159818339E-01  0.31772153059E-01 -0.90339758778E-01  0.13032665292E+00  0.19768167314E-01 0.  0.
         14    1    1    2    0    0 -0.12335217148E-01  0.19921393598E-02  0.24396361233E-01  0.27410009900E-01  0.00000000000E+00 0.  1.
     999901    1    3    3    0    0 -0.73824601192E-01 -0.33764292419E-01  0.65943397545E-01  0.88619333718E+00  0.88000000000E+00 0.  1.
        -11    1    4    4    0    0  0.29809666129E-01  0.20541193727E-01 -0.39777839619E-01  0.53787493715E-01  0.51100000000E-03 0.  1.
         11    1    4    4    0    0  0.56350152210E-01  0.11230959332E-01 -0.50561919159E-01  0.76539159204E-01  0.51100000000E-03 0. -1.
</event>
<event>
 8    1  0.1123285E+005  0.1043930E+01  0.7957747E-01            NaN
         13   -1    0    0    0    0  0.00000000000E+00  0.00000000000E+00  0.74505805969E-08  0.10566000000E+00  0.10566000000E+00 0. -1.
     999900   -1    0    0    0    0 -0.00000000000E+00 -0.00000000000E+00 -0.74505805969E-08  0.93827000000E+00  0.93827000000E+00 0. -1.
     999902    2    1    2    0    0 -0.18230434952E-01 -0.14653362072E-01 -0.57208789576E-02  0.10198510001E+01  0.10195667042E+01 0.  0.
     999903    2    3    3    0    0 -0.67549012692E-01  0.93035487604E-01  0.56706982869E-01  0.12972379103E+00  0.19852178304E-01 0.  0.
         14    1    1    2    0    0  0.18230434952E-01  0.14653362072E-01  0.57208789576E-02  0.24078999867E-01  0.00000000000E+00 0. -1.
     999901    1    3    3    0    0  0.49318577741E-01 -0.10768884968E+00 -0.62427861827E-01  0.89012720910E+00  0.88000000000E+00 0. -1.
        -11    1    4    4    0    0 -0.37178359044E-01  0.35655979413E-01  0.29181607518E-01  0.59206474202E-01  0.51100000000E-03 0. -1.
         11    1    4    4    0    0 -0.30370653648E-01  0.57379508191E-01  0.27525375351E-01  0.70517316827E-01  0.51100000000E-03 0.  1.
</event>
<event>
 8    1  0.1123285E+005  0.1043930E+01  0.7957747E-01            NaN
         13   -1    0    0    0    0  0.00000000000E+00  0.00000000000E+00  0.74505805969E-08  0.10566000000E+00  0.10566000000E+00 0. -1.
     999900   -1    0    0    0    0 -0.00000000000E+00 -0.00000000000E+00 -0.74505805969E-08  0.93827000000E+00  0.93827000000E+00 0. -1.
     999902    2    1    2    0    0 -0.47059967360E-02 -0.21037647103E-01 -0.11060403503E-01  0.10197006474E+01  0.10194127470E+01 0.  0.
     999903    2    3    3    0    0 -0.96124941442E-01 -0.41450576824E-01 -0.78197989086E-01  0.13218638469E+00  0.20004002439E-01 0.  0.
         14    1    1    2    0    0  0.47059967360E-02  0.21037647103E-01  0.11060403503E-01  0.24229352582E-01  0.00000000000E+00 0.  1.
     999901    1    3    3    0    0  0.91418944706E-01  0.20412929721E-01  0.67137585583E-01  0.88751426273E+00  0.88000000000E+00 0.  1.
        -11    1    4    4    0    0 -0.96202419778E-01 -0.42225964564E-01 -0.75625822071E-01  0.12945062278E+00  0.51100000000E-03 0. -1.
         11    1    4    4    0    0  0.77478335463E-04  0.77538774029E-03 -0.25721670148E-02  0.27357619034E-02  0.51100000000E-03 0.  1.
</event>
<event>
 8    1  0.1123285E+005  0.1043930E+01  0.7957747E-01            NaN
         13   -1    0    0    0    0  0.00000000000E+00  0.00000000000E+00  0.74505805969E-08  0.10566000000E+00  0.10566000000E+00 0.  1.
     999900   -1    0    0    0    0 -0.00000000000E+00 -0.00000000000E+00 -0.74505805969E-08  0.93827000000E+00  0.93827000000E+00 0.  1.
     999902    2    1    2    0    0 -0.20483815997E-01 -0.52209680361E-02  0.11731895970E-01  0.10197539249E+01  0.10194673044E+01 0.  0.
     999903    2    3    3    0    0  0.11544222363E+00  0.42140908643E-01  0.28148366726E-01  0.12790834625E+00  0.21574320675E-01 0.  0.
         14    1    1    2    0    0  0.20483815997E-01  0.52209680361E-02 -0.11731895970E-01  0.24176075118E-01  0.00000000000E+00 0. -1.
     999901    1    3    3    0    0 -0.13592603963E+00 -0.47361876679E-01 -0.16416470756E-01  0.89184557863E+00  0.88000000000E+00 0.  1.
        -11    1    4    4    0    0  0.36220725966E-01  0.24137263833E-01  0.97224079152E-02  0.44601959952E-01  0.51100000000E-03 0. -1.
         11    1    4    4    0    0  0.79221497667E-01  0.18003644809E-01  0.18425958811E-01  0.83306386299E-01  0.51100000000E-03 0.  1.
</event>
<event>
 8    1  0.1123285E+005  0.1043930E+01  0.7957747E-01            NaN
         13   -1    0    0    0    0  0.00000000000E+00  0.00000000000E+00  0.74505805969E-08  0.10566000000E+00  0.10566000000E+00 0. -1.
     999900   -1    0    0    0    0 -0.00000000000E+00 -0.00000000000E+00 -0.74505805969E-08  0.93827000000E+00  0.93827000000E+00 0.  1.
     999902    2    1    2    0    0 -0.22163016854E-01 -0.88190104617E-02  0.33591982787E-02  0.10198414452E+01  0.10195569208E+01 0.  0.
     999903    2    3    3    0    0 -0.99376883912E-01  0.88061153820E-02  0.84935992950E-01  0.13252673224E+00  0.19897214249E-01 0.  0.
         14    1    1    2    0    0  0.22163016854E-01  0.88190104617E-02 -0.33591982787E-02  0.24088554848E-01  0.00000000000E+00 0.  1.
     999901    1    3    3    0    0  0.77213867058E-01 -0.17625125844E-01 -0.81576794671E-01  0.88731471292E+00  0.88000000000E+00 0.  1.
        -11    1    4    4    0    0 -0.14635637299E-01 -0.46732530190E-02  0.82547713124E-02  0.17448310616E-01  0.51100000000E-03 0.  1.
         11    1    4    4    0    0 -0.84741246612E-01  0.13479368401E-01  0.76681221638E-01  0.11507842162E+00  0.51100000000E-03 0. -1.
</event>
<event>
 8    1  0.1123285E+005  0.1043930E+01  0.7957747E-01            NaN
         13   -1    0    0    0    0  0.00000000000E+00  0.00000000000E+00  0.74505805969E-08  0.10566000000E+00  0.10566000000E+00 0. -1.
     999900   -1    0    0    0    0 -0.00000000000E+00 -0.00000000000E+00 -0.74505805969E-08  0.93827000000E+00  0.93827000000E+00 0. -1.
     999902    2    1    2    0    0 -0.18106241834E-02  0.33418164739E-02  0.25125947392E-01  0.10185182049E+01  0.10182011463E+01 0.  0.
     999903    2    3    3    0    0  0.15534141964E-02  0.97315356106E-01 -0.79756006968E-01  0.12731532831E+00  0.19377320412E-01 0.  0.
         14    1    1    2    0    0  0.18106241834E-02 -0.33418164739E-02 -0.25125947392E-01  0.25411795088E-01  0.00000000000E+00 0.  1.
     999901    1    3    3    0    0 -0.33640383798E-02 -0.93973539633E-01  0.10488195436E+00  0.89120287660E+00  0.88000000000E+00 0. -1.
        -11    1    4    4    0    0  0.10333110249E-01  0.44669035537E-01 -0.37785066685E-01  0.59414377794E-01  0.51100000000E-03 0. -1.
         11    1    4    4    0    0 -0.87796960526E-02  0.52646320570E-01 -0.41970940283E-01  0.67900950521E-01  0.51100000000E-03 0.  1.
</event>
<event>
 8    1  0.1123285E+005  0.1043930E+01  0.7957747E-01            NaN
         13   -1    0    0    0    0  0.00000000000E+00  0.00000000000E+00  0.74505805969E-08  0.10566000000E+00  0.10566000000E+00 0. -1.
     999900   -1    0    0    0    0 -0.00000000000E+00 -0.00000000000E+00 -0.74505805969E-08  0.93827000000E+00  0.93827000000E+00 0. -1.
     999902    2    1    2    0    0  0.47299132908E-02 -0.32386016236E-02  0.22505744130E-01  0.10207056779E+01  0.10204414298E+01 0.  0.
     999903    2    3    3    0    0 -0.91812534139E-01 -0.88500405493E-01  0.24043582031E-01  0.13132815155E+00  0.20177372345E-01 0.  0.
         14    1    1    2    0    0 -0.47299132908E-02  0.32386016236E-02 -0.22505744130E-01  0.23224322144E-01  0.00000000000E+00 0.  1.
     999901    1    3    3    0    0  0.96542447430E-01  0.85261803869E-01 -0.15378379012E-02  0.88937752631E+00  0.88000000000E+00 0.  1.
        -11    1    4    4    0    0 -0.34438278477E-01 -0.37604333080E-01  0.14507300412E-03  0.50993755089E-01  0.51100000000E-03 0. -1.
         11    1    4    4    0    0 -0.57374255662E-01 -0.50896072413E-01  0.23898509027E-01  0.80334396460E-01  0.51100000000E-03 0.  1.
</event>
<event>
 8    1  0.1123285E+005  0.1043930E+01  0.7957747E-01            NaN
         13   -1    0    0    0    0  0.00000000000E+00  0.00000000000E+00  0.74505805969E-08  0.10566000000E+00  0.10566000000E+00 0. -1.
     999900   -1    0    0    0    0 -0.00000000000E+00 -0.00000000000E+00 -0.74505805969E-08  0.93827000000E+00  0.93827000000E+00 0.  1.
     999902    2    1    2    0    0 -0.19706061869E-01  0.34563005271E-02 -0.11635469667E-01  0.10207856909E+01  0.10205232813E+01 0.  0.
     999903    2    3    3    0    0 -0.13179262902E+00  0.10617237007E-02 -0.99166417316E-02  0.13367121867E+00  0.19980755678E-01 0.  0.
         14    1    1    2    0    0  0.19706061869E-01 -0.34563005271E-02  0.11635469667E-01  0.23144309065E-01  0.00000000000E+00 0. -1.
     999901    1    3    3    0    0  0.11208656715E+00  0.23945768264E-02 -0.17188279354E-02  0.88711447227E+00  0.88000000000E+00 0. -1.
        -11    1    4    4    0    0 -0.11779533285E+00  0.42606359512E-02 -0.34716331561E-02  0.11792458106E+00  0.51100000000E-03 0.  1.
         11    1    4    4    0    0 -0.13997296162E-01 -0.31989122505E-02 -0.64450085755E-02  0.15746637609E-01  0.51100000000E-03 0. -1.
</event>
<event>
 8    1  0.1123285E+005  0.1043930E+01  0.7957747E-01            NaN
         13   -1    0    0    0    0  0.00000000000E+00  0.00000000000E+00  0.74505805969E-08  0.10566000000E+00  0.10566000000E+00 0. -1.
     999900   -1    0    0    0    0 -0.00000000000E+00 -0.00000000000E+00 -0.74505805969E-08  0.93827000000E+00  0.93827000000E+00 0. -1.
     999902    2    1    2    0    0 -0.10240465455E-01  0.15923700132E-01  0.13372664853E-01  0.10207511406E+01  0.10204879379E+01 0.  0.
     999903    2    3    3    0    0  0.10614440472E+00  0.73744373644E-01  0.10918583364E-01  0.13120367653E+00  0.19756567898E-01 0.  0.
         14    1    1    2    0    0  0.10240465455E-01 -0.15923700132E-01 -0.13372664853E-01  0.23178859418E-01  0.00000000000E+00 0. -1.
     999901    1    3    3    0    0 -0.11638487017E+00 -0.57820673511E-01  0.24540814887E-02  0.88954746405E+00  0.88000000000E+00 0. -1.
        -11    1    4    4    0    0  0.53481579779E-01  0.33599930590E-01 -0.41197444871E-02  0.63296667582E-01  0.51100000000E-03 0.  1.
         11    1    4    4    0    0  0.52662824936E-01  0.40144443054E-01  0.15038327851E-01  0.67907008946E-01  0.51100000000E-03 0. -1.
</event>
<event>
 8    1  0.1123285E+005  0.1043930E+01  0.7957747E-01            NaN
         13   -1    0    0    0    0  0.00000000000E+00  0.00000000000E+00  0.74505805969E-08  0.10566000000E+00  0.10566000000E+00 0. -1.
     999900   -1    0    0    0    0 -0.00000000000E+00 -0.00000000000E+00 -0.74505805969E-08  0.93827000000E+00  0.93827000000E+00 0.  1.
     999902    2    1    2    0    0 -0.13287718161E-01  0.19571044106E-01  0.30557312059E-02  0.10200778153E+01  0.10197989128E+01 0.  0.
     999903    2    3    3    0    0  0.11567520170E+00  0.48898709025E-01  0.26013364639E-01  0.12989884479E+00  0.20619861865E-01 0.  0.
         14    1    1    2    0    0  0.13287718161E-01 -0.19571044106E-01 -0.30557312059E-02  0.23852184691E-01  0.00000000000E+00 0. -1.
     999901    1    3    3    0    0 -0.12896291986E+00 -0.29327664919E-01 -0.22957633433E-01  0.89017897052E+00  0.88000000000E+00 0.  1.
        -11    1    4    4    0    0  0.47308670585E-01  0.12115710316E-01  0.17138396524E-01  0.51757960792E-01  0.51100000000E-03 0.  1.
         11    1    4    4    0    0  0.68366531119E-01  0.36782998709E-01  0.88749681149E-02  0.78140883993E-01  0.51100000000E-03 0. -1.
</event>
<event>
 8    1  0.1123285E+005  0.1043930E+01  0.7957747E-01            NaN
         13   -1    0    0    0    0  0.00000000000E+00  0.00000000000E+00  0.74505805969E-08  0.10566000000E+00  0.10566000000E+00 0. -1.
     999900   -1    0    0    0    0 -0.00000000000E+00 -0.00000000000E+00 -0.74505805969E-08  0.93827000000E+00  0.93827000000E+00 0. -1.
     999902    2    1    2    0    0 -0.24029320973E-01 -0.25706534115E-02  0.64093134119E-02  0.10189280836E+01  0.10186212955E+01 0.  0.
     999903    2    3    3    0    0  0.38265488916E-01 -0.11649887225E+00  0.33885847650E-01  0.12897570154E+00  0.21219001851E-01 0.  0.
         14    1    1    2    0    0  0.24029320973E-01  0.25706534115E-02 -0.64093134119E-02  0.25001916403E-01  0.00000000000E+00 0.  1.
     999901    1    3    3    0    0 -0.62294809890E-01  0.11392821884E+00 -0.27476534238E-01  0.88995238205E+00  0.88000000000E+00 0.  1.
        -11    1    4    4    0    0  0.23981142560E-01 -0.44164086602E-01  0.19160961663E-01  0.53786293019E-01  0.51100000000E-03 0. -1.
         11    1    4    4    0    0  0.14284346356E-01 -0.72334785651E-01  0.14724885987E-01  0.75189408526E-01  0.51100000000E-03 0.  1.
</event>
<event>
 8    1  0.1123285E+005  0.1043930E+01  0.7957747E-01            NaN
         13   -1    0    0    0    0  0.00000000000E+00  0.00000000000E+00  0.74505805969E-08  0.10566000000E+00  0.10566000000E+00 0.  1.
     999900   -1    0    0    0    0 -0.00000000000E+00 -0.00000000000E+00 -0.74505805969E-08  0.93827000000E+00  0.93827000000E+00 0. -1.
     999902    2    1    2    0    0 -0.16431120710E-01  0.10892747250E-01 -0.13552258902E-01  0.10200072620E+01  0.10197266875E+01 0.  0.
     999903    2    3    3    0    0  0.17273629988E-01  0.11866707898E+00  0.47994999196E-01  0.13065953376E+00  0.19701266162E-01 0.  0.
         14    1    1    2    0    0  0.16431120710E-01 -0.10892747250E-01  0.13552258902E-01  0.23922737966E-01  0.00000000000E+00 0.  1.
     999901    1    3    3    0    0 -0.33704750698E-01 -0.10777433173E+00 -0.61547258097E-01  0.88934772827E+00  0.88000000000E+00 0. -1.
        -11    1    4    4    0    0  0.79459984973E-02  0.12266099092E-01  0.41587845231E-02  0.15203706415E-01  0.51100000000E-03 0.  1.
         11    1    4    4    0    0  0.93276314912E-02  0.10640097989E+00  0.43836214673E-01  0.11545582735E+00  0.51100000000E-03 0. -1.
</event>
<event>
 8    1  0.1123285E+005  0.1043930E+01  0.7957747E-01            NaN
         13   -1    0    0    0    0  0.00000000000E+00  0.00000000000E+00  0.74505805969E-08  0.10566000000E+00  0.10566000000E+00 0. -1.
     999900   -1    0    0    0    0 -0.00000000000E+00 -0.00000000000E+00 -0.74505805969E-08  0.93827000000E+00  0.93827000000E+00 0. -1.
     999902    2    1    2    0    0 -0.66437579396E-02 -0.22182376261E-01  0.56736953198E-02  0.10200891075E+01  0.10198104721E+01 0.  0.
     999903    2    3    3    0    0 -0.74055311584E-01  0.91381015248E-01 -0.48316414808E-01  0.12859828117E+00  0.19192781416E-01 0.  0.
         14    1    1    2    0    0  0.66437579396E-02  0.22182376261E-01 -0.56736953198E-02  0.23840892490E-01  0.00000000000E+00 0.  1.
     999901    1    3    3    0    0  0.67411553644E-01 -0.11356339151E+00  0.53990110128E-01  0.89149082634E+00  0.88000000000E+00 0. -1.
        -11    1    4    4    0    0  0.82658191908E-03  0.16892578094E-02 -0.23157634642E-02  0.30266666545E-02  0.51100000000E-03 0. -1.
         11    1    4    4    0    0 -0.74881893503E-01  0.89691757439E-01 -0.46000651344E-01  0.12557161452E+00  0.51100000000E-03 0.  1.
</event>
<event>
 8    1  0.1123285E+005  0.1043930E+01  0.7957747E-01            NaN
         13   -1    0    0    0    0  0.00000000000E+00  0.00000000000E+00  0.74505805969E-08  0.10566000000E+00  0.10566000000E+00 0.  1.
     999900   -1    0    0    0    0 -0.00000000000E+00 -0.00000000000E+00 -0.74505805969E-08  0.93827000000E+00  0.93827000000E+00 0. -1.
     999902    2    1    2    0    0  0.21811412727E-01  0.17430910005E-01 -0.13453125842E-01  0.10129370824E+01  0.10124628249E+01 0.  0.
     999903    2    3    3    0    0 -0.10070998017E+00 -0.63065005241E-01  0.59545092871E-02  0.12059872703E+00  0.19720593019E-01 0.  0.
         14    1    1    2    0    0 -0.21811412727E-01 -0.17430910005E-01  0.13453125842E-01  0.30992917637E-01  0.00000000000E+00 0.  1.
     999901    1    3    3    0    0  0.12252139290E+00  0.80495915246E-01 -0.19407635129E-01  0.89233835533E+00  0.88000000000E+00 0. -1.
        -11    1    4    4    0    0 -0.69668282628E-01 -0.32475024283E-01  0.38907736028E-02  0.76965551040E-01  0.51100000000E-03 0. -1.
         11    1    4    4    0    0 -0.31041697544E-01 -0.30589980958E-01  0.20637356842E-02  0.43633175995E-01  0.51100000000E-03 0.  1.
</event>
<event>
 8    1  0.1123285E+005  0.1043930E+01  0.7957747E-01            NaN
         13   -1    0    0    0    0  0.00000000000E+00  0.00000000000E+00  0.74505805969E-08  0.10566000000E+00  0.10566000000E+00 0.  1.
     999900   -1    0    0    0    0 -0.00000000000E+00 -0.00000000000E+00 -0.74505805969E-08  0.93827000000E+00  0.93827000000E+00 0. -1.
     999902    2    1    2    0    0  0.15716247071E-01 -0.26093336655E-02 -0.14818558259E-01  0.10221722723E+01  0.10219406811E+01 0.  0.
     999903    2    3    3    0    0 -0.83196375915E-01  0.91916570777E-01 -0.38392213442E-01  0.13128812116E+00  0.19806962321E-01 0.  0.
         14    1    1    2    0    0 -0.15716247071E-01  0.26093336655E-02  0.14818558259E-01  0.21757727663E-01  0.00000000000E+00 0.  1.
     999901    1    3    3    0    0  0.98912622986E-01 -0.94525904442E-01  0.23573655183E-01  0.89088415118E+00  0.88000000000E+00 0.  1.
        -11    1    4    4    0    0 -0.68914073616E-01  0.85580706351E-01 -0.34654209483E-01  0.11521450515E+00  0.51100000000E-03 0.  1.
         11    1    4    4    0    0 -0.14282302299E-01  0.63358644264E-02 -0.37380039594E-02  0.16073616009E-01  0.51100000000E-03 0. -1.
</event>
<event>
 8    1  0.1123285E+005  0.1043930E+01  0.7957747E-01            NaN
         13   -1    0    0    0    0  0.00000000000E+00  0.00000000000E+00  0.74505805969E-08  0.10566000000E+00  0.10566000000E+00 0.  1.
     999900   -1    0    0    0    0 -0.00000000000E+00 -0.00000000000E+00 -0.74505805969E-08  0.93827000000E+00  0.93827000000E+00 0. -1.
     999902    2    1    2    0    0  0.13396451726E-01 -0.45592862497E-02  0.18390637938E-01  0.10207250959E+01  0.10204612946E+01 0.  0.
     999903    2    3    3    0    0  0.24833369699E-01 -0.79568511077E-01 -0.97703069219E-01  0.12986318981E+00  0.19253937969E-01 0.  0.
         14    1    1    2    0    0 -0.13396451726E-01  0.45592862497E-02 -0.18390637938E-01  0.23204904088E-01  0.00000000000E+00 0. -1.
     999901    1    3    3    0    0 -0.11436917973E-01  0.75009224827E-01  0.11609370716E+00  0.89086190610E+00  0.88000000000E+00 0.  1.
        -11    1    4    4    0    0  0.20641244542E-01 -0.57905802242E-01 -0.83220427054E-01  0.10346518018E+00  0.51100000000E-03 0.  1.
         11    1    4    4    0    0  0.41921251566E-02 -0.21662708835E-01 -0.14482642165E-01  0.26398009631E-01  0.51100000000E-03 0. -1.
</event>
<event>
 8    1  0.1123285E+005  0.1043930E+01  0.7957747E-01            NaN
         13   -1    0    0    0    0  0.00000000000E+00  0.00000000000E+00  0.74505805969E-08  0.10566000000E+00  0.10566000000E+00 0.  1.
     999900   -1    0    0    0    0 -0.00000000000E+00 -0.00000000000E+00 -0.74505805969E-08  0.93827000000E+00  0.93827000000E+00 0. -1.
     999902    2    1    2    0    0 -0.93146173541E-02  0.91854548277E-02  0.22236038560E-01  0.10181312386E+01  0.10178043245E+01 0.  0.
     999903    2    3    3    0    0  0.10351036081E+00 -0.14816381069E-01  0.72921948631E-01  0.12915732153E+00  0.20738446667E-01 0.  0.
         14    1    1    2    0    0  0.93146173541E-02 -0.91854548277E-02 -0.22236038560E-01  0.25798761360E-01  0.00000000000E+00 0. -1.
     999901    1    3    3    0    0 -0.11282497816E+00  0.24001835896E-01 -0.50685910070E-01  0.88897391711E+00  0.88000000000E+00 0. -1.
        -11    1    4    4    0    0  0.72995593164E-01 -0.81729846104E-03  0.48681629424E-01  0.87745009901E-01  0.51100000000E-03 0. -1.
         11    1    4    4    0    0  0.30514767644E-01 -0.13999082608E-01  0.24240319207E-01  0.41412311629E-01  0.51100000000E-03 0.  1.
</event>
<event>
 8    1  0.1123285E+005  0.1043930E+01  0.7957747E-01            NaN
         13   -1    0    0    0    0  0.00000000000E+00  0.00000000000E+00  0.74505805969E-08  0.10566000000E+00  0.10566000000E+00 0. -1.
     999900   -1    0    0    0    0 -0.00000000000E+00 -0.00000000000E+00 -0.74505805969E-08  0.93827000000E+00  0.93827000000E+00 0.  1.
     999902    2    1    2    0    0  0.80990464545E-02  0.17720475008E-01 -0.15646896141E-01  0.10189412996E+01  0.10186348398E+01 0.  0.
     999903    2    3    3    0    0 -0.87568214914E-01  0.36172619442E-01  0.83954116786E-01  0.12797942147E+00  0.18809251298E-01 0.  0.
         14    1    1    2    0    0 -0.80990464545E-02 -0.17720475008E-01  0.15646896141E-01  0.24988700383E-01  0.00000000000E+00 0. -1.
     999901    1    3    3    0    0  0.95667261368E-01 -0.18452144434E-01 -0.99601012927E-01  0.89096187815E+00  0.88000000000E+00 0.  1.
        -11    1    4    4    0    0 -0.68807687505E-01  0.30373262583E-01  0.55814314943E-01  0.93661794843E-01  0.51100000000E-03 0. -1.
         11    1    4    4    0    0 -0.18760527409E-01  0.57993568593E-02  0.28139801843E-01  0.34317626629E-01  0.51100000000E-03 0.  1.
</event>
<event>
 8    1  0.1123285E+005  0.1043930E+01  0.7957747E-01            NaN
         13   -1    0    0    0    0  0.00000000000E+00  0.00000000000E+00  0.74505805969E-08  0.10566000000E+00  0.10566000000E+00 0. -1.
     999900   -1    0    0    0    0 -0.00000000000E+00 -0.00000000000E+00 -0.74505805969E-08  0.93827000000E+00  0.93827000000E+00 0. -1.
     999902    2    1    2    0    0 -0.21324291691E-01 -0.77328195273E-02 -0.34776709537E-02  0.10209818822E+01  0.10207239528E+01 0.  0.
     999903    2    3    3    0    0 -0.10066328435E-02  0.58510729674E-01  0.11480894374E+00  0.13036819589E+00  0.19754851059E-01 0.  0.
         14    1    1    2    0    0  0.21324291691E-01  0.77328195273E-02  0.34776709537E-02  0.22948117771E-01  0.00000000000E+00 0.  1.
     999901    1    3    3    0    0 -0.20317658847E-01 -0.66243549201E-01 -0.11828661470E+00  0.89061368634E+00  0.88000000000E+00 0. -1.
        -11    1    4    4    0    0 -0.60173672383E-02  0.45439201423E-02  0.14596092456E-01  0.16436634532E-01  0.51100000000E-03 0.  1.
         11    1    4    4    0    0  0.50107343947E-02  0.53966809531E-01  0.10021285129E+00  0.11393156136E+00  0.51100000000E-03 0. -1.
</event>
<event>
 8    1  0.1123285E+005  0.1043930E+01  0.7957747E-01            NaN
         13   -1    0    0    0    0  0.00000000000E+00  0.00000000000E+00  0.74505805969E-08  0.10566000000E+00  0.10566000000E+00 0.  1.
     999900   -1    0    0    0    0 -0.00000000000E+00 -0.00000000000E+00 -0.74505805969E-08  0.93827000000E+00  0.93827000000E+00 0.  1.
     999902    2    1    2    0    0  0.14103431710E-01  0.16353857831E-01  0.75508188836E-02  0.10210527117E+01  0.10207963900E+01 0.  0.
     999903    2    3    3    0    0  0.11349487232E+00 -0.37610266749E-01 -0.52487733757E-01  0.13178592781E+00  0.17803099927E-01 0.  0.
         14    1    1    2    0    0 -0.14103431710E-01 -0.16353857831E-01 -0.75508188836E-02  0.22877288252E-01  0.00000000000E+00 0. -1.
     999901    1    3    3    0    0 -0.99391440608E-01  0.53964124580E-01  0.60038552640E-01  0.88926678394E+00  0.88000000000E+00 0. -1.
        -11    1    4    4    0    0  0.74229164351E-01 -0.17884677472E-01 -0.27021857330E-01  0.80995508660E-01  0.51100000000E-03 0. -1.
         11    1    4    4    0    0  0.39265707967E-01 -0.19725589277E-01 -0.25465876427E-01  0.50790419152E-01  0.51100000000E-03 0.  1.
</event>
<event>
 8    1  0.1123285E+005  0.1043930E+01  0.7957747E-01            NaN
         13   -1    0    0    0    0  0.00000000000E+00  0.00000000000E+00  0.74505805969E-08  0.10566000000E+00  0.10566000000E+00 0.  1.
     999900   -1    0    0    0    0 -0.00000000000E+00 -0.00000000000E+00 -0.74505805969E-08  0.93827000000E+00  0.93827000000E+00 0.  1.
     999902    2    1    2    0    0  0.18068888549E-01 -0.15207044865E-01 -0.37383634070E-02  0.10200194520E+01  0.10197391667E+01 0.  0.
     999903    2    3    3    0    0 -0.11420448281E+00 -0.53320503102E-01  0.19402841195E-01  0.12901754633E+00  0.19578484875E-01 0.  0.
         14    1    1    2    0    0 -0.18068888549E-01  0.15207044865E-01  0.37383634070E-02  0.23910548046E-01  0.00000000000E+00 0.  1.
     999901    1    3    3    0    0  0.13227337136E+00  0.38113458237E-01 -0.23141204602E-01  0.89100190562E+00  0.88000000000E+00 0. -1.
        -11    1    4    4    0    0 -0.25373364475E-01 -0.20996867988E-01  0.30047899380E-02  0.33075156442E-01  0.51100000000E-03 0. -1.
         11    1    4    4    0    0 -0.88831118337E-01 -0.32323635114E-01  0.16398051257E-01  0.95942389891E-01  0.51100000000E-03 0.  1.
</event>
<event>
 8    1  0.1123285E+005  0.1043930E+01  0.7957747E-01            NaN
         13   -1    0    0    0    0  0.00000000000E+00  0.00000000000E+00  0.74505805969E-08  0.10566000000E+00  0.10566000000E+00 0. -1.
     999900   -1    0    0    0    0 -0.00000000000E+00 -0.00000000000E+00 -0.74505805969E-08  0.93827000000E+00  0.93827000000E+00 0.  1.
     999902    2    1    2    0    0  0.30244971168E-02 -0.14738590754E-01 -0.16226290353E-01  0.10218015988E+01  0.10215619615E+01 0.  0.
     999903    2    3    3    0    0  0.93283881279E-01 -0.52599639923E-01  0.74236018653E-01  0.13176584402E+00  0.19561353680E-01 0.  0.
         14    1    1    2    0    0 -0.30244971168E-02  0.14738590754E-01  0.16226290353E-01  0.22128401181E-01  0.00000000000E+00 0. -1.
     999901    1    3    3    0    0 -0.90259384162E-01  0.37861049169E-01 -0.90462309006E-01  0.89003575480E+00  0.88000000000E+00 0.  1.
        -11    1    4    4    0    0  0.44396937929E-01 -0.14763108387E-01  0.27560535022E-01  0.54303606496E-01  0.51100000000E-03 0.  1.
         11    1    4    4    0    0  0.48886943350E-01 -0.37836531536E-01  0.46675483631E-01  0.77462237522E-01  0.51100000000E-03 0. -1.
</event>
<event>
 8    1  0.1123285E+005  0.1043930E+01  0.7957747E-01            NaN
         13   -1    0    0    0    0  0.00000000000E+00  0.00000000000E+00  0.74505805969E-08  0.10566000000E+00  0.10566000000E+00 0.  1.
     999900   -1    0    0    0    0 -0.00000000000E+00 -0.00000000000E+00 -0.74505805969E-08  0.93827000000E+00  0.93827000000E+00 0. -1.
     999902    2    1    2    0    0 -0.19923919946E-01  0.82546274342E-02 -0.10403140434E-01  0.10199857566E+01  0.10197046714E+01 0.  0.
     999903    2    3    3    0    0  0.67604844374E-02 -0.68603914933E-01 -0.10927412343E+00  0.13071933746E+00  0.19862271801E-01 0.  0.
         14    1    1    2    0    0  0.19923919946E-01 -0.82546274342E-02  0.10403140434E-01  0.23944243378E-01  0.00000000000E+00 0.  1.
     999901    1    3    3    0    0 -0.26684404383E-01  0.76858542367E-01  0.98870982993E-01  0.88926641916E+00  0.88000000000E+00 0. -1.
        -11    1    4    4    0    0  0.13529570099E-01 -0.36788560049E-01 -0.58731400997E-01  0.70612222749E-01  0.51100000000E-03 0. -1.
         11    1    4    4    0    0 -0.67690856620E-02 -0.31815354883E-01 -0.50542722430E-01  0.60107114710E-01  0.51100000000E-03 0.  1.
</event>
<event>
 8    1  0.1123285E+005  0.1043930E+01  0.7957747E-01            NaN
         13   -1    0    0    0    0  0.00000000000E+00  0.00000000000E+00  0.74505805969E-08  0.10566000000E+00  0.10566000000E+00 0. -1.
     999900   -1    0    0    0    0 -0.00000000000E+00 -0.00000000000E+00 -0.74505805969E-08  0.93827000000E+00  0.93827000000E+00 0.  1.
     999902    2    1    2    0    0 -0.20510289580E-01  0.70202084533E-02 -0.85163547557E-02  0.10206387226E+01  0.10203729311E+01 0.  0.
     999903    2    3    3    0    0 -0.65547189958E-01  0.60719420275E-01 -0.96908609452E-01  0.13343800209E+00  0.20763903941E-01 0.  0.
         14    1    1    2    0    0  0.20510289580E-01 -0.70202084533E-02  0.85163547557E-02  0.23291277417E-01  0.00000000000E+00 0.  1.
     999901    1    3    3    0    0  0.45036900378E-01 -0.53699211822E-01  0.88392254696E-01  0.88720072049E+00  0.88000000000E+00 0. -1.
        -11    1    4    4    0    0 -0.30553322861E-01  0.22688841567E-01 -0.55072670525E-01  0.66944374142E-01  0.51100000000E-03 0.  1.
         11    1    4    4    0    0 -0.34993867097E-01  0.38030578708E-01 -0.41835938927E-01  0.66493627952E-01  0.51100000000E-03 0. -1.
</event>
<event>
 8    1  0.1123285E+005  0.1043930E+01  0.7957747E-01            NaN
         13   -1    0    0    0    0  0.00000000000E+00  0.00000000000E+00  0.74505805969E-08  0.10566000000E+00  0.10566000000E+00 0. -1.
     999900   -1    0    0    0    0 -0.00000000000E+00 -0.00000000000E+00 -0.74505805969E-08  0.93827000000E+00  0.93827000000E+00 0. -1.
     999902    2    1    2    0    0  0.13644303191E-01  0.20216141275E-01 -0.32489708830E-02  0.10193248138E+01  0.10190278018E+01 0.  0.
     999903    2    3    3    0    0 -0.58854506228E-01  0.45642439322E-02 -0.11318279226E+00  0.12938857766E+00  0.21127572979E-01 0.  0.
         14    1    1    2    0    0 -0.13644303191E-01 -0.20216141275E-01  0.32489708830E-02  0.24605186230E-01  0.00000000000E+00 0.  1.
     999901    1    3    3    0    0  0.72498809418E-01  0.15651897343E-01  0.10993382137E+00  0.88993623611E+00  0.88000000000E+00 0.  1.
        -11    1    4    4    0    0 -0.12389282565E-01 -0.33896433201E-02 -0.11252753875E-01  0.17084191379E-01  0.51100000000E-03 0. -1.
         11    1    4    4    0    0 -0.46465223663E-01  0.79538872523E-02 -0.10193003838E+00  0.11230438628E+00  0.51100000000E-03 0.  1.
</event>
<event>
 8    1  0.1123285E+005  0.1043930E+01  0.7957747E-01            NaN
         13   -1    0    0    0    0  0.00000000000E+00  0.00000000000E+00  0.74505805969E-08  0.10566000000E+00  0.10566000000E+00 0. -1.
     999900   -1    0    0    0    0 -0.00000000000E+00 -0.00000000000E+00 -0.74505805969E-08  0.93827000000E+00  0.93827000000E+00 0.  1.
     999902    2    1    2    0    0 -0.14207432275E-01 -0.10367693535E-02  0.19254267879E-01  0.10199789488E+01  0.10196977018E+01 0.  0.
     999903    2    3    3    0    0 -0.95330019954E-01  0.85485323757E-01 -0.19797807622E-01  0.13116400099E+00  0.20408054469E-01 0.  0.
         14    1    1    2    0    0  0.14207432275E-01  0.10367693535E-02 -0.19254267879E-01  0.23951051211E-01  0.00000000000E+00 0.  1.
     999901    1    3    3    0    0  0.81122587679E-01 -0.86522093111E-01  0.39052075501E-01  0.88881494780E+00  0.88000000000E+00 0. -1.
        -11    1    4    4    0    0 -0.49416162792E-01  0.31041944330E-01 -0.66128256135E-02  0.58732870154E-01  0.51100000000E-03 0. -1.
         11    1    4    4    0    0 -0.45913857162E-01  0.54443379427E-01 -0.13184982009E-01  0.72431130838E-01  0.51100000000E-03 0.  1.
</event>
<event>
 8    1  0.1123285E+005  0.1043930E+01  0.7957747E-01            NaN
         13   -1    0    0    0    0  0.00000000000E+00  0.00000000000E+00  0.74505805969E-08  0.10566000000E+00  0.10566000000E+00 0. -1.
     999900   -1    0    0    0    0 -0.00000000000E+00 -0.00000000000E+00 -0.74505805969E-08  0.93827000000E+00  0.93827000000E+00 0. -1.
     999902    2    1    2    0    0  0.44403016400E-02 -0.22094050439E-01  0.64325416691E-02  0.10204941101E+01  0.10202249692E+01 0.  0.
     999903    2    3    3    0    0 -0.19377335729E-01 -0.10526258425E+00 -0.75621946267E-01  0.13245288140E+00  0.19219631946E-01 0.  0.
         14    1    1    2    0    0 -0.44403016400E-02  0.22094050439E-01 -0.64325416691E-02  0.23435889908E-01  0.00000000000E+00 0.  1.
     999901    1    3    3    0    0  0.23817637370E-01  0.83168533807E-01  0.82054487936E-01  0.88804122869E+00  0.88000000000E+00 0.  1.
        -11    1    4    4    0    0 -0.11451054540E-01 -0.45081013148E-01 -0.21991387059E-01  0.51451983658E-01  0.51100000000E-03 0.  1.
         11    1    4    4    0    0 -0.79262811899E-02 -0.60181571097E-01 -0.53630559207E-01  0.81000897743E-01  0.51100000000E-03 0. -1.
</event>
<event>
 8    1  0.1123285E+005  0.1043930E+01  0.7957747E-01            NaN
         13   -1    0    0    0    0  0.00000000000E+00  0.00000000000E+00  0.74505805969E-08  0.10566000000E+00  0.10566000000E+00 0. -1.
     999900   -1    0    0    0    0 -0.00000000000E+00 -0.00000000000E+00 -0.74505805969E-08  0.93827000000E+00  0.93827000000E+00 0.  1.
     999902    2    1    2    0    0  0.56666701472E-02  0.34464994196E-02 -0.22692133865E-01  0.10202884593E+01  0.10200145184E+01 0.  0.
     999903    2    3    3    0    0 -0.96493374119E-01  0.52883471902E-01  0.63604321402E-01  0.12881340797E+00  0.20970253291E-01 0.  0.
         14    1    1    2    0    0 -0.56666701472E-02 -0.34464994196E-02  0.22692133865E-01  0.23641540731E-01  0.00000000000E+00 0. -1.
     999901    1    3    3    0    0  0.10216004427E+00 -0.49436972482E-01 -0.86296455267E-01  0.89147505130E+00  0.88000000000E+00 0.  1.
        -11    1    4    4    0    0 -0.60252922155E-01  0.24381283888E-01  0.45178387136E-01  0.79159392478E-01  0.51100000000E-03 0.  1.
         11    1    4    4    0    0 -0.36240451964E-01  0.28502188014E-01  0.18425934266E-01  0.49654015495E-01  0.51100000000E-03 0. -1.
</event>
<event>
 8    1  0.1123285E+005  0.1043930E+01  0.7957747E-01            NaN
         13   -1    0    0    0    0  0.00000000000E+00  0.00000000000E+00  0.74505805969E-08  0.10566000000E+00  0.10566000000E+00 0.  1.
     999900   -1    0    0    0    0 -0.00000000000E+00 -0.00000000000E+00 -0.74505805969E-08  0.93827000000E+00  0.93827000000E+00 0. -1.
     999902    2    1    2    0    0  0.18362444982E-01 -0.11243299081E-01 -0.11557298754E-01  0.10194930952E+01  0.10192001810E+01 0.  0.
     999903    2    3    3    0    0  0.19980593387E-01  0.93942865127E-01  0.83081193987E-01  0.12818888687E+00  0.17476266825E-01 0.  0.
         14    1    1    2    0    0 -0.18362444982E-01  0.11243299081E-01  0.11557298754E-01  0.24436904763E-01  0.00000000000E+00 0.  1.
     999901    1    3    3    0    0 -0.16181484053E-02 -0.10518616421E+00 -0.94638492741E-01  0.89130420837E+00  0.88000000000E+00 0. -1.
        -11    1    4    4    0    0  0.10035240205E-01  0.66485552087E-01  0.66654445271E-01  0.94678988575E-01  0.51100000000E-03 0.  1.
         11    1    4    4    0    0  0.99453531825E-02  0.27457313040E-01  0.16426748717E-01  0.33509898294E-01  0.51100000000E-03 0. -1.
</event>
<event>
 8    1  0.1123285E+005  0.1043930E+01  0.7957747E-01            NaN
         13   -1    0    0    0    0  0.00000000000E+00  0.00000000000E+00  0.74505805969E-08  0.10566000000E+00  0.10566000000E+00 0. -1.
     999900   -1    0    0    0    0 -0.00000000000E+00 -0.00000000000E+00 -0.74505805969E-08  0.93827000000E+00  0.93827000000E+00 0.  1.
     999902    2    1    2    0    0  0.33323929834E-02  0.20611923677E-01  0.11428295584E-01  0.10201274333E+01  0.10198497036E+01 0.  0.
     999903    2    3    3    0    0 -0.86690605171E-01 -0.32531271139E-01  0.89864823062E-01  0.13047546305E+00  0.19354984077E-01 0.  0.
         14    1    1    2    0    0 -0.33323929834E-02 -0.20611923677E-01 -0.11428295584E-01  0.23802566681E-01  0.00000000000E+00 0.  1.
     999901    1    3    3    0    0  0.90022998154E-01  0.53143194816E-01 -0.78436527478E-01  0.88965197026E+00  0.88000000000E+00 0.  1.
        -11    1    4    4    0    0 -0.21634234780E-01 -0.14854663371E-03  0.25001939742E-01  0.33066906303E-01  0.51100000000E-03 0. -1.
         11    1    4    4    0    0 -0.65056370391E-01 -0.32382724505E-01  0.64862883320E-01  0.97408556752E-01  0.51100000000E-03 0.  1.
</event>
<event>
 8    1  0.1123285E+005  0.1043930E+01  0.7957747E-01            NaN
         13   -1    0    0    0    0  0.00000000000E+00  0.00000000000E+00  0.74505805969E-08  0.10566000000E+00  0.10566000000E+00 0. -1.
     999900   -1    0    0    0    0 -0.00000000000E+00 -0.00000000000E+00 -0.74505805969E-08  0.93827000000E+00  0.93827000000E+00 0. -1.
     999902    2    1    2    0    0  0.17241849112E-01 -0.21856048368E-02  0.15307862210E-01  0.10207699293E+01  0.10205071581E+01 0.  0.
     999903    2    3    3    0    0 -0.12570726113E+00  0.20483416463E-01  0.90367939900E-02  0.12892484245E+00  0.17834391028E-01 0.  0.
         14    1    1    2    0    0 -0.17241849112E-01  0.21856048368E-02 -0.15307862210E-01  0.23160070698E-01  0.00000000000E+00 0.  1.
     999901    1    3    3    0    0  0.14294911025E+00 -0.22669021300E-01  0.62710682195E-02  0.89184508685E+00  0.88000000000E+00 0. -1.
        -11    1    4    4    0    0 -0.82750552369E-01  0.66710990603E-02  0.63083345839E-03  0.83022988093E-01  0.51100000000E-03 0. -1.
         11    1    4    4    0    0 -0.42956708765E-01  0.13812317403E-01  0.84059605317E-02  0.45901854357E-01  0.51100000000E-03 0.  1.
</event>
<event>
 8    1  0.1123285E+005  0.1043930E+01  0.7957747E-01            NaN
         13   -1    0    0    0    0  0.00000000000E+00  0.00000000000E+00  0.74505805969E-08  0.10566000000E+00  0.10566000000E+00 0. -1.
     999900   -1    0    0    0    0 -0.00000000000E+00 -0.00000000000E+00 -0.74505805969E-08  0.93827000000E+00  0.93827000000E+00 0. -1.
     999902    2    1    2    0    0  0.11490892096E-02 -0.25592136017E-01  0.77399848739E-02  0.10171683633E+01  0.10168162539E+01 0.  0.
     999903    2    3    3    0    0 -0.89498402767E-01  0.91912375916E-03 -0.87763416400E-01  0.12697697134E+00  0.20246607296E-01 0.  0.
         14    1    1    2    0    0 -0.11490892096E-02  0.25592136017E-01 -0.77399848739E-02  0.26761636679E-01  0.00000000000E+00 0. -1.
     999901    1    3    3    0    0  0.90647491976E-01 -0.26511259776E-01  0.95503401274E-01  0.89019139198E+00  0.88000000000E+00 0.  1.
        -11    1    4    4    0    0 -0.82836912623E-01  0.18994493910E-02 -0.71786869386E-01  0.10963201055E+00  0.51100000000E-03 0.  1.
         11    1    4    4    0    0 -0.66614901440E-02 -0.98032563187E-03 -0.15976547014E-01  0.17344960789E-01  0.51100000000E-03 0. -1.
</event>
<event>
 8    1  0.1123285E+005  0.1043930E+01  0.7957747E-01            NaN
         13   -1    0    0    0    0  0.00000000000E+00  0.00000000000E+00  0.74505805969E-08  0.10566000000E+00  0.10566000000E+00 0.  1.
     999900   -1    0    0    0    0 -0.00000000000E+00 -0.00000000000E+00 -0.74505805969E-08  0.93827000000E+00  0.93827000000E+00 0.  1.
     999902    2    1    2    0    0  0.11187383975E-01  0.96850623980E-02 -0.26465710159E-01  0.10136085256E+01  0.10131549000E+01 0.  0.
     999903    2    3    3    0    0 -0.73593507547E-01  0.46050629791E-01 -0.89821433606E-01  0.12652104305E+00  0.20075346606E-01 0.  0.
         14    1    1    2    0    0 -0.11187383975E-01 -0.96850623980E-02  0.26465710159E-01  0.30321474372E-01  0.00000000000E+00 0.  1.
     999901    1    3    3    0    0  0.84780891522E-01 -0.36365567393E-01  0.63355723447E-01  0.88708748258E+00  0.88000000000E+00 0. -1.
        -11    1    4    4    0    0 -0.32925064087E-01  0.14792325735E-01 -0.49551746417E-01  0.61306683484E-01  0.51100000000E-03 0. -1.
         11    1    4    4    0    0 -0.40668443461E-01  0.31258304055E-01 -0.40269687189E-01  0.65214359563E-01  0.51100000000E-03 0.  1.
</event>
<event>
 8    1  0.1123285E+005  0.1043930E+01  0.7957747E-01            NaN
         13   -1    0    0    0    0  0.00000000000E+00  0.00000000000E+00  0.74505805969E-08  0.10566000000E+00  0.10566000000E+00 0.  1.
     999900   -1    0    0    0    0 -0.00000000000E+00 -0.00000000000E+00 -0.74505805969E-08  0.93827000000E+00  0.93827000000E+00 0.  1.
     999902    2    1    2    0    0  0.49742719546E-02  0.16990901226E-01  0.70191275390E-03  0.10262120208E+01  0.10260590552E+01 0.  0.
     999903    2    3    3    0    0 -0.10079707617E+00  0.88700587903E-01  0.15905614749E-01  0.13685213311E+00  0.21158282039E-01 0.  0.
         14    1    1    2    0    0 -0.49742719546E-02 -0.16990901226E-01 -0.70191275390E-03  0.17717979215E-01  0.00000000000E+00 0.  1.
     999901    1    3    3    0    0  0.10577134812E+00 -0.71709686677E-01 -0.15203701995E-01  0.88935988767E+00  0.88000000000E+00 0.  1.
        -11    1    4    4    0    0 -0.60919192836E-01  0.65077478572E-01  0.15604881483E-01  0.90498617228E-01  0.51100000000E-03 0.  1.
         11    1    4    4    0    0 -0.39877883330E-01  0.23623109331E-01  0.30073326648E-03  0.46353515884E-01  0.51100000000E-03 0. -1.
</event>
<event>
 8    1  0.1123285E+005  0.1043930E+01  0.7957747E-01            NaN
         13   -1    0    0    0    0  0.00000000000E+00  0.00000000000E+00  0.74505805969E-08  0.10566000000E+00  0.10566000000E+00 0. -1.
     999900   -1    0    0    0    0 -0.00000000000E+00 -0.00000000000E+00 -0.74505805969E-08  0.93827000000E+00  0.93827000000E+00 0. -1.
     999902    2    1    2    0    0 -0.18696457050E-01  0.83017378106E-02  0.35170061393E-02  0.10231731773E+01  0.10229626117E+01 0.  0.
     999903    2    3    3    0    0  0.66751659347E-01 -0.11055895302E+00  0.11652650994E-01  0.13104345963E+00  0.18908673075E-01 0.  0.
         14    1    1    2    0    0  0.18696457050E-01 -0.83017378106E-02 -0.35170061393E-02  0.20756822711E-01  0.00000000000E+00 0.  1.
     999901    1    3    3    0    0 -0.85448116397E-01  0.11886069083E+00 -0.81356448549E-02  0.89212971766E+00  0.88000000000E+00 0. -1.
        -11    1    4    4    0    0  0.25137815823E-01 -0.26997934124E-01  0.71842202300E-02  0.37585534087E-01  0.51100000000E-03 0. -1.
         11    1    4    4    0    0  0.41613843524E-01 -0.83561018894E-01  0.44684307642E-02  0.93457925538E-01  0.51100000000E-03 0.  1.
</event>
<event>
 8    1  0.1123285E+005  0.1043930E+01  0.7957747E-01            NaN
         13   -1    0    0    0    0  0.00000000000E+00  0.00000000000E+00  0.74505805969E-08  0.10566000000E+00  0.10566000000E+00 0. -1.
     999900   -1    0    0    0    0 -0.00000000000E+00 -0.00000000000E+00 -0.74505805969E-08  0.93827000000E+00  0.93827000000E+00 0.  1.
     999902    2    1    2    0    0  0.21215831660E-02  0.22853112946E-01 -0.74083994185E-02  0.10198125733E+01  0.10195273584E+01 0.  0.
     999903    2    3    3    0    0  0.68067169253E-01  0.11042387757E+00 -0.20984069256E-01  0.13290685234E+00  0.19933087262E-01 0.  0.
         14    1    1    2    0    0 -0.21215831660E-02 -0.22853112946E-01  0.74083994185E-02  0.24117426654E-01  0.00000000000E+00 0.  1.
     999901    1    3    3    0    0 -0.65945586087E-01 -0.87570764629E-01  0.13575669837E-01  0.88690572101E+00  0.88000000000E+00 0.  1.
        -11    1    4    4    0    0  0.57832891053E-01  0.91224980155E-01 -0.98498625901E-02  0.10846161167E+00  0.51100000000E-03 0. -1.
         11    1    4    4    0    0  0.10234278200E-01  0.19198897419E-01 -0.11134206665E-01  0.24445240671E-01  0.51100000000E-03 0.  1.
</event>
<event>
 8    1  0.1123285E+005  0.1043930E+01  0.7957747E-01            NaN
         13   -1    0    0    0    0  0.00000000000E+00  0.00000000000E+00  0.74505805969E-08  0.10566000000E+00  0.10566000000E+00 0. -1.
     999900   -1    0    0    0    0 -0.00000000000E+00 -0.00000000000E+00 -0.74505805969E-08  0.93827000000E+00  0.93827000000E+00 0.  1.
     999902    2    1    2    0    0 -0.12105234076E-01 -0.10861807078E-01  0.17675356328E-01  0.10199105544E+01  0.10196276797E+01 0.  0.
     999903    2    3    3    0    0 -0.32808737152E-01 -0.42671367614E-01 -0.11558926396E+00  0.12906828880E+00  0.20012155897E-01 0.  0.
         14    1    1    2    0    0  0.12105234076E-01  0.10861807078E-01 -0.17675356328E-01  0.24019445589E-01  0.00000000000E+00 0.  1.
     999901    1    3    3    0    0  0.20703503076E-01  0.31809560536E-01  0.13326462029E+00  0.89084226561E+00  0.88000000000E+00 0. -1.
        -11    1    4    4    0    0 -0.16792923105E-01 -0.22980436498E-01 -0.38328403816E-01  0.47743380569E-01  0.51100000000E-03 0.  1.
         11    1    4    4    0    0 -0.16015814047E-01 -0.19690931116E-01 -0.77260860142E-01  0.81324908230E-01  0.51100000000E-03 0. -1.
</event>
<event>
 8    1  0.1123285E+005  0.1043930E+01  0.7957747E-01            NaN
         13   -1    0    0    0    0  0.00000000000E+00  0.00000000000E+00  0.74505805969E-08  0.10566000000E+00  0.10566000000E+00 0.  1.
     999900   -1    0    0    0    0 -0.00000000000E+00 -0.00000000000E+00 -0.74505805969E-08  0.93827000000E+00  0.93827000000E+00 0.  1.
     999902    2    1    2    0    0 -0.51233945763E-02  0.21638937163E-01 -0.62628248598E-02  0.10208277112E+01  0.10205662645E+01 0.  0.
     999903    2    3    3    0    0  0.79266663536E-01 -0.64182954266E-01  0.76162997834E-01  0.12881812872E+00  0.19764930575E-01 0.  0.
         14    1    1    2    0    0  0.51233945763E-02 -0.21638937163E-01  0.62628248598E-02  0.23102288821E-01  0.00000000000E+00 0.  1.
     999901    1    3    3    0    0 -0.84390058112E-01  0.85821891429E-01 -0.82425822694E-01  0.89200958246E+00  0.88000000000E+00 0.  1.
        -11    1    4    4    0    0  0.65586702378E-01 -0.54923808556E-01  0.53978185428E-01  0.10115407010E+00  0.51100000000E-03 0. -1.
         11    1    4    4    0    0  0.13679961158E-01 -0.92591457101E-02  0.22184812406E-01  0.27664058615E-01  0.51100000000E-03 0.  1.
</event>
<event>
 8    1  0.1123285E+005  0.1043930E+01  0.7957747E-01            NaN
         13   -1    0    0    0    0  0.00000000000E+00  0.00000000000E+00  0.74505805969E-08  0.10566000000E+00  0.10566000000E+00 0. -1.
     999900   -1    0    0    0    0 -0.00000000000E+00 -0.00000000000E+00 -0.74505805969E-08  0.93827000000E+00  0.93827000000E+00 0.  1.
     999902    2    1    2    0    0 -0.15508555998E-01  0.16558570687E-01 -0.57289832623E-02  0.10205307944E+01  0.10202625052E+01 0.  0.
     999903    2    3    3    0    0  0.64408557525E-01  0.11234345646E+00  0.11193337736E-01  0.13157193468E+00  0.20405114414E-01 0.  0.
         14    1    1    2    0    0  0.15508555998E-01 -0.16558570687E-01  0.57289832623E-02  0.23399205575E-01  0.00000000000E+00 0. -1.
     999901    1    3    3    0    0 -0.79917113523E-01 -0.95784885768E-01 -0.16922320998E-01  0.88895885975E+00  0.88000000000E+00 0. -1.
        -11    1    4    4    0    0  0.54204535836E-01  0.10589380617E+00  0.11219752380E-01  0.11948963911E+00  0.51100000000E-03 0. -1.
         11    1    4    4    0    0  0.10204021690E-01  0.64496502875E-02 -0.26414644342E-04  0.12082295569E-01  0.51100000000E-03 0.  1.
</event>
<event>
 8    1  0.1123285E+005  0.1043930E+01  0.7957747E-01            NaN
         13   -1    0    0    0    0  0.00000000000E+00  0.00000000000E+00  0.74505805969E-08  0.10566000000E+00  0.10566000000E+00 0.  1.
     999900   -1    0    0    0    0 -0.00000000000E+00 -0.00000000000E+00 -0.74505805969E-08  0.93827000000E+00  0.93827000000E+00 0. -1.
     999902    2    1    2    0    0  0.81104603883E-02  0.19609969066E-01  0.52753031857E-02  0.10220631466E+01  0.10218292012E+01 0.  0.
     999903    2    3    3    0    0 -0.64011671597E-01  0.10965315984E+00  0.38467156662E-01  0.13391277798E+00  0.18209898423E-01 0.  0.
         14    1    1    2    0    0 -0.81104603883E-02 -0.19609969066E-01 -0.52753031857E-02  0.21866853413E-01  0.00000000000E+00 0.  1.
     999901    1    3    3    0    0  0.72122131985E-01 -0.90043190772E-01 -0.33191853476E-01  0.88815036861E+00  0.88000000000E+00 0. -1.
        -11    1    4    4    0    0 -0.14346475580E-01  0.34062425345E-01  0.42444765725E-02  0.37206812338E-01  0.51100000000E-03 0. -1.
         11    1    4    4    0    0 -0.49665196017E-01  0.75590734493E-01  0.34222680089E-01  0.96705965639E-01  0.51100000000E-03 0.  1.
</event>
<event>
 8    1  0.1123285E+005  0.1043930E+01  0.7957747E-01            NaN
         13   -1    0    0    0    0  0.00000000000E+00  0.00000000000E+00  0.74505805969E-08  0.10566000000E+00  0.10566000000E+00 0. -1.
     999900   -1    0    0    0    0 -0.00000000000E+00 -0.00000000000E+00 -0.74505805969E-08  0.93827000000E+00  0.93827000000E+00 0. -1.
     999902    2    1    2    0    0  0.10045226593E-01  0.51348076481E-03 -0.20606963281E-01  0.10209992962E+01  0.10207417625E+01 0.  0.
     999903    2    3    3    0    0 -0.92295045032E-02  0.11006281329E+00  0.65337981801E-01  0.12984324643E+00  0.19779033181E-01 0.  0.
         14    1    1    2    0    0 -0.10045226593E-01 -0.51348076481E-03  0.20606963281E-01  0.22930703772E-01  0.00000000000E+00 0. -1.
     999901    1    3    3    0    0  0.19274731097E-01 -0.10954933253E+00 -0.85944945082E-01  0.89115604980E+00  0.88000000000E+00 0. -1.
        -11    1    4    4    0    0 -0.47359360716E-02  0.15989769754E-01  0.17609769159E-01  0.24258337084E-01  0.51100000000E-03 0.  1.
         11    1    4    4    0    0 -0.44935684316E-02  0.94073043537E-01  0.47728212642E-01  0.10558490934E+00  0.51100000000E-03 0. -1.
</event>
<event>
 8    1  0.1123285E+005  0.1043930E+01  0.7957747E-01            NaN
         13   -1    0    0    0    0  0.00000000000E+00  0.00000000000E+00  0.74505805969E-08  0.10566000000E+00  0.10566000000E+00 0. -1.
     999900   -1    0    0    0    0 -0.00000000000E+00 -0.00000000000E+00 -0.74505805969E-08  0.93827000000E+00  0.93827000000E+00 0.  1.
     999902    2    1    2    0    0 -0.90090274450E-02  0.15832980915E-01  0.16006324711E-01  0.10196802930E+01  0.10193919028E+01 0.  0.
     999903    2    3    3    0    0 -0.37416556909E-01 -0.11530583740E+00  0.30833517855E-01  0.12938583435E+00  0.33084035988E-01 0.  0.
         14    1    1    2    0    0  0.90090274450E-02 -0.15832980915E-01 -0.16006324711E-01  0.24249707027E-01  0.00000000000E+00 0.  1.
     999901    1    3    3    0    0  0.28407529464E-01  0.13113881832E+00 -0.14827193144E-01  0.89029445862E+00  0.88000000000E+00 0. -1.
        -11    1    4    4    0    0 -0.17674176857E-01 -0.93134579475E-01  0.15801793417E-01  0.96106109159E-01  0.51100000000E-03 0. -1.
         11    1    4    4    0    0 -0.19742380051E-01 -0.22171257926E-01  0.15031724438E-01  0.33279725190E-01  0.51100000000E-03 0.  1.
</event>
<event>
 8    1  0.1123285E+005  0.1043930E+01  0.7957747E-01            NaN
         13   -1    0    0    0    0  0.00000000000E+00  0.00000000000E+00  0.74505805969E-08  0.10566000000E+00  0.10566000000E+00 0. -1.
     999900   -1    0    0    0    0 -0.00000000000E+00 -0.00000000000E+00 -0.74505805969E-08  0.93827000000E+00  0.93827000000E+00 0. -1.
     999902    2    1    2    0    0 -0.14404341838E-01  0.16080935646E-01  0.10730824283E-01  0.10198212434E+01  0.10195362359E+01 0.  0.
     999903    2    3    3    0    0  0.90337531638E-01 -0.87944847528E-01 -0.99737413951E-03  0.12744812958E+00  0.18624316094E-01 0.  0.
         14    1    1    2    0    0  0.14404341838E-01 -0.16080935646E-01 -0.10730824283E-01  0.24108756601E-01  0.00000000000E+00 0.  1.
     999901    1    3    3    0    0 -0.10474187348E+00  0.10402578317E+00  0.11728198423E-01  0.89237311382E+00  0.88000000000E+00 0. -1.
        -11    1    4    4    0    0  0.44654386423E-01 -0.33208748710E-01 -0.60104039858E-02  0.55975184634E-01  0.51100000000E-03 0.  1.
         11    1    4    4    0    0  0.45683145215E-01 -0.54736098818E-01  0.50130298463E-02  0.71472944949E-01  0.51100000000E-03 0. -1.
</event>
<event>
 8    1  0.1123285E+005  0.1043930E+01  0.7957747E-01            NaN
         13   -1    0    0    0    0  0.00000000000E+00  0.00000000000E+00  0.74505805969E-08  0.10566000000E+00  0.10566000000E+00 0. -1.
     999900   -1    0    0    0    0 -0.00000000000E+00 -0.00000000000E+00 -0.74505805969E-08  0.93827000000E+00  0.93827000000E+00 0.  1.
     999902    2    1    2    0    0  0.16676689602E-01 -0.16791723926E-01  0.29803250547E-02  0.10200771950E+01  0.10197982778E+01 0.  0.
     999903    2    3    3    0    0 -0.26371406079E-01 -0.57818163721E-01 -0.11233878577E+00  0.13056339263E+00  0.19708008309E-01 0.  0.
         14    1    1    2    0    0 -0.16676689602E-01  0.16791723926E-01 -0.29803250547E-02  0.23852804991E-01  0.00000000000E+00 0.  1.
     999901    1    3    3    0    0  0.43048095681E-01  0.41026439795E-01  0.11531911083E+00  0.88951380238E+00  0.88000000000E+00 0. -1.
        -11    1    4    4    0    0 -0.27348525170E-01 -0.40090920806E-01 -0.86959048727E-01  0.99585947987E-01  0.51100000000E-03 0.  1.
         11    1    4    4    0    0  0.97711909016E-03 -0.17727242915E-01 -0.25379737045E-01  0.30977444642E-01  0.51100000000E-03 0. -1.
</event>
<event>
 8    1  0.1123285E+005  0.1043930E+01  0.7957747E-01            NaN
         13   -1    0    0    0    0  0.00000000000E+00  0.00000000000E+00  0.74505805969E-08  0.10566000000E+00  0.10566000000E+00 0. -1.
     999900   -1    0    0    0    0 -0.00000000000E+00 -0.00000000000E+00 -0.74505805969E-08  0.93827000000E+00  0.93827000000E+00 0. -1.
     999902    2    1    2    0    0 -0.13941023998E-01  0.17588410588E-01 -0.74049135613E-02  0.10202966109E+01  0.10200228610E+01 0.  0.
     999903    2    3    3    0    0 -0.98524916654E-01 -0.52480711448E-01 -0.66317884676E-01  0.13151381686E+00  0.20891096685E-01 0.  0.
         14    1    1    2    0    0  0.13941023998E-01 -0.17588410588E-01  0.74049135613E-02  0.23633389134E-01  0.00000000000E+00 0. -1.
     999901    1    3    3    0    0  0.84583892656E-01  0.70069122036E-01  0.58912971115E-01  0.88878279401E+00  0.88000000000E+00 0.  1.
        -11    1    4    4    0    0 -0.82348706713E-01 -0.46478256145E-01 -0.63796181981E-01  0.11406906569E+00  0.51100000000E-03 0.  1.
         11    1    4    4    0    0 -0.16176209941E-01 -0.60024553031E-02 -0.25217026947E-02  0.17444751165E-01  0.51100000000E-03 0. -1.
</event>
<event>
 8    1  0.1123285E+005  0.1043930E+01  0.7957747E-01            NaN
         13   -1    0    0    0    0  0.00000000000E+00  0.00000000000E+00  0.74505805969E-08  0.10566000000E+00  0.10566000000E+00 0.  1.
     999900   -1    0    0    0    0 -0.00000000000E+00 -0.00000000000E+00 -0.74505805969E-08  0.93827000000E+00  0.93827000000E+00 0.  1.
     999902    2    1    2    0    0 -0.11057378685E-01  0.19856469962E-01 -0.58762006536E-02  0.10204550185E+01  0.10201849685E+01 0.  0.
     999903    2    3    3    0    0 -0.50897079148E-01  0.71479042514E-01  0.96533798600E-01  0.13211955276E+00  0.20905400368E-01 0.  0.
         14    1    1    2    0    0  0.11057378685E-01 -0.19856469962E-01  0.58762006536E-02  0.23474981509E-01  0.00000000000E+00 0. -1.
     999901    1    3    3    0    0  0.39839700463E-01 -0.51622572552E-01 -0.10240999925E+00  0.88833546573E+00  0.88000000000E+00 0.  1.
        -11    1    4    4    0    0 -0.23967398490E-01  0.35937545373E-01  0.62707105154E-01  0.76147130711E-01  0.51100000000E-03 0. -1.
         11    1    4    4    0    0 -0.26929680658E-01  0.35541497141E-01  0.33826693447E-01  0.55972422048E-01  0.51100000000E-03 0.  1.
</event>
<event>
 8    1  0.1123285E+005  0.1043930E+01  0.7957747E-01            NaN
         13   -1    0    0    0    0  0.00000000000E+00  0.00000000000E+00  0.74505805969E-08  0.10566000000E+00  0.10566000000E+00 0.  1.
     999900   -1    0    0    0    0 -0.00000000000E+00 -0.00000000000E+00 -0.74505805969E-08  0.93827000000E+00  0.93827000000E+00 0.  1.
     999902    2    1    2    0    0 -0.57604347305E-02  0.22996513692E-01  0.53299718162E-02  0.10196312171E+01  0.10193416444E+01 0.  0.
     999903    2    3    3    0    0 -0.75910790179E-01  0.10576562104E+00 -0.16036629296E-01  0.13271051652E+00  0.20151750688E-01 0.  0.
         14    1    1    2    0    0  0.57604347305E-02 -0.22996513692E-01 -0.53299718162E-02  0.24298782888E-01  0.00000000000E+00 0. -1.
     999901    1    3    3    0    0  0.70150355449E-01 -0.82769107346E-01  0.21366601112E-01  0.88692070059E+00  0.88000000000E+00 0. -1.
        -11    1    4    4    0    0 -0.33495705913E-01  0.45279328081E-01  0.30509352377E-02  0.56406995957E-01  0.51100000000E-03 0. -1.
         11    1    4    4    0    0 -0.42415084266E-01  0.60486292957E-01 -0.19087564534E-01  0.76303520560E-01  0.51100000000E-03 0.  1.
</event>
<event>
 8    1  0.1123285E+005  0.1043930E+01  0.7957747E-01            NaN
         13   -1    0    0    0    0  0.00000000000E+00  0.00000000000E+00  0.74505805969E-08  0.10566000000E+00  0.10566000000E+00 0. -1.
     999900   -1    0    0    0    0 -0.00000000000E+00 -0.00000000000E+00 -0.74505805969E-08  0.93827000000E+00  0.93827000000E+00 0.  1.
     999902    2    1    2    0    0  0.92641174744E-02 -0.26919842445E-02  0.21895895359E-01  0.10200030093E+01  0.10197223338E+01 0.  0.
     999903    2    3    3    0    0 -0.17666029690E-01 -0.70314000704E-01 -0.10383220761E+00  0.12809184452E+00  0.19241777335E-01 0.  0.
         14    1    1    2    0    0 -0.92641174744E-02  0.26919842445E-02 -0.21895895359E-01  0.23926990729E-01  0.00000000000E+00 0.  1.
     999901    1    3    3    0    0  0.26930147165E-01  0.67622016459E-01  0.12572810297E+00  0.89191116475E+00  0.88000000000E+00 0. -1.
        -11    1    4    4    0    0 -0.16686971941E-01 -0.29823329945E-01 -0.41617760326E-01  0.53853366999E-01  0.51100000000E-03 0.  1.
         11    1    4    4    0    0 -0.97905774904E-03 -0.40490670759E-01 -0.62214447283E-01  0.74238477519E-01  0.51100000000E-03 0. -1.
</event>
<event>
 8    1  0.1123285E+005  0.1043930E+01  0.7957747E-01            NaN
         13   -1    0    0    0    0  0.00000000000E+00  0.00000000000E+00  0.74505805969E-08  0.10566000000E+00  0.10566000000E+00 0.  1.
     999900   -1    0    0    0    0 -0.00000000000E+00 -0.00000000000E+00 -0.74505805969E-08  0.93827000000E+00  0.93827000000E+00 0. -1.
     999902    2    1    2    0    0  0.66020467214E-04  0.22631352897E-01 -0.86021529210E-02  0.10197188553E+01  0.10194313927E+01 0.  0.
     999903    2    3    3    0    0  0.44296878342E-01 -0.79631739292E-01  0.86961129076E-01  0.12756054554E+00  0.20150123446E-01 0.  0.
         14    1    1    2    0    0 -0.66020467214E-04 -0.22631352897E-01  0.86021529210E-02  0.24211144697E-01  0.00000000000E+00 0.  1.
     999901    1    3    3    0    0 -0.44230857875E-01  0.10226309219E+00 -0.95563281997E-01  0.89215830976E+00  0.88000000000E+00 0. -1.
        -11    1    4    4    0    0  0.34667236464E-01 -0.53854160448E-01  0.71500464736E-01  0.95993049020E-01  0.51100000000E-03 0. -1.
         11    1    4    4    0    0  0.96296418781E-02 -0.25777578844E-01  0.15460664339E-01  0.31567496520E-01  0.51100000000E-03 0.  1.
</event>
<event>
 8    1  0.1123285E+005  0.1043930E+01  0.7957747E-01            NaN
         13   -1    0    0    0    0  0.00000000000E+00  0.00000000000E+00  0.74505805969E-08  0.10566000000E+00  0.10566000000E+00 0.  1.
     999900   -1    0    0    0    0 -0.00000000000E+00 -0.00000000000E+00 -0.74505805969E-08  0.93827000000E+00  0.93827000000E+00 0. -1.
     999902    2    1    2    0    0  0.19372448335E-01  0.82273822483E-02 -0.62882356429E-02  0.10219635829E+01  0.10217274790E+01 0.  0.
     999903    2    3    3    0    0 -0.12657709036E+00  0.10397872324E-01  0.16754164497E-01  0.12964249098E+00  0.19914765523E-01 0.  0.
         14    1    1    2    0    0 -0.19372448335E-01 -0.82273822483E-02  0.62882356429E-02  0.21966417110E-01  0.00000000000E+00 0. -1.
     999901    1    3    3    0    0  0.14594953869E+00 -0.21704900756E-02 -0.23042400140E-01  0.89232109191E+00  0.88000000000E+00 0. -1.
        -11    1    4    4    0    0 -0.69148439045E-01 -0.40674867044E-02  0.11019342100E-01  0.70140844676E-01  0.51100000000E-03 0. -1.
         11    1    4    4    0    0 -0.57428651313E-01  0.14465359028E-01  0.57348223970E-02  0.59501646300E-01  0.51100000000E-03 0.  1.
</event>
<event>
 8    1  0.1123285E+005  0.1043930E+01  0.7957747E-01            NaN
         13   -1    0    0    0    0  0.00000000000E+00  0.00000000000E+00  0.74505805969E-08  0.10566000000E+00  0.10566000000E+00 0.  1.
     999900   -1    0    0    0    0 -0.00000000000E+00 -0.00000000000E+00 -0.74505805969E-08  0.93827000000E+00  0.93827000000E+00 0. -1.
     999902    2    1    2    0    0 -0.14886042743E-01 -0.16128321822E-01 -0.96440390491E-02  0.10199565872E+01  0.10196748086E+01 0.  0.
     999903    2    3    3    0    0  0.72035594534E-01  0.55777558732E-01  0.87026802404E-01  0.12750430370E+00  0.19581118158E-01 0.  0.
         14    1    1    2    0    0  0.14886042743E-01  0.16128321822E-01  0.96440390491E-02  0.23973412826E-01  0.00000000000E+00 0.  1.
     999901    1    3    3    0    0 -0.86921637277E-01 -0.71905880554E-01 -0.96670841453E-01  0.89245228347E+00  0.88000000000E+00 0. -1.
        -11    1    4    4    0    0  0.14370202678E-01  0.24498292453E-02  0.15246688232E-01  0.21100403110E-01  0.51100000000E-03 0.  1.
         11    1    4    4    0    0  0.57665391856E-01  0.53327729487E-01  0.71780114171E-01  0.10640390059E+00  0.51100000000E-03 0. -1.
</event>
<event>
 8    1  0.1123285E+005  0.1043930E+01  0.7957747E-01            NaN
         13   -1    0    0    0    0  0.00000000000E+00  0.00000000000E+00  0.74505805969E-08  0.10566000000E+00  0.10566000000E+00 0.  1.
     999900   -1    0    0    0    0 -0.00000000000E+00 -0.00000000000E+00 -0.74505805969E-08  0.93827000000E+00  0.93827000000E+00 0. -1.
     999902    2    1    2    0    0 -0.20089697508E-01  0.11441715477E-01 -0.58383441512E-02  0.10200847686E+01  0.10198060306E+01 0.  0.
     999903    2    3    3    0    0 -0.21592092920E-01 -0.12074303939E+00  0.35629411782E-01  0.12924547814E+00  0.19744330768E-01 0.  0.
         14    1    1    2    0    0  0.20089697508E-01 -0.11441715477E-01  0.58383441512E-02  0.23845231420E-01  0.00000000000E+00 0.  1.
     999901    1    3    3    0    0  0.15023954113E-02  0.13218475487E+00 -0.41467755933E-01  0.89083929044E+00  0.88000000000E+00 0.  1.
        -11    1    4    4    0    0 -0.48330205283E-03 -0.73614517860E-02  0.75022772449E-02  0.10534222237E-01  0.51100000000E-03 0. -1.
         11    1    4    4    0    0 -0.21108790867E-01 -0.11338158760E+00  0.28127134537E-01  0.11871125590E+00  0.51100000000E-03 0.  1.
</event>
<event>
 8    1  0.1123285E+005  0.1043930E+01  0.7957747E-01            NaN
         13   -1    0    0    0    0  0.00000000000E+00  0.00000000000E+00  0.74505805969E-08  0.10566000000E+00  0.10566000000E+00 0. -1.
     999900   -1    0    0    0    0 -0.00000000000E+00 -0.00000000000E+00 -0.74505805969E-08  0.93827000000E+00  0.93827000000E+00 0.  1.
     999902    2    1    2    0    0 -0.14561371868E-01 -0.13757412357E-01  0.11152413296E-01  0.10210023689E+01  0.10207449050E+01 0.  0.
     999903    2    3    3    0    0 -0.14554213250E-01  0.20081575332E-01  0.12866385647E+00  0.13254639565E+00  0.19976592433E-01 0.  0.
         14    1    1    2    0    0  0.14561371868E-01  0.13757412357E-01 -0.11152413296E-01  0.22927631098E-01  0.00000000000E+00 0.  1.
     999901    1    3    3    0    0 -0.71586177404E-05 -0.33838987689E-01 -0.11751144318E+00  0.88845597326E+00  0.88000000000E+00 0.  1.
        -11    1    4    4    0    0 -0.78467809125E-02  0.22547080394E-01  0.84662277694E-01  0.87965363583E-01  0.51100000000E-03 0.  1.
         11    1    4    4    0    0 -0.67074323377E-02 -0.24655050626E-02  0.44001578778E-01  0.44581032062E-01  0.51100000000E-03 0. -1.
</event>
<event>
 8    1  0.1123285E+005  0.1043930E+01  0.7957747E-01            NaN
         13   -1    0    0    0    0  0.00000000000E+00  0.00000000000E+00  0.74505805969E-08  0.10566000000E+00  0.10566000000E+00 0.  1.
     999900   -1    0    0    0    0 -0.00000000000E+00 -0.00000000000E+00 -0.74505805969E-08  0.93827000000E+00  0.93827000000E+00 0. -1.
     999902    2    1    2    0    0  0.14267381452E-01 -0.12355758438E-01 -0.14409631691E-01  0.10201842546E+01  0.10199078649E+01 0.  0.
     999903    2    3    3    0    0 -0.70797545702E-01 -0.80424008374E-01  0.70522592097E-01  0.12940773316E+00  0.17105899693E-01 0.  0.
         14    1    1    2    0    0 -0.14267381452E-01  0.12355758438E-01  0.14409631691E-01  0.23745745420E-01  0.00000000000E+00 0.  1.
     999901    1    3    3    0    0  0.85064927155E-01  0.68068249936E-01 -0.84932223788E-01  0.89077652142E+00  0.88000000000E+00 0. -1.
        -11    1    4    4    0    0 -0.75522786830E-02 -0.15173172126E-01  0.16659070084E-01  0.23770734164E-01  0.51100000000E-03 0. -1.
         11    1    4    4    0    0 -0.63245267019E-01 -0.65250836248E-01  0.53863522014E-01  0.10563699899E+00  0.51100000000E-03 0.  1.
</event>
<event>
 8    1  0.1123285E+005  0.1043930E+01  0.7957747E-01            NaN
         13   -1    0    0    0    0  0.00000000000E+00  0.00000000000E+00  0.74505805969E-08  0.10566000000E+00  0.10566000000E+00 0. -1.
     999900   -1    0    0    0    0 -0.00000000000E+00 -0.00000000000E+00 -0.74505805969E-08  0.93827000000E+00  0.93827000000E+00 0.  1.
     999902    2    1    2    0    0 -0.64637295150E-02 -0.82924133778E-03 -0.24194663593E-01  0.10188730811E+01  0.10185649248E+01 0.  0.
     999903    2    3    3    0    0  0.69746974430E-01 -0.85466916455E-01  0.60711046703E-01  0.12748058216E+00  0.19905611937E-01 0.  0.
         14    1    1    2    0    0  0.64637295150E-02  0.82924133778E-03  0.24194663593E-01  0.25056918941E-01  0.00000000000E+00 0. -1.
     999901    1    3    3    0    0 -0.76210703945E-01  0.84637675118E-01 -0.84905710296E-01  0.89139249889E+00  0.88000000000E+00 0.  1.
        -11    1    4    4    0    0  0.96433028662E-02 -0.10220391021E-01  0.16005457012E-01  0.21304587721E-01  0.51100000000E-03 0. -1.
         11    1    4    4    0    0  0.60103671563E-01 -0.75246525434E-01  0.44705589691E-01  0.10617599444E+00  0.51100000000E-03 0.  1.
</event>
<event>
 8    1  0.1123285E+005  0.1043930E+01  0.7957747E-01            NaN
         13   -1    0    0    0    0  0.00000000000E+00  0.00000000000E+00  0.74505805969E-08  0.10566000000E+00  0.10566000000E+00 0.  1.
     999900   -1    0    0    0    0 -0.00000000000E+00 -0.00000000000E+00 -0.74505805969E-08  0.93827000000E+00  0.93827000000E+00 0. -1.
     999902    2    1    2    0    0 -0.20844159847E-01 -0.69930904032E-02  0.96341594413E-02  0.10199258474E+01  0.10196433371E+01 0.  0.
     999903    2    3    3    0    0  0.26591724054E-02  0.12226359805E+00  0.38010556446E-01  0.12972086089E+00  0.20669802664E-01 0.  0.
         14    1    1    2    0    0  0.20844159847E-01  0.69930904032E-02 -0.96341594413E-02  0.24004152584E-01  0.00000000000E+00 0.  1.
     999901    1    3    3    0    0 -0.23503332253E-01 -0.12925668845E+00 -0.28376397004E-01  0.89020498653E+00  0.88000000000E+00 0. -1.
        -11    1    4    4    0    0 -0.68066191456E-02  0.62788123417E-01  0.12859295012E-01  0.64453867965E-01  0.51100000000E-03 0.  1.
         11    1    4    4    0    0  0.94657915510E-02  0.59475474631E-01  0.25151261433E-01  0.65266992921E-01  0.51100000000E-03 0. -1.
</event>
<event>
 8    1  0.1123285E+005  0.1043930E+01  0.7957747E-01            NaN
         13   -1    0    0    0    0  0.00000000000E+00  0.00000000000E+00  0.74505805969E-08  0.10566000000E+00  0.10566000000E+00 0. -1.
     999900   -1    0    0    0    0 -0.00000000000E+00 -0.00000000000E+00 -0.74505805969E-08  0.93827000000E+00  0.93827000000E+00 0.  1.
     999902    2    1    2    0    0 -0.10160374122E-01 -0.21253825082E-01 -0.38144180682E-02  0.10200656318E+01  0.10197864410E+01 0.  0.
     999903    2    3    3    0    0  0.36557047685E-01  0.45620726256E-01 -0.11374171490E+00  0.12948226476E+00  0.20268467624E-01 0.  0.
         14    1    1    2    0    0  0.10160374122E-01  0.21253825082E-01  0.38144180682E-02  0.23864368169E-01  0.00000000000E+00 0.  1.
     999901    1    3    3    0    0 -0.46717421807E-01 -0.66874551338E-01  0.10992729683E+00  0.89058336707E+00  0.88000000000E+00 0. -1.
        -11    1    4    4    0    0  0.14674168025E-01  0.11225049681E-01 -0.19857013366E-01  0.27127385579E-01  0.51100000000E-03 0. -1.
         11    1    4    4    0    0  0.21882879660E-01  0.34395676575E-01 -0.93884701531E-01  0.10235487918E+00  0.51100000000E-03 0.  1.
</event>
<event>
 8    1  0.1123285E+005  0.1043930E+01  0.7957747E-01            NaN
         13   -1    0    0    0    0  0.00000000000E+00  0.00000000000E+00  0.74505805969E-08  0.10566000000E+00  0.10566000000E+00 0. -1.
     999900   -1    0    0    0    0 -0.00000000000E+00 -0.00000000000E+00 -0.74505805969E-08  0.93827000000E+00  0.93827000000E+00 0.  1.
     999902    2    1    2    0    0  0.22071710335E-01 -0.58749000642E-02 -0.47570515955E-02  0.10205996681E+01  0.10203329741E+01 0.  0.
     999903    2    3    3    0    0 -0.14937225594E-01 -0.73554084553E-01  0.10481161263E+00  0.13045618215E+00  0.20000431377E-01 0.  0.
         14    1    1    2    0    0 -0.22071710335E-01  0.58749000642E-02  0.47570515956E-02  0.23330331926E-01  0.00000000000E+00 0. -1.
     999901    1    3    3    0    0  0.37008935930E-01  0.67679184489E-01 -0.10956866423E+00  0.89014348592E+00  0.88000000000E+00 0.  1.
        -11    1    4    4    0    0 -0.98276764861E-03 -0.48874441103E-01  0.72801751251E-01  0.87692832841E-01  0.51100000000E-03 0.  1.
         11    1    4    4    0    0 -0.13954457946E-01 -0.24679643451E-01  0.32009861383E-01  0.42763349309E-01  0.51100000000E-03 0. -1.
</event>
<event>
 8    1  0.1123285E+005  0.1043930E+01  0.7957747E-01            NaN
         13   -1    0    0    0    0  0.00000000000E+00  0.00000000000E+00  0.74505805969E-08  0.10566000000E+00  0.10566000000E+00 0.  1.
     999900   -1    0    0    0    0 -0.00000000000E+00 -0.00000000000E+00 -0.74505805969E-08  0.93827000000E+00  0.93827000000E+00 0.  1.
     999902    2    1    2    0    0 -0.94548371315E-02  0.19037163839E-01  0.99400922164E-02  0.10204648559E+01  0.10201950349E+01 0.  0.
     999903    2    3    3    0    0  0.94595278475E-01  0.50449645906E-01  0.73535431768E-01  0.13150054969E+00  0.19786393329E-01 0.  0.
         14    1    1    2    0    0  0.94548371315E-02 -0.19037163839E-01 -0.99400922164E-02  0.23465144054E-01  0.00000000000E+00 0.  1.
     999901    1    3    3    0    0 -0.10405011561E+00 -0.31412482067E-01 -0.63595339552E-01  0.88896430626E+00  0.88000000000E+00 0.  1.
        -11    1    4    4    0    0  0.43713779595E-01  0.34288141411E-01  0.39851340399E-01  0.68373690997E-01  0.51100000000E-03 0. -1.
         11    1    4    4    0    0  0.50881498880E-01  0.16161504495E-01  0.33684091369E-01  0.63126858691E-01  0.51100000000E-03 0.  1.
</event>
<event>
 8    1  0.1123285E+005  0.1043930E+01  0.7957747E-01            NaN
         13   -1    0    0    0    0  0.00000000000E+00  0.00000000000E+00  0.74505805969E-08  0.10566000000E+00  0.10566000000E+00 0.  1.
     999900   -1    0    0    0    0 -0.00000000000E+00 -0.00000000000E+00 -0.74505805969E-08  0.93827000000E+00  0.93827000000E+00 0. -1.
     999902    2    1    2    0    0 -0.69901125169E-02  0.22859297543E-01 -0.36553231297E-02  0.10197479706E+01  0.10194612072E+01 0.  0.
     999903    2    3    3    0    0 -0.64044687934E-01  0.26911982738E-01 -0.10989750004E+00  0.13151430262E+00  0.19813490639E-01 0.  0.
         14    1    1    2    0    0  0.69901125169E-02 -0.22859297543E-01  0.36553231297E-02  0.24182029367E-01  0.00000000000E+00 0. -1.
     999901    1    3    3    0    0  0.57054575418E-01 -0.40526851956E-02  0.10624217691E+00  0.88823366801E+00  0.88000000000E+00 0.  1.
        -11    1    4    4    0    0 -0.40807014287E-01  0.26949213042E-01 -0.71361860338E-01  0.86511552584E-01  0.51100000000E-03 0. -1.
         11    1    4    4    0    0 -0.23237673648E-01 -0.37230303611E-04 -0.38535639703E-01  0.45002750038E-01  0.51100000000E-03 0.  1.
</event>
<event>
 8    1  0.1123285E+005  0.1043930E+01  0.7957747E-01            NaN
         13   -1    0    0    0    0  0.00000000000E+00  0.00000000000E+00  0.74505805969E-08  0.10566000000E+00  0.10566000000E+00 0.  1.
     999900   -1    0    0    0    0 -0.00000000000E+00 -0.00000000000E+00 -0.74505805969E-08  0.93827000000E+00  0.93827000000E+00 0.  1.
     999902    2    1    2    0    0 -0.15018311248E-01 -0.17544658130E-01 -0.40833310267E-03  0.10208317005E+01  0.10205703452E+01 0.  0.
     999903    2    3    3    0    0  0.79975618139E-01  0.97736184024E-01 -0.45648376435E-02  0.12823392119E+00  0.21786225839E-01 0.  0.
         14    1    1    2    0    0  0.15018311248E-01  0.17544658130E-01  0.40833310267E-03  0.23098299452E-01  0.00000000000E+00 0. -1.
     999901    1    3    3    0    0 -0.94993929387E-01 -0.11528084215E+00  0.41565045408E-02  0.89259777936E+00  0.88000000000E+00 0. -1.
        -11    1    4    4    0    0  0.48790440221E-01  0.42457018725E-01 -0.27230155898E-02  0.64736245110E-01  0.51100000000E-03 0. -1.
         11    1    4    4    0    0  0.31185177918E-01  0.55279165299E-01 -0.18418220537E-02  0.63497676078E-01  0.51100000000E-03 0.  1.
</event>
<event>
 8    1  0.1123285E+005  0.1043930E+01  0.7957747E-01            NaN
         13   -1    0    0    0    0  0.00000000000E+00  0.00000000000E+00  0.74505805969E-08  0.10566000000E+00  0.10566000000E+00 0.  1.
     999900   -1    0    0    0    0 -0.00000000000E+00 -0.00000000000E+00 -0.74505805969E-08  0.93827000000E+00  0.93827000000E+00 0. -1.
     999902    2    1    2    0    0  0.92838370965E-02  0.11527475392E-02  0.20726005680E-01  0.10211904800E+01  0.10209372707E+01 0.  0.
     999903    2    3    3    0    0  0.14065195510E-01 -0.11743601616E+00  0.56422905473E-01  0.13250582001E+00  0.19626524308E-01 0.  0.
         14    1    1    2    0    0 -0.92838370965E-02 -0.11527475392E-02 -0.20726005680E-01  0.22739519994E-01  0.00000000000E+00 0. -1.
     999901    1    3    3    0    0 -0.47813584130E-02  0.11858876370E+00 -0.35696899794E-01  0.88868466000E+00  0.88000000000E+00 0. -1.
        -11    1    4    4    0    0  0.18279104729E-01 -0.75900017530E-01  0.38887739535E-01  0.87220729978E-01  0.51100000000E-03 0. -1.
         11    1    4    4    0    0 -0.42139092191E-02 -0.41535998633E-01  0.17535165938E-01  0.45285090027E-01  0.51100000000E-03 0.  1.
</event>
<event>
 8    1  0.1123285E+005  0.1043930E+01  0.7957747E-01            NaN
         13   -1    0    0    0    0  0.00000000000E+00  0.00000000000E+00  0.74505805969E-08  0.10566000000E+00  0.10566000000E+00 0.  1.
     999900   -1    0    0    0    0 -0.00000000000E+00 -0.00000000000E+00 -0.74505805969E-08  0.93827000000E+00  0.93827000000E+00 0.  1.
     999902    2    1    2    0    0 -0.12302823149E-01  0.19902077239E-01  0.19135922269E-02  0.10204541833E+01  0.10201841139E+01 0.  0.
     999903    2    3    3    0    0  0.71565980581E-01 -0.89728196192E-01  0.53073476813E-01  0.12822657392E+00  0.21270203359E-01 0.  0.
         14    1    1    2    0    0  0.12302823149E-01 -0.19902077239E-01 -0.19135922269E-02  0.23475816728E-01  0.00000000000E+00 0. -1.
     999901    1    3    3    0    0 -0.83868803731E-01  0.10963027343E+00 -0.51159884586E-01  0.89222760935E+00  0.88000000000E+00 0. -1.
        -11    1    4    4    0    0  0.53789519278E-01 -0.55520245028E-01  0.27920194890E-01  0.82192508149E-01  0.51100000000E-03 0. -1.
         11    1    4    4    0    0  0.17776461303E-01 -0.34207951163E-01  0.25153281923E-01  0.46034065775E-01  0.51100000000E-03 0.  1.
</event>
<event>
 8    1  0.1123285E+005  0.1043930E+01  0.7957747E-01            NaN
         13   -1    0    0    0    0  0.00000000000E+00  0.00000000000E+00  0.74505805969E-08  0.10566000000E+00  0.10566000000E+00 0. -1.
     999900   -1    0    0    0    0 -0.00000000000E+00 -0.00000000000E+00 -0.74505805969E-08  0.93827000000E+00  0.93827000000E+00 0. -1.
     999902    2    1    2    0    0  0.15758884189E-01  0.14944359942E-01  0.15281312822E-01  0.10173744950E+01  0.10170278601E+01 0.  0.
     999903    2    3    3    0    0  0.47678519269E-01  0.10447644211E+00  0.58444388735E-01  0.13120413441E+00  0.24702432208E-01 0.  0.
         14    1    1    2    0    0 -0.15758884189E-01 -0.14944359942E-01 -0.15281312822E-01  0.26555505014E-01  0.00000000000E+00 0.  1.
     999901    1    3    3    0    0 -0.31919635080E-01 -0.89532082164E-01 -0.43163075913E-01  0.88617036058E+00  0.88000000000E+00 0. -1.
        -11    1    4    4    0    0  0.50242678310E-01  0.98890153263E-01  0.52819766137E-01  0.12285673751E+00  0.51100000000E-03 0.  1.
         11    1    4    4    0    0 -0.25641590410E-02  0.55862888437E-02  0.56246225981E-02  0.83473968999E-02  0.51100000000E-03 0. -1.
</event>
<event>
 8    1  0.1123285E+005  0.1043930E+01  0.7957747E-01            NaN
         13   -1    0    0    0    0  0.00000000000E+00  0.00000000000E+00  0.74505805969E-08  0.10566000000E+00  0.10566000000E+00 0.  1.
     999900   -1    0    0    0    0 -0.00000000000E+00 -0.00000000000E+00 -0.74505805969E-08  0.93827000000E+00  0.93827000000E+00 0. -1.
     999902    2    1    2    0    0 -0.17016109401E-01  0.42285070674E-02  0.18481079499E-01  0.10184549426E+01  0.10181362834E+01 0.  0.
     999903    2    3    3    0    0 -0.44465657948E-01 -0.10509432402E+00 -0.54703556175E-01  0.12825218477E+00  0.20835838426E-01 0.  0.
         14    1    1    2    0    0  0.17016109401E-01 -0.42285070674E-02 -0.18481079499E-01  0.25475057421E-01  0.00000000000E+00 0. -1.
     999901    1    3    3    0    0  0.27449548547E-01  0.10932283108E+00  0.73184635674E-01  0.89020275781E+00  0.88000000000E+00 0. -1.
        -11    1    4    4    0    0 -0.12331255730E-01 -0.37754954217E-01 -0.29563816212E-01  0.49515419677E-01  0.51100000000E-03 0.  1.
         11    1    4    4    0    0 -0.32134402218E-01 -0.67339369799E-01 -0.25139739963E-01  0.78736765093E-01  0.51100000000E-03 0. -1.
</event>
<event>
 8    1  0.1123285E+005  0.1043930E+01  0.7957747E-01            NaN
         13   -1    0    0    0    0  0.00000000000E+00  0.00000000000E+00  0.74505805969E-08  0.10566000000E+00  0.10566000000E+00 0. -1.
     999900   -1    0    0    0    0 -0.00000000000E+00 -0.00000000000E+00 -0.74505805969E-08  0.93827000000E+00  0.93827000000E+00 0.  1.
     999902    2    1    2    0    0 -0.12415924030E-01 -0.19659153394E-01 -0.46305110981E-02  0.10202217922E+01  0.10199462860E+01 0.  0.
     999903    2    3    3    0    0 -0.84523830618E-01 -0.91143744966E-01  0.43726033275E-01  0.13306456131E+00  0.18513543743E-01 0.  0.
         14    1    1    2    0    0  0.12415924030E-01  0.19659153394E-01  0.46305110981E-02  0.23708207750E-01  0.00000000000E+00 0.  1.
     999901    1    3    3    0    0  0.72107906588E-01  0.71484591571E-01 -0.48356544373E-01  0.88715723094E+00  0.88000000000E+00 0.  1.
        -11    1    4    4    0    0 -0.58756884200E-01 -0.55618829554E-01  0.35762377044E-01  0.88459224362E-01  0.51100000000E-03 0. -1.
         11    1    4    4    0    0 -0.25766946419E-01 -0.35524915411E-01  0.79636562315E-02  0.44605336948E-01  0.51100000000E-03 0.  1.
</event>
<event>
 8    1  0.1123285E+005  0.1043930E+01  0.7957747E-01            NaN
         13   -1    0    0    0    0  0.00000000000E+00  0.00000000000E+00  0.74505805969E-08  0.10566000000E+00  0.10566000000E+00 0.  1.
     999900   -1    0    0    0    0 -0.00000000000E+00 -0.00000000000E+00 -0.74505805969E-08  0.93827000000E+00  0.93827000000E+00 0.  1.
     999902    2    1    2    0    0 -0.13114000778E-01  0.13478106305E-01  0.11052960128E-01  0.10221170613E+01  0.10218842805E+01 0.  0.
     999903    2    3    3    0    0 -0.11949923771E-01 -0.86929116489E-01 -0.93926217892E-01  0.13020697994E+00  0.20790652837E-01 0.  0.
         14    1    1    2    0    0  0.13114000778E-01 -0.13478106305E-01 -0.11052960128E-01  0.21812938673E-01  0.00000000000E+00 0. -1.
     999901    1    3    3    0    0 -0.11640770070E-02  0.10040722279E+00  0.10497917802E+00  0.89191008139E+00  0.88000000000E+00 0. -1.
        -11    1    4    4    0    0 -0.74358915486E-02 -0.85125440152E-02 -0.84551318669E-02  0.14124668655E-01  0.51100000000E-03 0.  1.
         11    1    4    4    0    0 -0.45140322220E-02 -0.78416572474E-01 -0.85471086025E-01  0.11608231128E+00  0.51100000000E-03 0. -1.
</event>
<event>
 8    1  0.1123285E+005  0.1043930E+01  0.7957747E-01            NaN
         13   -1    0    0    0    0  0.00000000000E+00  0.00000000000E+00  0.74505805969E-08  0.10566000000E+00  0.10566000000E+00 0.  1.
     999900   -1    0    0    0    0 -0.00000000000E+00 -0.00000000000E+00 -0.74505805969E-08  0.93827000000E+00  0.93827000000E+00 0. -1.
     999902    2    1    2    0    0 -0.21980468419E-01 -0.10595869757E-01  0.43697618824E-02  0.10191407227E+01  0.10188391946E+01 0.  0.
     999903    2    3    3    0    0  0.92395836431E-01  0.21883348379E-01 -0.81931102622E-01  0.12696098865E+00  0.19761465924E-01 0.  0.
         14    1    1    2    0    0  0.21980468419E-01  0.10595869757E-01 -0.43697618824E-02  0.24789277254E-01  0.00000000000E+00 0. -1.
     999901    1    3    3    0    0 -0.11437630485E+00 -0.32479218137E-01  0.86300864504E-01  0.89217973410E+00  0.88000000000E+00 0.  1.
        -11    1    4    4    0    0  0.19518813607E-01  0.24590518114E-02 -0.28066724541E-01  0.34278756802E-01  0.51100000000E-03 0. -1.
         11    1    4    4    0    0  0.72877022824E-01  0.19424296568E-01 -0.53864378081E-01  0.92682231846E-01  0.51100000000E-03 0.  1.
</event>
<event>
 8    1  0.1123285E+005  0.1043930E+01  0.7957747E-01            NaN
         13   -1    0    0    0    0  0.00000000000E+00  0.00000000000E+00  0.74505805969E-08  0.10566000000E+00  0.10566000000E+00 0. -1.
     999900   -1    0    0    0    0 -0.00000000000E+00 -0.00000000000E+00 -0.74505805969E-08  0.93827000000E+00  0.93827000000E+00 0. -1.
     999902    2    1    2    0    0  0.20252477275E-01 -0.63652044955E-02  0.13863524511E-01  0.10185750010E+01  0.10182593759E+01 0.  0.
     999903    2    3    3    0    0  0.12121352216E+00 -0.22354367343E-01  0.43765209277E-01  0.13215360193E+00  0.18887701489E-01 0.  0.
         14    1    1    2    0    0 -0.20252477275E-01  0.63652044955E-02 -0.13863524511E-01  0.25354999033E-01  0.00000000000E+00 0.  1.
     999901    1    3    3    0    0 -0.10096104488E+00  0.15989162848E-01 -0.29901684766E-01  0.88642139903E+00  0.88000000000E+00 0. -1.
        -11    1    4    4    0    0  0.91229309361E-01 -0.24263799132E-01  0.29608585294E-01  0.98936587161E-01  0.51100000000E-03 0.  1.
         11    1    4    4    0    0  0.29984212797E-01  0.19094317889E-02  0.14156623984E-01  0.33217014773E-01  0.51100000000E-03 0. -1.
</event>
<event>
 8    1  0.1123285E+005  0.1043930E+01  0.7957747E-01            NaN
         13   -1    0    0    0    0  0.00000000000E+00  0.00000000000E+00  0.74505805969E-08  0.10566000000E+00  0.10566000000E+00 0. -1.
     999900   -1    0    0    0    0 -0.00000000000E+00 -0.00000000000E+00 -0.74505805969E-08  0.93827000000E+00  0.93827000000E+00 0. -1.
     999902    2    1    2    0    0  0.18595583977E-01  0.74277474336E-02  0.13016669234E-01  0.10200469338E+01  0.10197673000E+01 0.  0.
     999903    2    3    3    0    0 -0.14416492795E-01 -0.85921111570E-01  0.95293087108E-01  0.13068018397E+00  0.20156025217E-01 0.  0.
         14    1    1    2    0    0 -0.18595583977E-01 -0.74277474336E-02 -0.13016669234E-01  0.23883066247E-01  0.00000000000E+00 0.  1.
     999901    1    3    3    0    0  0.33012076772E-01  0.93348859004E-01 -0.82276417874E-01  0.88936674979E+00  0.88000000000E+00 0.  1.
        -11    1    4    4    0    0 -0.76920413641E-02 -0.21805803228E-01  0.37717923364E-01  0.44244360303E-01  0.51100000000E-03 0. -1.
         11    1    4    4    0    0 -0.67244514307E-02 -0.64115308343E-01  0.57575163745E-01  0.86435823662E-01  0.51100000000E-03 0.  1.
</event>
<event>
 8    1  0.1123285E+005  0.1043930E+01  0.7957747E-01            NaN
         13   -1    0    0    0    0  0.00000000000E+00  0.00000000000E+00  0.74505805969E-08  0.10566000000E+00  0.10566000000E+00 0. -1.
     999900   -1    0    0    0    0 -0.00000000000E+00 -0.00000000000E+00 -0.74505805969E-08  0.93827000000E+00  0.93827000000E+00 0. -1.
     999902    2    1    2    0    0  0.25952611167E-02  0.24247108433E-01 -0.27433378308E-02  0.10193905715E+01  0.10190951642E+01 0.  0.
     999903    2    3    3    0    0 -0.81547047262E-02 -0.24512142671E-01 -0.12535012422E+00  0.12948863850E+00  0.19680180645E-01 0.  0.
         14    1    1    2    0    0 -0.25952611167E-02 -0.24247108433E-01  0.27433378308E-02  0.24539428479E-01  0.00000000000E+00 0. -1.
     999901    1    3    3    0    0  0.10749965843E-01  0.48759251104E-01  0.12260678639E+00  0.88990193303E+00  0.88000000000E+00 0.  1.
        -11    1    4    4    0    0 -0.84047136861E-02 -0.11514014817E-02 -0.45613509935E-01  0.46398473543E-01  0.51100000000E-03 0.  1.
         11    1    4    4    0    0  0.25000895984E-03 -0.23360741189E-01 -0.79736614284E-01  0.83090164953E-01  0.51100000000E-03 0. -1.
</event>
<event>
 8    1  0.1123285E+005  0.1043930E+01  0.7957747E-01            NaN
         13   -1    0    0    0    0  0.00000000000E+00  0.00000000000E+00  0.74505805969E-08  0.10566000000E+00  0.10566000000E+00 0. -1.
     999900   -1    0    0    0    0 -0.00000000000E+00 -0.00000000000E+00 -0.74505805969E-08  0.93827000000E+00  0.93827000000E+00 0. -1.
     999902    2    1    2    0    0  0.21128792623E-01  0.84431047520E-02 -0.78739560356E-02  0.10198528100E+01  0.10195685573E+01 0.  0.
     999903    2    3    3    0    0  0.79744100573E-01 -0.32759811448E-01 -0.98182853551E-01  0.13233428533E+00  0.20980074355E-01 0.  0.
         14    1    1    2    0    0 -0.21128792623E-01 -0.84431047520E-02  0.78739560356E-02  0.24077190019E-01  0.00000000000E+00 0.  1.
     999901    1    3    3    0    0 -0.58615307951E-01  0.41202916200E-01  0.90308897515E-01  0.88751852465E+00  0.88000000000E+00 0. -1.
        -11    1    4    4    0    0  0.40453421270E-01 -0.17373320098E-01 -0.34486489428E-01  0.55927547933E-01  0.51100000000E-03 0. -1.
         11    1    4    4    0    0  0.39290679303E-01 -0.15386491350E-01 -0.63696364123E-01  0.76406737397E-01  0.51100000000E-03 0.  1.
</event>
<event>
 8    1  0.1123285E+005  0.1043930E+01  0.7957747E-01            NaN
         13   -1    0    0    0    0  0.00000000000E+00  0.00000000000E+00  0.74505805969E-08  0.10566000000E+00  0.10566000000E+00 0.  1.
     999900   -1    0    0    0    0 -0.00000000000E+00 -0.00000000000E+00 -0.74505805969E-08  0.93827000000E+00  0.93827000000E+00 0. -1.
     999902    2    1    2    0    0 -0.12833187648E-01  0.93878302572E-02 -0.17065326586E-01  0.10206051756E+01  0.10203386090E+01 0.  0.
     999903    2    3    3    0    0 -0.19309346851E-01  0.97356854380E-01  0.82714740213E-01  0.13058464124E+00  0.18958172595E-01 0.  0.
         14    1    1    2    0    0  0.12833187648E-01 -0.93878302572E-02  0.17065326586E-01  0.23324824407E-01  0.00000000000E+00 0.  1.
     999901    1    3    3    0    0  0.64761592034E-02 -0.87969024122E-01 -0.99780066799E-01  0.89002053435E+00  0.88000000000E+00 0.  1.
        -11    1    4    4    0    0  0.10638649873E-02  0.11692113898E-01  0.17197258115E-01  0.20828925652E-01  0.51100000000E-03 0.  1.
         11    1    4    4    0    0 -0.20373211839E-01  0.85664740482E-01  0.65517482098E-01  0.10975571559E+00  0.51100000000E-03 0. -1.
</event>
<event>
 8    1  0.1123285E+005  0.1043930E+01  0.7957747E-01            NaN
         13   -1    0    0    0    0  0.00000000000E+00  0.00000000000E+00  0.74505805969E-08  0.10566000000E+00  0.10566000000E+00 0. -1.
     999900   -1    0    0    0    0 -0.00000000000E+00 -0.00000000000E+00 -0.74505805969E-08  0.93827000000E+00  0.93827000000E+00 0. -1.
     999902    2    1    2    0    0 -0.62494109626E-02  0.38668954607E-02  0.24389332505E-01  0.10184575137E+01  0.10181389196E+01 0.  0.
     999903    2    3    3    0    0  0.91654369699E-01  0.77560685818E-01 -0.39080062495E-01  0.12770261526E+00  0.19092490421E-01 0.  0.
         14    1    1    2    0    0  0.62494109626E-02 -0.38668954607E-02 -0.24389332505E-01  0.25472486292E-01  0.00000000000E+00 0.  1.
     999901    1    3    3    0    0 -0.97903780661E-01 -0.73693790357E-01  0.63469395000E-01  0.89075489845E+00  0.88000000000E+00 0. -1.
        -11    1    4    4    0    0  0.46596569447E-01  0.51769140938E-01 -0.22837488231E-01  0.73301406721E-01  0.51100000000E-03 0.  1.
         11    1    4    4    0    0  0.45057800252E-01  0.25791544880E-01 -0.16242574265E-01  0.54401208540E-01  0.51100000000E-03 0. -1.
</event>
<event>
 8    1  0.1123285E+005  0.1043930E+01  0.7957747E-01            NaN
         13   -1    0    0    0    0  0.00000000000E+00  0.00000000000E+00  0.74505805969E-08  0.10566000000E+00  0.10566000000E+00 0. -1.
     999900   -1    0    0    0    0 -0.00000000000E+00 -0.00000000000E+00 -0.74505805969E-08  0.93827000000E+00  0.93827000000E+00 0. -1.
     999902    2    1    2    0    0 -0.11793896532E-01  0.12375892246E-01 -0.16410394238E-01  0.10202327482E+01  0.10199574995E+01 0.  0.
     999903    2    3    3    0    0 -0.36081134689E-01  0.11515890783E+00  0.48660861061E-01  0.13153230007E+00  0.19220932017E-01 0.  0.
         14    1    1    2    0    0  0.11793896532E-01 -0.12375892246E-01  0.16410394238E-01  0.23697251809E-01  0.00000000000E+00 0.  1.
     999901    1    3    3    0    0  0.24287238157E-01 -0.10278301559E+00 -0.65071255299E-01  0.88870044812E+00  0.88000000000E+00 0. -1.
        -11    1    4    4    0    0 -0.20532097025E-01  0.82163332080E-01  0.26021646939E-01  0.88598912957E-01  0.51100000000E-03 0. -1.
         11    1    4    4    0    0 -0.15549037664E-01  0.32995575753E-01  0.22639214123E-01  0.42933387109E-01  0.51100000000E-03 0.  1.
</event>
<event>
 8    1  0.1123285E+005  0.1043930E+01  0.7957747E-01            NaN
         13   -1    0    0    0    0  0.00000000000E+00  0.00000000000E+00  0.74505805969E-08  0.10566000000E+00  0.10566000000E+00 0.  1.
     999900   -1    0    0    0    0 -0.00000000000E+00 -0.00000000000E+00 -0.74505805969E-08  0.93827000000E+00  0.93827000000E+00 0.  1.
     999902    2    1    2    0    0  0.19275011626E-01  0.11164871645E-01 -0.11932775580E-01  0.10186600264E+01  0.10183465411E+01 0.  0.
     999903    2    3    3    0    0 -0.32851377670E-01 -0.43907369295E-01 -0.11572384604E+00  0.12932167770E+00  0.18028246961E-01 0.  0.
         14    1    1    2    0    0 -0.19275011626E-01 -0.11164871645E-01  0.11932775580E-01  0.25269973586E-01  0.00000000000E+00 0.  1.
     999901    1    3    3    0    0  0.52126389296E-01  0.55072240940E-01  0.10379107046E+00  0.88933834871E+00  0.88000000000E+00 0. -1.
        -11    1    4    4    0    0 -0.21169520693E-01 -0.14382397178E-01 -0.58996632614E-01  0.64310696900E-01  0.51100000000E-03 0. -1.
         11    1    4    4    0    0 -0.11681856977E-01 -0.29524972117E-01 -0.56727213424E-01  0.65010980802E-01  0.51100000000E-03 0.  1.
</event>
<event>
 8    1  0.1123285E+005  0.1043930E+01  0.7957747E-01            NaN
         13   -1    0    0    0    0  0.00000000000E+00  0.00000000000E+00  0.74505805969E-08  0.10566000000E+00  0.10566000000E+00 0. -1.
     999900   -1    0    0    0    0 -0.00000000000E+00 -0.00000000000E+00 -0.74505805969E-08  0.93827000000E+00  0.93827000000E+00 0. -1.
     999902    2    1    2    0    0 -0.18764052387E-01  0.14033098232E-01 -0.61209886436E-02  0.10197125681E+01  0.10194249543E+01 0.  0.
     999903    2    3    3    0    0 -0.18797647374E-01 -0.10172323765E+00  0.73389490203E-01  0.12857764748E+00  0.21100368098E-01 0.  0.
         14    1    1    2    0    0  0.18764052387E-01 -0.14033098232E-01  0.61209886436E-02  0.24217431944E-01  0.00000000000E+00 0. -1.
     999901    1    3    3    0    0  0.33594986797E-04  0.11575633588E+00 -0.79510478847E-01  0.89113492058E+00  0.88000000000E+00 0.  1.
        -11    1    4    4    0    0 -0.18238953938E-01 -0.77773625289E-01  0.65641034412E-01  0.10339440387E+00  0.51100000000E-03 0.  1.
         11    1    4    4    0    0 -0.55869343589E-03 -0.23949612362E-01  0.77484557911E-02  0.25183243612E-01  0.51100000000E-03 0. -1.
</event>
<event>
 8    1  0.1123285E+005  0.1043930E+01  0.7957747E-01            NaN
         13   -1    0    0    0    0  0.00000000000E+00  0.00000000000E+00  0.74505805969E-08  0.10566000000E+00  0.10566000000E+00 0.  1.
     999900   -1    0    0    0    0 -0.00000000000E+00 -0.00000000000E+00 -0.74505805969E-08  0.93827000000E+00  0.93827000000E+00 0.  1.
     999902    2    1    2    0    0  0.10686262240E-01  0.12718481523E-01  0.17114935637E-01  0.10200788576E+01  0.10197999797E+01 0.  0.
     999903    2    3    3    0    0  0.12590461439E+00 -0.11844869145E-01  0.33650596696E-01  0.13207432214E+00  0.17860320864E-01 0.  0.
         14    1    1    2    0    0 -0.10686262240E-01 -0.12718481523E-01 -0.17114935637E-01  0.23851142421E-01  0.00000000000E+00 0. -1.
     999901    1    3    3    0    0 -0.11521835215E+00  0.24563350668E-01 -0.16535661059E-01  0.88800453544E+00  0.88000000000E+00 0.  1.
        -11    1    4    4    0    0  0.67848813424E-01  0.89462528783E-03  0.12593490922E-01  0.69015353162E-01  0.51100000000E-03 0. -1.
         11    1    4    4    0    0  0.58055800968E-01 -0.12739494433E-01  0.21057105774E-01  0.63058968982E-01  0.51100000000E-03 0.  1.
</event>
<event>
 8    1  0.1123285E+005  0.1043930E+01  0.7957747E-01            NaN
         13   -1    0    0    0    0  0.00000000000E+00  0.00000000000E+00  0.74505805969E-08  0.10566000000E+00  0.10566000000E+00 0. -1.
     999900   -1    0    0    0    0 -0.00000000000E+00 -0.00000000000E+00 -0.74505805969E-08  0.93827000000E+00  0.93827000000E+00 0. -1.
     999902    2    1    2    0    0  0.90410129676E-03  0.11417177629E-01 -0.20204677215E-01  0.10207050495E+01  0.10204407870E+01 0.  0.
     999903    2    3    3    0    0  0.75247180741E-01 -0.96994971939E-01  0.35185190444E-01  0.12921858013E+00  0.19730206126E-01 0.  0.
         14    1    1    2    0    0 -0.90410129676E-03 -0.11417177629E-01  0.20204677215E-01  0.23224950496E-01  0.00000000000E+00 0. -1.
     999901    1    3    3    0    0 -0.74343079444E-01  0.10841214957E+00 -0.55389867659E-01  0.89148646937E+00  0.88000000000E+00 0.  1.
        -11    1    4    4    0    0  0.67417494734E-01 -0.75881805684E-01  0.32240224737E-01  0.10650286495E+00  0.51100000000E-03 0. -1.
         11    1    4    4    0    0  0.78296860065E-02 -0.21113166254E-01  0.29449657065E-02  0.22715715183E-01  0.51100000000E-03 0.  1.
</event>
<event>
 8    1  0.1123285E+005  0.1043930E+01  0.7957747E-01            NaN
         13   -1    0    0    0    0  0.00000000000E+00  0.00000000000E+00  0.74505805969E-08  0.10566000000E+00  0.10566000000E+00 0.  1.
     999900   -1    0    0    0    0 -0.00000000000E+00 -0.00000000000E+00 -0.74505805969E-08  0.93827000000E+00  0.93827000000E+00 0. -1.
     999902    2    1    2    0    0 -0.42925882282E-02  0.22427334863E-01  0.11171692011E-01  0.10185091746E+01  0.10181918878E+01 0.  0.
     999903    2    3    3    0    0 -0.93300029291E-01 -0.39555711183E-01  0.77718768906E-01  0.12935635531E+00  0.20574495544E-01 0.  0.
         14    1    1    2    0    0  0.42925882282E-02 -0.22427334863E-01 -0.11171692011E-01  0.25420825422E-01  0.00000000000E+00 0. -1.
     999901    1    3    3    0    0  0.89007441063E-01  0.61983046046E-01 -0.66547076894E-01  0.88915281926E+00  0.88000000000E+00 0.  1.
        -11    1    4    4    0    0 -0.27359844172E-01 -0.11884068009E-01  0.35263759634E-01  0.46190756760E-01  0.51100000000E-03 0.  1.
         11    1    4    4    0    0 -0.65940185119E-01 -0.27671643175E-01  0.42455009272E-01  0.83165598554E-01  0.51100000000E-03 0. -1.
</event>
<event>
 8    1  0.1123285E+005  0.1043930E+01  0.7957747E-01            NaN
         13   -1    0    0    0    0  0.00000000000E+00  0.00000000000E+00  0.74505805969E-08  0.10566000000E+00  0.10566000000E+00 0. -1.
     999900   -1    0    0    0    0 -0.00000000000E+00 -0.00000000000E+00 -0.74505805969E-08  0.93827000000E+00  0.93827000000E+00 0. -1.
     999902    2    1    2    0    0  0.11937195621E-01 -0.18782558063E-01 -0.35968316745E-02  0.10213863019E+01  0.10211374831E+01 0.  0.
     999903    2    3    3    0    0  0.65112608870E-01  0.11019186168E+00  0.13139678462E-01  0.13023977280E+00  0.20195273114E-01 0.  0.
         14    1    1    2    0    0 -0.11937195621E-01  0.18782558063E-01  0.35968316745E-02  0.22543698117E-01  0.00000000000E+00 0. -1.
     999901    1    3    3    0    0 -0.53175413248E-01 -0.12897441974E+00 -0.16736510137E-01  0.89114652908E+00  0.88000000000E+00 0.  1.
        -11    1    4    4    0    0  0.35672784186E-01  0.76462471209E-01  0.13595116728E-01  0.85464292864E-01  0.51100000000E-03 0.  1.
         11    1    4    4    0    0  0.29439824684E-01  0.33729390467E-01 -0.45543826618E-03  0.44775479938E-01  0.51100000000E-03 0. -1.
</event>
<event>
 8    1  0.1123285E+005  0.1043930E+01  0.7957747E-01            NaN
         13   -1    0    0    0    0  0.00000000000E+00  0.00000000000E+00  0.74505805969E-08  0.10566000000E+00  0.10566000000E+00 0.  1.
     999900   -1    0    0    0    0 -0.00000000000E+00 -0.00000000000E+00 -0.74505805969E-08  0.93827000000E+00  0.93827000000E+00 0.  1.
     999902    2    1    2    0    0  0.34807334205E-03 -0.53961607421E-02  0.20797048649E-01  0.10224414696E+01  0.10222156337E+01 0.  0.
     999903    2    3    3    0    0  0.10031665742E+00 -0.62281300592E-01 -0.50544941491E-01  0.13209360698E+00  0.30847005287E-01 0.  0.
         14    1    1    2    0    0 -0.34807334205E-03  0.53961607421E-02 -0.20797048649E-01  0.21488530390E-01  0.00000000000E+00 0. -1.
     999901    1    3    3    0    0 -0.99968584074E-01  0.56885139850E-01  0.71341990140E-01  0.89034786263E+00  0.88000000000E+00 0. -1.
        -11    1    4    4    0    0  0.59301838671E-01 -0.52925256011E-01 -0.27402105877E-01  0.84076913128E-01  0.51100000000E-03 0. -1.
         11    1    4    4    0    0  0.41014818745E-01 -0.93560445809E-02 -0.23142835614E-01  0.48016693849E-01  0.51100000000E-03 0.  1.
</event>
<event>
 8    1  0.1123285E+005  0.1043930E+01  0.7957747E-01            NaN
         13   -1    0    0    0    0  0.00000000000E+00  0.00000000000E+00  0.74505805969E-08  0.10566000000E+00  0.10566000000E+00 0.  1.
     999900   -1    0    0    0    0 -0.00000000000E+00 -0.00000000000E+00 -0.74505805969E-08  0.93827000000E+00  0.93827000000E+00 0. -1.
     999902    2    1    2    0    0 -0.24834073527E-02 -0.15807822578E-01  0.17043312664E-01  0.10205520387E+01  0.10202842421E+01 0.  0.
     999903    2    3    3    0    0 -0.64960002387E-02 -0.21638524314E-01  0.12987757944E+00  0.13331944817E+00  0.19886323621E-01 0.  0.
         14    1    1    2    0    0  0.24834073527E-02  0.15807822578E-01 -0.17043312664E-01  0.23377961273E-01  0.00000000000E+00 0. -1.
     999901    1    3    3    0    0  0.40125928861E-02  0.58307017360E-02 -0.11283426677E+00  0.88723259055E+00  0.88000000000E+00 0. -1.
        -11    1    4    4    0    0  0.57446385320E-02 -0.13257453983E-01  0.79361838093E-01  0.80667982648E-01  0.51100000000E-03 0. -1.
         11    1    4    4    0    0 -0.12240638771E-01 -0.83810703307E-02  0.50515741343E-01  0.52651465524E-01  0.51100000000E-03 0.  1.
</event>
<event>
 8    1  0.1123285E+005  0.1043930E+01  0.7957747E-01            NaN
         13   -1    0    0    0    0  0.00000000000E+00  0.00000000000E+00  0.74505805969E-08  0.10566000000E+00  0.10566000000E+00 0.  1.
     999900   -1    0    0    0    0 -0.00000000000E+00 -0.00000000000E+00 -0.74505805969E-08  0.93827000000E+00  0.93827000000E+00 0. -1.
     999902    2    1    2    0    0  0.17250784105E-01 -0.15449509268E-01 -0.25128934286E-02  0.10206364060E+01  0.10203705610E+01 0.  0.
     999903    2    3    3    0    0 -0.86377139744E-01 -0.58343490852E-01  0.75407435492E-01  0.13010273569E+00  0.19376978932E-01 0.  0.
         14    1    1    2    0    0 -0.17250784105E-01  0.15449509268E-01  0.25128934286E-02  0.23293594018E-01  0.00000000000E+00 0. -1.
     999901    1    3    3    0    0  0.10362792385E+00  0.42893981583E-01 -0.77920328921E-01  0.89053367029E+00  0.88000000000E+00 0. -1.
        -11    1    4    4    0    0 -0.59136056281E-01 -0.42849532389E-01  0.62801354024E-01  0.96319399742E-01  0.51100000000E-03 0. -1.
         11    1    4    4    0    0 -0.27241083463E-01 -0.15493958463E-01  0.12606081468E-01  0.33783335953E-01  0.51100000000E-03 0.  1.
</event>
<event>
 8    1  0.1123285E+005  0.1043930E+01  0.7957747E-01            NaN
         13   -1    0    0    0    0  0.00000000000E+00  0.00000000000E+00  0.74505805969E-08  0.10566000000E+00  0.10566000000E+00 0.  1.
     999900   -1    0    0    0    0 -0.00000000000E+00 -0.00000000000E+00 -0.74505805969E-08  0.93827000000E+00  0.93827000000E+00 0. -1.
     999902    2    1    2    0    0 -0.19004025374E-01 -0.12246161559E-01  0.77478771631E-02  0.10200312332E+01  0.10197512273E+01 0.  0.
     999903    2    3    3    0    0 -0.24534049403E-01 -0.88916622961E-01 -0.90290149584E-01  0.13125657364E+00  0.23830476122E-01 0.  0.
         14    1    1    2    0    0  0.19004025374E-01  0.12246161559E-01 -0.77478771631E-02  0.23898766786E-01  0.00000000000E+00 0.  1.
     999901    1    3    3    0    0  0.55300240291E-02  0.76670461402E-01  0.98038026747E-01  0.88877465958E+00  0.88000000000E+00 0. -1.
        -11    1    4    4    0    0 -0.21221688749E-01 -0.43126486807E-01 -0.56902823499E-01  0.74487894190E-01  0.51100000000E-03 0. -1.
         11    1    4    4    0    0 -0.33123606539E-02 -0.45790136154E-01 -0.33387326085E-01  0.56768679447E-01  0.51100000000E-03 0.  1.
</event>
<event>
 8    1  0.1123285E+005  0.1043930E+01  0.7957747E-01            NaN
         13   -1    0    0    0    0  0.00000000000E+00  0.00000000000E+00  0.74505805969E-08  0.10566000000E+00  0.10566000000E+00 0.  1.
     999900   -1    0    0    0    0 -0.00000000000E+00 -0.00000000000E+00 -0.74505805969E-08  0.93827000000E+00  0.93827000000E+00 0. -1.
     999902    2    1    2    0    0 -0.97096105846E-02 -0.20660437508E-01  0.46324776081E-02  0.10206364373E+01  0.10203705930E+01 0.  0.
     999903    2    3    3    0    0  0.89404334679E-01 -0.72365651777E-01  0.61354019606E-01  0.13175267847E+00  0.19092667361E-01 0.  0.
         14    1    1    2    0    0  0.97096105846E-02  0.20660437508E-01 -0.46324776081E-02  0.23293562727E-01  0.00000000000E+00 0. -1.
     999901    1    3    3    0    0 -0.99113945263E-01  0.51705214269E-01 -0.56721541998E-01  0.88888375880E+00  0.88000000000E+00 0. -1.
        -11    1    4    4    0    0  0.45190384134E-01 -0.42423515982E-01  0.23476214401E-01  0.66282118931E-01  0.51100000000E-03 0.  1.
         11    1    4    4    0    0  0.44213950545E-01 -0.29942135795E-01  0.37877805205E-01  0.65470559543E-01  0.51100000000E-03 0. -1.
</event>
<event>
 8    1  0.1123285E+005  0.1043930E+01  0.7957747E-01            NaN
         13   -1    0    0    0    0  0.00000000000E+00  0.00000000000E+00  0.74505805969E-08  0.10566000000E+00  0.10566000000E+00 0.  1.
     999900   -1    0    0    0    0 -0.00000000000E+00 -0.00000000000E+00 -0.74505805969E-08  0.93827000000E+00  0.93827000000E+00 0. -1.
     999902    2    1    2    0    0  0.40378987485E-02 -0.97704933883E-02 -0.21563269410E-01  0.10199145517E+01  0.10196317723E+01 0.  0.
     999903    2    3    3    0    0  0.76752808864E-01  0.67119132454E-01  0.75033765036E-01  0.12832582381E+00  0.21011414776E-01 0.  0.
         14    1    1    2    0    0 -0.40378987485E-02  0.97704933883E-02  0.21563269410E-01  0.24015448257E-01  0.00000000000E+00 0.  1.
     999901    1    3    3    0    0 -0.72714910115E-01 -0.76889625842E-01 -0.96597034446E-01  0.89158872793E+00  0.88000000000E+00 0. -1.
        -11    1    4    4    0    0  0.36795080032E-01  0.24334392577E-01  0.21849713665E-01  0.49231206413E-01  0.51100000000E-03 0. -1.
         11    1    4    4    0    0  0.39957728831E-01  0.42784739877E-01  0.53184051370E-01  0.79094617395E-01  0.51100000000E-03 0.  1.
</event>
<event>
 8    1  0.1123285E+005  0.1043930E+01  0.7957747E-01            NaN
         13   -1    0    0    0    0  0.00000000000E+00  0.00000000000E+00  0.74505805969E-08  0.10566000000E+00  0.10566000000E+00 0. -1.
     999900   -1    0    0    0    0 -0.00000000000E+00 -0.00000000000E+00 -0.74505805969E-08  0.93827000000E+00  0.93827000000E+00 0. -1.
     999902    2    1    2    0    0  0.20709235347E-01  0.86925516269E-02 -0.71076513920E-02  0.10203725895E+01  0.10201006175E+01 0.  0.
     999903    2    3    3    0    0 -0.78273055745E-01 -0.88405930963E-01 -0.46907068063E-01  0.12862733278E+00  0.20060852874E-01 0.  0.
         14    1    1    2    0    0 -0.20709235347E-01 -0.86925516269E-02  0.71076513920E-02  0.23557410527E-01  0.00000000000E+00 0.  1.
     999901    1    3    3    0    0  0.98982291092E-01  0.97098482590E-01  0.39799416671E-01  0.89174525670E+00  0.88000000000E+00 0. -1.
        -11    1    4    4    0    0 -0.40394476748E-01 -0.52821133070E-01 -0.16898482314E-01  0.68611993675E-01  0.51100000000E-03 0.  1.
         11    1    4    4    0    0 -0.37878578997E-01 -0.35584797893E-01 -0.30008585749E-01  0.60015339102E-01  0.51100000000E-03 0. -1.
</event>
<event>
 8    1  0.1123285E+005  0.1043930E+01  0.7957747E-01            NaN
         13   -1    0    0    0    0  0.00000000000E+00  0.00000000000E+00  0.74505805969E-08  0.10566000000E+00  0.10566000000E+00 0.  1.
     999900   -1    0    0    0    0 -0.00000000000E+00 -0.00000000000E+00 -0.74505805969E-08  0.93827000000E+00  0.93827000000E+00 0.  1.
     999902    2    1    2    0    0 -0.15335783044E-01 -0.13647503592E-02 -0.17681003301E-01  0.10204850291E+01  0.10202156771E+01 0.  0.
     999903    2    3    3    0    0 -0.63024820832E-01 -0.95380820454E-01  0.59289039679E-01  0.13085721177E+00  0.23211865393E-01 0.  0.
         14    1    1    2    0    0  0.15335783044E-01  0.13647503592E-02  0.17681003301E-01  0.23444970950E-01  0.00000000000E+00 0.  1.
     999901    1    3    3    0    0  0.47689037788E-01  0.94016070094E-01 -0.76970042980E-01  0.88962781728E+00  0.88000000000E+00 0.  1.
        -11    1    4    4    0    0 -0.30099490817E-01 -0.64080538281E-01  0.41507232908E-01  0.82069520765E-01  0.51100000000E-03 0. -1.
         11    1    4    4    0    0 -0.32925330015E-01 -0.31300282172E-01  0.17781806771E-01  0.48787691006E-01  0.51100000000E-03 0.  1.
</event>
<event>
 8    1  0.1123285E+005  0.1043930E+01  0.7957747E-01            NaN
         13   -1    0    0    0    0  0.00000000000E+00  0.00000000000E+00  0.74505805969E-08  0.10566000000E+00  0.10566000000E+00 0.  1.
     999900   -1    0    0    0    0 -0.00000000000E+00 -0.00000000000E+00 -0.74505805969E-08  0.93827000000E+00  0.93827000000E+00 0.  1.
     999902    2    1    2    0    0  0.13596339123E-01 -0.17114942732E-01  0.95154218021E-02  0.10200904330E+01  0.10198118290E+01 0.  0.
     999903    2    3    3    0    0 -0.50427871614E-01 -0.11798900939E+00  0.26292299663E-01  0.13185840222E+00  0.15197915749E-01 0.  0.
         14    1    1    2    0    0 -0.13596339123E-01  0.17114942732E-01 -0.95154218021E-02  0.23839566992E-01  0.00000000000E+00 0.  1.
     999901    1    3    3    0    0  0.64024210737E-01  0.10087406666E+00 -0.16776877861E-01  0.88823203079E+00  0.88000000000E+00 0.  1.
        -11    1    4    4    0    0 -0.29910301859E-01 -0.55832264341E-01  0.76742699483E-02  0.63804572242E-01  0.51100000000E-03 0.  1.
         11    1    4    4    0    0 -0.20517569755E-01 -0.62156745047E-01  0.18618029715E-01  0.68053829980E-01  0.51100000000E-03 0. -1.
</event>
<event>
 8    1  0.1123285E+005  0.1043930E+01  0.7957747E-01            NaN
         13   -1    0    0    0    0  0.00000000000E+00  0.00000000000E+00  0.74505805969E-08  0.10566000000E+00  0.10566000000E+00 0.  1.
     999900   -1    0    0    0    0 -0.00000000000E+00 -0.00000000000E+00 -0.74505805969E-08  0.93827000000E+00  0.93827000000E+00 0.  1.
     999902    2    1    2    0    0  0.11550716858E-01  0.15505703673E-01  0.23239004824E-01  0.10136992664E+01  0.10132483928E+01 0.  0.
     999903    2    3    3    0    0 -0.52365550356E-01 -0.62765541706E-01  0.92742726928E-01  0.12519352957E+00  0.19762144575E-01 0.  0.
         14    1    1    2    0    0 -0.11550716858E-01 -0.15505703673E-01 -0.23239004824E-01  0.30230733559E-01  0.00000000000E+00 0. -1.
     999901    1    3    3    0    0  0.63916267214E-01  0.78271245378E-01 -0.69503722104E-01  0.88850573687E+00  0.88000000000E+00 0.  1.
        -11    1    4    4    0    0 -0.28758731867E-01 -0.29447584182E-01  0.60434592620E-01  0.73121993811E-01  0.51100000000E-03 0. -1.
         11    1    4    4    0    0 -0.23606818489E-01 -0.33317957524E-01  0.32308134308E-01  0.52071535758E-01  0.51100000000E-03 0.  1.
</event>
<event>
 8    1  0.1123285E+005  0.1043930E+01  0.7957747E-01            NaN
         13   -1    0    0    0    0  0.00000000000E+00  0.00000000000E+00  0.74505805969E-08  0.10566000000E+00  0.10566000000E+00 0. -1.
     999900   -1    0    0    0    0 -0.00000000000E+00 -0.00000000000E+00 -0.74505805969E-08  0.93827000000E+00  0.93827000000E+00 0. -1.
     999902    2    1    2    0    0  0.10509466918E-01  0.20110066870E-01  0.47462754305E-02  0.10207483086E+01  0.10204850409E+01 0.  0.
     999903    2    3    3    0    0  0.12959224486E-01  0.12765892996E+00 -0.30867501243E-01  0.13348222658E+00  0.19998957051E-01 0.  0.
         14    1    1    2    0    0 -0.10509466918E-01 -0.20110066870E-01 -0.47462754305E-02  0.23181691372E-01  0.00000000000E+00 0. -1.
     999901    1    3    3    0    0 -0.24497575681E-02 -0.10754886309E+00  0.35613776674E-01  0.88726608205E+00  0.88000000000E+00 0.  1.
        -11    1    4    4    0    0  0.16709175334E-01  0.12023064818E+00 -0.30379932289E-01  0.12513115803E+00  0.51100000000E-03 0. -1.
         11    1    4    4    0    0 -0.37499508484E-02  0.74282817732E-02 -0.48756895435E-03  0.83510685516E-02  0.51100000000E-03 0.  1.
</event>
<event>
 8    1  0.1123285E+005  0.1043930E+01  0.7957747E-01            NaN
         13   -1    0    0    0    0  0.00000000000E+00  0.00000000000E+00  0.74505805969E-08  0.10566000000E+00  0.10566000000E+00 0.  1.
     999900   -1    0    0    0    0 -0.00000000000E+00 -0.00000000000E+00 -0.74505805969E-08  0.93827000000E+00  0.93827000000E+00 0. -1.
     999902    2    1    2    0    0 -0.17404746683E-02 -0.22446040556E-01 -0.85600357217E-02  0.10198441494E+01  0.10195596897E+01 0.  0.
     999903    2    3    3    0    0 -0.54632771515E-01 -0.97748124630E-01  0.66459053805E-01  0.13187125411E+00  0.20827535527E-01 0.  0.
         14    1    1    2    0    0  0.17404746683E-02  0.22446040556E-01  0.85600357217E-02  0.24085850623E-01  0.00000000000E+00 0.  1.
     999901    1    3    3    0    0  0.52892296847E-01  0.75302084075E-01 -0.75019089527E-01  0.88797289526E+00  0.88000000000E+00 0. -1.
        -11    1    4    4    0    0 -0.25077189858E-01 -0.65566949262E-01  0.41371826764E-01  0.81484841888E-01  0.51100000000E-03 0.  1.
         11    1    4    4    0    0 -0.29555581657E-01 -0.32181175369E-01  0.25087227041E-01  0.50386412224E-01  0.51100000000E-03 0. -1.
</event>
<event>
 8    1  0.1123285E+005  0.1043930E+01  0.7957747E-01            NaN
         13   -1    0    0    0    0  0.00000000000E+00  0.00000000000E+00  0.74505805969E-08  0.10566000000E+00  0.10566000000E+00 0.  1.
     999900   -1    0    0    0    0 -0.00000000000E+00 -0.00000000000E+00 -0.74505805969E-08  0.93827000000E+00  0.93827000000E+00 0.  1.
     999902    2    1    2    0    0 -0.20384756934E-01 -0.10673970116E-01 -0.19721176018E-02  0.10208353859E+01  0.10205741148E+01 0.  0.
     999903    2    3    3    0    0  0.94899530102E-01 -0.73775389993E-01 -0.45385347568E-01  0.13001724251E+00  0.19897854008E-01 0.  0.
         14    1    1    2    0    0  0.20384756934E-01  0.10673970116E-01  0.19721176018E-02  0.23094614115E-01  0.00000000000E+00 0. -1.
     999901    1    3    3    0    0 -0.11528428704E+00  0.63101419877E-01  0.43413229966E-01  0.89081814337E+00  0.88000000000E+00 0. -1.
        -11    1    4    4    0    0  0.71619966237E-01 -0.55102925974E-01 -0.42999314352E-01  0.10007474292E+00  0.51100000000E-03 0.  1.
         11    1    4    4    0    0  0.23279563865E-01 -0.18672464019E-01 -0.23860332160E-02  0.29942499591E-01  0.51100000000E-03 0. -1.
</event>
<event>
 8    1  0.1123285E+005  0.1043930E+01  0.7957747E-01            NaN
         13   -1    0    0    0    0  0.00000000000E+00  0.00000000000E+00  0.74505805969E-08  0.10566000000E+00  0.10566000000E+00 0. -1.
     999900   -1    0    0    0    0 -0.00000000000E+00 -0.00000000000E+00 -0.74505805969E-08  0.93827000000E+00  0.93827000000E+00 0.  1.
     999902    2    1    2    0    0  0.19352265340E-01  0.10567542777E-01 -0.84128618857E-02  0.10203300132E+01  0.10200570456E+01 0.  0.
     999903    2    3    3    0    0  0.13250151415E-02  0.97024549771E-02 -0.12987317770E+00  0.13180407743E+00  0.20233122473E-01 0.  0.
         14    1    1    2    0    0 -0.19352265340E-01 -0.10567542777E-01  0.84128618857E-02  0.23599986849E-01  0.00000000000E+00 0. -1.
     999901    1    3    3    0    0  0.18027250199E-01  0.86508780026E-03  0.12146031581E+00  0.88852593572E+00  0.88000000000E+00 0. -1.
        -11    1    4    4    0    0  0.65745696047E-02  0.63126319071E-02 -0.22974785161E-01  0.24721977293E-01  0.51100000000E-03 0. -1.
         11    1    4    4    0    0 -0.52495544632E-02  0.33898230701E-02 -0.10689839254E+00  0.10708210014E+00  0.51100000000E-03 0.  1.
</event>
<event>
 8    1  0.1123285E+005  0.1043930E+01  0.7957747E-01            NaN
         13   -1    0    0    0    0  0.00000000000E+00  0.00000000000E+00  0.74505805969E-08  0.10566000000E+00  0.10566000000E+00 0.  1.
     999900   -1    0    0    0    0 -0.00000000000E+00 -0.00000000000E+00 -0.74505805969E-08  0.93827000000E+00  0.93827000000E+00 0.  1.
     999902    2    1    2    0    0 -0.35859742185E-02 -0.22845259638E-02  0.17470383332E-01  0.10259496617E+01  0.10257920919E+01 0.  0.
     999903    2    3    3    0    0 -0.67437723350E-01  0.27477924926E-01 -0.11059737251E+00  0.13389349791E+00  0.19819361460E-01 0.  0.
         14    1    1    2    0    0  0.35859742185E-02  0.22845259638E-02 -0.17470383332E-01  0.17980338254E-01  0.00000000000E+00 0. -1.
     999901    1    3    3    0    0  0.63851749131E-01 -0.29762450890E-01  0.12806775584E+00  0.89205616383E+00  0.88000000000E+00 0. -1.
        -11    1    4    4    0    0 -0.25580713212E-01  0.14158818425E-02 -0.30514480260E-01  0.39846859806E-01  0.51100000000E-03 0.  1.
         11    1    4    4    0    0 -0.41857010137E-01  0.26062043084E-01 -0.80082892247E-01  0.94046638105E-01  0.51100000000E-03 0. -1.
</event>
<event>
 8    1  0.1123285E+005  0.1043930E+01  0.7957747E-01            NaN
         13   -1    0    0    0    0  0.00000000000E+00  0.00000000000E+00  0.74505805969E-08  0.10566000000E+00  0.10566000000E+00 0.  1.
     999900   -1    0    0    0    0 -0.00000000000E+00 -0.00000000000E+00 -0.74505805969E-08  0.93827000000E+00  0.93827000000E+00 0.  1.
     999902    2    1    2    0    0 -0.11439054718E-02  0.12373101369E-02 -0.24501376462E-01  0.10193707471E+01  0.10190748565E+01 0.  0.
     999903    2    3    3    0    0  0.90013120792E-01 -0.90972283352E-01 -0.57886407731E-02  0.12967283258E+00  0.20080261301E-01 0.  0.
         14    1    1    2    0    0  0.11439054718E-02 -0.12373101369E-02  0.24501376462E-01  0.24559252933E-01  0.00000000000E+00 0.  1.
     999901    1    3    3    0    0 -0.91157026263E-01  0.92209593489E-01 -0.18712735689E-01  0.88969791449E+00  0.88000000000E+00 0. -1.
        -11    1    4    4    0    0  0.59549486435E-01 -0.67574643575E-01 -0.11620632863E-01  0.90817256169E-01  0.51100000000E-03 0.  1.
         11    1    4    4    0    0  0.30463634356E-01 -0.23397639777E-01  0.58319920896E-02  0.38855576409E-01  0.51100000000E-03 0. -1.
</event>
<event>
 8    1  0.1123285E+005  0.1043930E+01  0.7957747E-01            NaN
         13   -1    0    0    0    0  0.00000000000E+00  0.00000000000E+00  0.74505805969E-08  0.10566000000E+00  0.10566000000E+00 0. -1.
     999900   -1    0    0    0    0 -0.00000000000E+00 -0.00000000000E+00 -0.74505805969E-08  0.93827000000E+00  0.93827000000E+00 0.  1.
     999902    2    1    2    0    0  0.11506363343E-01 -0.13279057865E-01 -0.16436771808E-01  0.10198697165E+01  0.10195858676E+01 0.  0.
     999903    2    3    3    0    0 -0.70187786671E-01 -0.50212652854E-01  0.93187453817E-01  0.12854738678E+00  0.19821533637E-01 0.  0.
         14    1    1    2    0    0 -0.11506363343E-01  0.13279057865E-01  0.16436771808E-01  0.24060283511E-01  0.00000000000E+00 0. -1.
     999901    1    3    3    0    0  0.81694150014E-01  0.36933594989E-01 -0.10962422563E+00  0.89132232970E+00  0.88000000000E+00 0.  1.
        -11    1    4    4    0    0 -0.54003466516E-01 -0.47858041258E-01  0.77116380526E-01  0.10561232776E+00  0.51100000000E-03 0.  1.
         11    1    4    4    0    0 -0.16184320154E-01 -0.23546115960E-02  0.16071073291E-01  0.22935059023E-01  0.51100000000E-03 0. -1.
</event>
<event>
 8    1  0.1123285E+005  0.1043930E+01  0.7957747E-01            NaN
         13   -1    0    0    0    0  0.00000000000E+00  0.00000000000E+00  0.74505805969E-08  0.10566000000E+00  0.10566000000E+00 0. -1.
     999900   -1    0    0    0    0 -0.00000000000E+00 -0.00000000000E+00 -0.74505805969E-08  0.93827000000E+00  0.93827000000E+00 0.  1.
     999902    2    1    2    0    0 -0.16010051296E-01 -0.78523817148E-02 -0.18058678889E-01  0.10185509235E+01  0.10182346911E+01 0.  0.
     999903    2    3    3    0    0  0.48594858715E-02  0.10171566351E+00 -0.77408876969E-01  0.12952722295E+00  0.20383239348E-01 0.  0.
         14    1    1    2    0    0  0.16010051296E-01  0.78523817148E-02  0.18058678889E-01  0.25379076507E-01  0.00000000000E+00 0. -1.
     999901    1    3    3    0    0 -0.20869537168E-01 -0.10956804522E+00  0.59350198080E-01  0.88902370054E+00  0.88000000000E+00 0. -1.
        -11    1    4    4    0    0  0.23102594645E-02  0.95983562955E-01 -0.77249220507E-01  0.12323102226E+00  0.51100000000E-03 0. -1.
         11    1    4    4    0    0  0.25492264070E-02  0.57321005504E-02 -0.15965646192E-03  0.62962006940E-02  0.51100000000E-03 0.  1.
</event>
<event>
 8    1  0.1123285E+005  0.1043930E+01  0.7957747E-01            NaN
         13   -1    0    0    0    0  0.00000000000E+00  0.00000000000E+00  0.74505805969E-08  0.10566000000E+00  0.10566000000E+00 0.  1.
     999900   -1    0    0    0    0 -0.00000000000E+00 -0.00000000000E+00 -0.74505805969E-08  0.93827000000E+00  0.93827000000E+00 0.  1.
     999902    2    1    2    0    0 -0.23283106986E-01 -0.11487591466E-01  0.22511846172E-02  0.10178697686E+01  0.10175361075E+01 0.  0.
     999903    2    3    3    0    0  0.21439206224E-01 -0.12148047813E+00 -0.31864235701E-01  0.12924027195E+00  0.21692677221E-01 0.  0.
         14    1    1    2    0    0  0.23283106986E-01  0.11487591466E-01 -0.22511846172E-02  0.26060231403E-01  0.00000000000E+00 0. -1.
     999901    1    3    3    0    0 -0.44722313210E-01  0.10999288667E+00  0.34115420319E-01  0.88862949665E+00  0.88000000000E+00 0. -1.
        -11    1    4    4    0    0  0.10583369314E-01 -0.32438381671E-01 -0.17646464708E-01  0.38417641119E-01  0.51100000000E-03 0.  1.
         11    1    4    4    0    0  0.10855836910E-01 -0.89042096461E-01 -0.14217770993E-01  0.90822630826E-01  0.51100000000E-03 0. -1.
</event>
<event>
 8    1  0.1123285E+005  0.1043930E+01  0.7957747E-01            NaN
         13   -1    0    0    0    0  0.00000000000E+00  0.00000000000E+00  0.74505805969E-08  0.10566000000E+00  0.10566000000E+00 0.  1.
     999900   -1    0    0    0    0 -0.00000000000E+00 -0.00000000000E+00 -0.74505805969E-08  0.93827000000E+00  0.93827000000E+00 0. -1.
     999902    2    1    2    0    0  0.95116816689E-02  0.20830188573E-01 -0.43207036810E-02  0.10206268387E+01  0.10203607728E+01 0.  0.
     999903    2    3    3    0    0  0.94370625031E-01 -0.75011596092E-01 -0.45329032932E-01  0.13041991279E+00  0.20544537181E-01 0.  0.
         14    1    1    2    0    0 -0.95116816689E-02 -0.20830188573E-01  0.43207036810E-02  0.23303161254E-01  0.00000000000E+00 0.  1.
     999901    1    3    3    0    0 -0.84858943362E-01  0.95841784665E-01  0.41008329251E-01  0.89020692596E+00  0.88000000000E+00 0.  1.
        -11    1    4    4    0    0  0.47004170036E-01 -0.24579824987E-01 -0.21595150127E-01  0.57272780858E-01  0.51100000000E-03 0. -1.
         11    1    4    4    0    0  0.47366454995E-01 -0.50431771105E-01 -0.23733882805E-01  0.73147131929E-01  0.51100000000E-03 0.  1.
</event>
<event>
 8    1  0.1123285E+005  0.1043930E+01  0.7957747E-01            NaN
         13   -1    0    0    0    0  0.00000000000E+00  0.00000000000E+00  0.74505805969E-08  0.10566000000E+00  0.10566000000E+00 0.  1.
     999900   -1    0    0    0    0 -0.00000000000E+00 -0.00000000000E+00 -0.74505805969E-08  0.93827000000E+00  0.93827000000E+00 0.  1.
     999902    2    1    2    0    0  0.28912705033E-02 -0.17738606365E-01 -0.15130835766E-01  0.10204361755E+01  0.10201656867E+01 0.  0.
     999903    2    3    3    0    0 -0.85989786686E-01  0.71685535248E-01  0.59498071327E-01  0.12832295775E+00  0.19841915612E-01 0.  0.
         14    1    1    2    0    0 -0.28912705033E-02  0.17738606365E-01  0.15130835766E-01  0.23493824548E-01  0.00000000000E+00 0.  1.
     999901    1    3    3    0    0  0.88881057190E-01 -0.89424141614E-01 -0.74628907093E-01  0.89211321771E+00  0.88000000000E+00 0.  1.
        -11    1    4    4    0    0 -0.20663369088E-01  0.18327236246E-01  0.54922116968E-02  0.28165367401E-01  0.51100000000E-03 0.  1.
         11    1    4    4    0    0 -0.65326417598E-01  0.53358299002E-01  0.54005859630E-01  0.10015759035E+00  0.51100000000E-03 0. -1.
</event>
<event>
 8    1  0.1123285E+005  0.1043930E+01  0.7957747E-01            NaN
         13   -1    0    0    0    0  0.00000000000E+00  0.00000000000E+00  0.74505805969E-08  0.10566000000E+00  0.10566000000E+00 0. -1.
     999900   -1    0    0    0    0 -0.00000000000E+00 -0.00000000000E+00 -0.74505805969E-08  0.93827000000E+00  0.93827000000E+00 0. -1.
     999902    2    1    2    0    0 -0.12419040580E-01  0.18723267179E-01 -0.77047678825E-02  0.10201780159E+01  0.10199014792E+01 0.  0.
     999903    2    3    3    0    0  0.28679206127E-01  0.98689365707E-01  0.79368714338E-01  0.13132176533E+00  0.19594016042E-01 0.  0.
         14    1    1    2    0    0  0.12419040580E-01 -0.18723267179E-01  0.77047678825E-02  0.23751984147E-01  0.00000000000E+00 0.  1.
     999901    1    3    3    0    0 -0.41098246707E-01 -0.79966098528E-01 -0.87073482221E-01  0.88885625053E+00  0.88000000000E+00 0. -1.
        -11    1    4    4    0    0  0.38044065683E-02  0.33291422642E-01  0.35068443053E-01  0.48506176412E-01  0.51100000000E-03 0. -1.
         11    1    4    4    0    0  0.24874799559E-01  0.65397943065E-01  0.44300271285E-01  0.82815588914E-01  0.51100000000E-03 0.  1.
</event>
<event>
 8    1  0.1123285E+005  0.1043930E+01  0.7957747E-01            NaN
         13   -1    0    0    0    0  0.00000000000E+00  0.00000000000E+00  0.74505805969E-08  0.10566000000E+00  0.10566000000E+00 0.  1.
     999900   -1    0    0    0    0 -0.00000000000E+00 -0.00000000000E+00 -0.74505805969E-08  0.93827000000E+00  0.93827000000E+00 0.  1.
     999902    2    1    2    0    0 -0.16119318725E-01  0.89480184431E-02  0.16614894642E-01  0.10191115755E+01  0.10188093291E+01 0.  0.
     999903    2    3    3    0    0  0.12270541040E+00  0.22224410948E-01 -0.17902712605E-01  0.12746140127E+00  0.19374197088E-01 0.  0.
         14    1    1    2    0    0  0.16119318725E-01 -0.89480184431E-02 -0.16614894642E-01  0.24818424490E-01  0.00000000000E+00 0. -1.
     999901    1    3    3    0    0 -0.13882472912E+00 -0.13276392505E-01  0.34517607246E-01  0.89165017424E+00  0.88000000000E+00 0.  1.
        -11    1    4    4    0    0  0.67133692402E-02  0.55746715221E-02  0.87336962606E-03  0.87846562049E-02  0.51100000000E-03 0.  1.
         11    1    4    4    0    0  0.11599204115E+00  0.16649739426E-01 -0.18776082231E-01  0.11867674506E+00  0.51100000000E-03 0. -1.
</event>
<event>
 8    1  0.1123285E+005  0.1043930E+01  0.7957747E-01            NaN
         13   -1    0    0    0    0  0.00000000000E+00  0.00000000000E+00  0.74505805969E-08  0.10566000000E+00  0.10566000000E+00 0.  1.
     999900   -1    0    0    0    0 -0.00000000000E+00 -0.00000000000E+00 -0.74505805969E-08  0.93827000000E+00  0.93827000000E+00 0. -1.
     999902    2    1    2    0    0  0.83193858249E-02  0.63412288264E-02  0.20681972933E-01  0.10207531286E+01  0.10204899716E+01 0.  0.
     999903    2    3    3    0    0 -0.39487463152E-01  0.75059187975E-01  0.10071670042E+00  0.13316470465E+00  0.19895813020E-01 0.  0.
         14    1    1    2    0    0 -0.83193858249E-02 -0.63412288264E-02 -0.20681972933E-01  0.23176871401E-01  0.00000000000E+00 0. -1.
     999901    1    3    3    0    0  0.47806848976E-01 -0.68717959148E-01 -0.80034727490E-01  0.88758842395E+00  0.88000000000E+00 0. -1.
        -11    1    4    4    0    0 -0.27409120514E-01  0.31127562506E-01  0.50699565945E-01  0.65504901671E-01  0.51100000000E-03 0.  1.
         11    1    4    4    0    0 -0.12078342637E-01  0.43931625469E-01  0.50017134478E-01  0.67659802982E-01  0.51100000000E-03 0. -1.
</event>
<event>
 8    1  0.1123285E+005  0.1043930E+01  0.7957747E-01            NaN
         13   -1    0    0    0    0  0.00000000000E+00  0.00000000000E+00  0.74505805969E-08  0.10566000000E+00  0.10566000000E+00 0. -1.
     999900   -1    0    0    0    0 -0.00000000000E+00 -0.00000000000E+00 -0.74505805969E-08  0.93827000000E+00  0.93827000000E+00 0.  1.
     999902    2    1    2    0    0  0.82938150580E-02  0.25314960059E-01  0.13653979185E-01  0.10139956432E+01  0.10135536980E+01 0.  0.
     999903    2    3    3    0    0 -0.93800518858E-01 -0.32472394088E-01 -0.68593126864E-01  0.12240873335E+00  0.20637035431E-01 0.  0.
         14    1    1    2    0    0 -0.82938150580E-02 -0.25314960059E-01 -0.13653979185E-01  0.29934356826E-01  0.00000000000E+00 0.  1.
     999901    1    3    3    0    0  0.10209433392E+00  0.57787354147E-01  0.82247106049E-01  0.89158690982E+00  0.88000000000E+00 0.  1.
        -11    1    4    4    0    0 -0.27394744916E-01 -0.67872555613E-02 -0.30873869033E-01  0.41832951092E-01  0.51100000000E-03 0.  1.
         11    1    4    4    0    0 -0.66405773942E-01 -0.25685138527E-01 -0.37719257832E-01  0.80575782257E-01  0.51100000000E-03 0. -1.
</event>
<event>
 8    1  0.1123285E+005  0.1043930E+01  0.7957747E-01            NaN
         13   -1    0    0    0    0  0.00000000000E+00  0.00000000000E+00  0.74505805969E-08  0.10566000000E+00  0.10566000000E+00 0. -1.
     999900   -1    0    0    0    0 -0.00000000000E+00 -0.00000000000E+00 -0.74505805969E-08  0.93827000000E+00  0.93827000000E+00 0.  1.
     999902    2    1    2    0    0  0.11349128469E-01 -0.11304067401E-01  0.17108960139E-01  0.10204928250E+01  0.10202236542E+01 0.  0.
     999903    2    3    3    0    0  0.93386631052E-01 -0.89293304515E-01 -0.21618247449E-01  0.13239808365E+00  0.19171511180E-01 0.  0.
         14    1    1    2    0    0 -0.11349128469E-01  0.11304067401E-01 -0.17108960139E-01  0.23437175040E-01  0.00000000000E+00 0.  1.
     999901    1    3    3    0    0 -0.82037502583E-01  0.77989237114E-01  0.38727207587E-01  0.88809474131E+00  0.88000000000E+00 0.  1.
        -11    1    4    4    0    0  0.49471556088E-01 -0.43613761834E-01 -0.20337275583E-01  0.69017830901E-01  0.51100000000E-03 0. -1.
         11    1    4    4    0    0  0.43915074965E-01 -0.45679542681E-01 -0.12809718658E-02  0.63380252749E-01  0.51100000000E-03 0.  1.
</event>
<event>
 8    1  0.1123285E+005  0.1043930E+01  0.7957747E-01            NaN
         13   -1    0    0    0    0  0.00000000000E+00  0.00000000000E+00  0.74505805969E-08  0.10566000000E+00  0.10566000000E+00 0. -1.
     999900   -1    0    0    0    0 -0.00000000000E+00 -0.00000000000E+00 -0.74505805969E-08  0.93827000000E+00  0.93827000000E+00 0.  1.
     999902    2    1    2    0    0 -0.49677555062E-02  0.22598577917E-01 -0.19309924273E-01  0.10137928552E+01  0.10133448109E+01 0.  0.
     999903    2    3    3    0    0 -0.75525490784E-01 -0.93405075611E-01  0.13595240987E-01  0.12277209705E+00  0.21437101657E-01 0.  0.
         14    1    1    2    0    0  0.49677555062E-02 -0.22598577917E-01  0.19309924273E-01  0.30137144756E-01  0.00000000000E+00 0. -1.
     999901    1    3    3    0    0  0.70557735278E-01  0.11600365353E+00 -0.32905165260E-01  0.89102075820E+00  0.88000000000E+00 0.  1.
        -11    1    4    4    0    0 -0.37131629839E-01 -0.56922619686E-01 -0.48797150146E-03  0.67966475586E-01  0.51100000000E-03 0.  1.
         11    1    4    4    0    0 -0.38393860945E-01 -0.36482455925E-01  0.14083212488E-01  0.54805621459E-01  0.51100000000E-03 0. -1.
</event>
<event>
 8    1  0.1123285E+005  0.1043930E+01  0.7957747E-01            NaN
         13   -1    0    0    0    0  0.00000000000E+00  0.00000000000E+00  0.74505805969E-08  0.10566000000E+00  0.10566000000E+00 0. -1.
     999900   -1    0    0    0    0 -0.00000000000E+00 -0.00000000000E+00 -0.74505805969E-08  0.93827000000E+00  0.93827000000E+00 0.  1.
     999902    2    1    2    0    0 -0.18124712429E-01  0.95302847210E-02  0.11486529148E-01  0.10204508203E+01  0.10201806726E+01 0.  0.
     999903    2    3    3    0    0 -0.13016145308E+00  0.62046676341E-02 -0.16134906380E-01  0.13291139318E+00  0.20605860011E-01 0.  0.
         14    1    1    2    0    0  0.18124712429E-01 -0.95302847210E-02 -0.11486529148E-01  0.23479179700E-01  0.00000000000E+00 0.  1.
     999901    1    3    3    0    0  0.11203674065E+00  0.33256170869E-02  0.27621435528E-01  0.88753942712E+00  0.88000000000E+00 0. -1.
        -11    1    4    4    0    0 -0.97013692371E-01  0.72585085586E-02 -0.32875097146E-02  0.97341724328E-01  0.51100000000E-03 0.  1.
         11    1    4    4    0    0 -0.33147760706E-01 -0.10538409244E-02 -0.12847396665E-01  0.35569668857E-01  0.51100000000E-03 0. -1.
</event>
<event>
 8    1  0.1123285E+005  0.1043930E+01  0.7957747E-01            NaN
         13   -1    0    0    0    0  0.00000000000E+00  0.00000000000E+00  0.74505805969E-08  0.10566000000E+00  0.10566000000E+00 0. -1.
     999900   -1    0    0    0    0 -0.00000000000E+00 -0.00000000000E+00 -0.74505805969E-08  0.93827000000E+00  0.93827000000E+00 0. -1.
     999902    2    1    2    0    0 -0.15138116637E-02 -0.29009670642E-01  0.20557168228E-01  0.10083427863E+01  0.10077146048E+01 0.  0.
     999903    2    3    3    0    0 -0.10578515649E+00 -0.46250922718E-01 -0.27891202980E-01  0.12069588642E+00  0.21445992840E-01 0.  0.
         14    1    1    2    0    0  0.15138116637E-02  0.29009670642E-01 -0.20557168228E-01  0.35587213744E-01  0.00000000000E+00 0.  1.
     999901    1    3    3    0    0  0.10427134482E+00  0.17241252076E-01  0.48448371208E-01  0.88764689984E+00  0.88000000000E+00 0.  1.
        -11    1    4    4    0    0 -0.55556044346E-01 -0.30185410899E-01 -0.24630601856E-01  0.67856913895E-01  0.51100000000E-03 0. -1.
         11    1    4    4    0    0 -0.50229112139E-01 -0.16065511819E-01 -0.32606011242E-02  0.52838972520E-01  0.51100000000E-03 0.  1.
</event>
<event>
 8    1  0.1123285E+005  0.1043930E+01  0.7957747E-01            NaN
         13   -1    0    0    0    0  0.00000000000E+00  0.00000000000E+00  0.74505805969E-08  0.10566000000E+00  0.10566000000E+00 0. -1.
     999900   -1    0    0    0    0 -0.00000000000E+00 -0.00000000000E+00 -0.74505805969E-08  0.93827000000E+00  0.93827000000E+00 0.  1.
     999902    2    1    2    0    0  0.12082127889E-01 -0.19522338912E-01 -0.73191835771E-02  0.10198329052E+01  0.10195481766E+01 0.  0.
     999903    2    3    3    0    0 -0.30710552406E-02 -0.13073342091E+00 -0.19110926003E-01  0.13262573156E+00  0.11121980772E-01 0.  0.
         14    1    1    2    0    0 -0.12082127889E-01  0.19522338912E-01  0.73191835771E-02  0.24097094828E-01  0.00000000000E+00 0.  1.
     999901    1    3    3    0    0  0.15153183130E-01  0.11121108200E+00  0.11791742426E-01  0.88720717361E+00  0.88000000000E+00 0. -1.
        -11    1    4    4    0    0 -0.12500944943E-02 -0.50901999443E-01 -0.12913053517E-01  0.52531746170E-01  0.51100000000E-03 0. -1.
         11    1    4    4    0    0 -0.18209607463E-02 -0.79831421466E-01 -0.61978724862E-02  0.80093985390E-01  0.51100000000E-03 0.  1.
</event>
<event>
 8    1  0.1123285E+005  0.1043930E+01  0.7957747E-01            NaN
         13   -1    0    0    0    0  0.00000000000E+00  0.00000000000E+00  0.74505805969E-08  0.10566000000E+00  0.10566000000E+00 0. -1.
     999900   -1    0    0    0    0 -0.00000000000E+00 -0.00000000000E+00 -0.74505805969E-08  0.93827000000E+00  0.93827000000E+00 0. -1.
     999902    2    1    2    0    0 -0.17790539480E-01 -0.14658407823E-01  0.43121270508E-02  0.10204786321E+01  0.10202091315E+01 0.  0.
     999903    2    3    3    0    0 -0.67636783040E-02 -0.13148416922E-01  0.12909416253E+00  0.13160607203E+00  0.20886052356E-01 0.  0.
         14    1    1    2    0    0  0.17790539480E-01  0.14658407823E-01 -0.43121270508E-02  0.23451367862E-01  0.00000000000E+00 0.  1.
     999901    1    3    3    0    0 -0.11026861176E-01 -0.15099909005E-02 -0.12478203548E+00  0.88887256011E+00  0.88000000000E+00 0. -1.
        -11    1    4    4    0    0 -0.11213148368E-01 -0.15769172265E-01  0.83323864949E-01  0.85542557136E-01  0.51100000000E-03 0. -1.
         11    1    4    4    0    0  0.44494700638E-02  0.26207553423E-02  0.45770297582E-01  0.46063514892E-01  0.51100000000E-03 0.  1.
</event>
<event>
 8    1  0.1123285E+005  0.1043930E+01  0.7957747E-01            NaN
         13   -1    0    0    0    0  0.00000000000E+00  0.00000000000E+00  0.74505805969E-08  0.10566000000E+00  0.10566000000E+00 0. -1.
     999900   -1    0    0    0    0 -0.00000000000E+00 -0.00000000000E+00 -0.74505805969E-08  0.93827000000E+00  0.93827000000E+00 0.  1.
     999902    2    1    2    0    0  0.20679325133E-01 -0.59158747653E-02  0.12313212711E-01  0.10191459876E+01  0.10188445891E+01 0.  0.
     999903    2    3    3    0    0 -0.20013451153E-01 -0.67450456501E-01 -0.10345228723E+00  0.12850349045E+00  0.29337161028E-01 0.  0.
         14    1    1    2    0    0 -0.20679325133E-01  0.59158747653E-02 -0.12313212711E-01  0.24784012377E-01  0.00000000000E+00 0. -1.
     999901    1    3    3    0    0  0.40692776286E-01  0.61534581735E-01  0.11576549994E+00  0.89064249717E+00  0.88000000000E+00 0. -1.
        -11    1    4    4    0    0 -0.14765648344E-01 -0.69070824872E-01 -0.97388268277E-01  0.12030602287E+00  0.51100000000E-03 0. -1.
         11    1    4    4    0    0 -0.52478028090E-02  0.16203683717E-02 -0.60640189481E-02  0.81974675836E-02  0.51100000000E-03 0.  1.
</event>
<event>
 8    1  0.1123285E+005  0.1043930E+01  0.7957747E-01            NaN
         13   -1    0    0    0    0  0.00000000000E+00  0.00000000000E+00  0.74505805969E-08  0.10566000000E+00  0.10566000000E+00 0.  1.
     999900   -1    0    0    0    0 -0.00000000000E+00 -0.00000000000E+00 -0.74505805969E-08  0.93827000000E+00  0.93827000000E+00 0.  1.
     999902    2    1    2    0    0  0.20970220337E-01  0.12726339013E-01  0.74555010538E-03  0.10193888979E+01  0.10190934499E+01 0.  0.
     999903    2    3    3    0    0  0.53495125607E-01 -0.11593835371E+00 -0.49522122913E-02  0.12941983268E+00  0.20531399381E-01 0.  0.
         14    1    1    2    0    0 -0.20970220337E-01 -0.12726339013E-01 -0.74555010538E-03  0.24541102066E-01  0.00000000000E+00 0. -1.
     999901    1    3    3    0    0 -0.32524905270E-01  0.12866469272E+00  0.56977623967E-02  0.88996906526E+00  0.88000000000E+00 0. -1.
        -11    1    4    4    0    0  0.43755216856E-01 -0.72839756661E-01 -0.63441724393E-02  0.85209499456E-01  0.51100000000E-03 0.  1.
         11    1    4    4    0    0  0.97399087504E-02 -0.43098597045E-01  0.13919601479E-02  0.44210333224E-01  0.51100000000E-03 0. -1.
</event>
<event>
 8    1  0.1123285E+005  0.1043930E+01  0.7957747E-01            NaN
         13   -1    0    0    0    0  0.00000000000E+00  0.00000000000E+00  0.74505805969E-08  0.10566000000E+00  0.10566000000E+00 0.  1.
     999900   -1    0    0    0    0 -0.00000000000E+00 -0.00000000000E+00 -0.74505805969E-08  0.93827000000E+00  0.93827000000E+00 0. -1.
     999902    2    1    2    0    0 -0.17256632936E-01  0.15525522349E-01  0.40075435774E-02  0.10203738197E+01  0.10201018764E+01 0.  0.
     999903    2    3    3    0    0  0.11301557050E+00  0.11724608117E-01 -0.56913233565E-01  0.12869190612E+00  0.20310217450E-01 0.  0.
         14    1    1    2    0    0  0.17256632936E-01 -0.15525522349E-01 -0.40075435774E-02  0.23556180293E-01  0.00000000000E+00 0.  1.
     999901    1    3    3    0    0 -0.13027220344E+00  0.38009142316E-02  0.60920777143E-01  0.89168191359E+00  0.88000000000E+00 0.  1.
        -11    1    4    4    0    0  0.10105680537E+00  0.16190865608E-01 -0.47555938551E-01  0.11285588356E+00  0.51100000000E-03 0.  1.
         11    1    4    4    0    0  0.11958765132E-01 -0.44662574908E-02 -0.93572950143E-02  0.15836022557E-01  0.51100000000E-03 0. -1.
</event>
<event>
 8    1  0.1123285E+005  0.1043930E+01  0.7957747E-01            NaN
         13   -1    0    0    0    0  0.00000000000E+00  0.00000000000E+00  0.74505805969E-08  0.10566000000E+00  0.10566000000E+00 0.  1.
     999900   -1    0    0    0    0 -0.00000000000E+00 -0.00000000000E+00 -0.74505805969E-08  0.93827000000E+00  0.93827000000E+00 0. -1.
     999902    2    1    2    0    0 -0.20195256317E-01  0.10084885923E-01  0.21145475471E-02  0.10212578891E+01  0.10210061956E+01 0.  0.
     999903    2    3    3    0    0 -0.10516698162E+00 -0.78454055231E-01 -0.45724309848E-02  0.13271748265E+00  0.19439399908E-01 0.  0.
         14    1    1    2    0    0  0.20195256317E-01 -0.10084885923E-01 -0.21145475471E-02  0.22672110910E-01  0.00000000000E+00 0. -1.
     999901    1    3    3    0    0  0.84971725306E-01  0.88538941155E-01  0.66869785319E-02  0.88854040644E+00  0.88000000000E+00 0. -1.
        -11    1    4    4    0    0 -0.45914462373E-01 -0.33480849222E-01  0.76196187532E-02  0.57336069194E-01  0.51100000000E-03 0.  1.
         11    1    4    4    0    0 -0.59252519250E-01 -0.44973206009E-01 -0.12192049738E-01  0.75381413452E-01  0.51100000000E-03 0. -1.
</event>
<event>
 8    1  0.1123285E+005  0.1043930E+01  0.7957747E-01            NaN
         13   -1    0    0    0    0  0.00000000000E+00  0.00000000000E+00  0.74505805969E-08  0.10566000000E+00  0.10566000000E+00 0.  1.
     999900   -1    0    0    0    0 -0.00000000000E+00 -0.00000000000E+00 -0.74505805969E-08  0.93827000000E+00  0.93827000000E+00 0. -1.
     999902    2    1    2    0    0 -0.67134995919E-03  0.22985736636E-01 -0.68114781981E-02  0.10199468594E+01  0.10196648493E+01 0.  0.
     999903    2    3    3    0    0  0.69024833373E-01  0.41465965848E-01 -0.10237399526E+00  0.13184141995E+00  0.20441897254E-01 0.  0.
         14    1    1    2    0    0  0.67134995919E-03 -0.22985736636E-01  0.68114781981E-02  0.23983140635E-01  0.00000000000E+00 0.  1.
     999901    1    3    3    0    0 -0.69696183332E-01 -0.18480229212E-01  0.95562517066E-01  0.88810543941E+00  0.88000000000E+00 0.  1.
        -11    1    4    4    0    0  0.37648355763E-01  0.22698129435E-01 -0.71741711192E-01  0.84141179082E-01  0.51100000000E-03 0.  1.
         11    1    4    4    0    0  0.31376477610E-01  0.18767836413E-01 -0.30632284072E-01  0.47700240873E-01  0.51100000000E-03 0. -1.
</event>
<event>
 8    1  0.1123285E+005  0.1043930E+01  0.7957747E-01            NaN
         13   -1    0    0    0    0  0.00000000000E+00  0.00000000000E+00  0.74505805969E-08  0.10566000000E+00  0.10566000000E+00 0.  1.
     999900   -1    0    0    0    0 -0.00000000000E+00 -0.00000000000E+00 -0.74505805969E-08  0.93827000000E+00  0.93827000000E+00 0.  1.
     999902    2    1    2    0    0 -0.12239498115E-01 -0.18074545753E-01 -0.87410078778E-02  0.10204161799E+01  0.10201452252E+01 0.  0.
     999903    2    3    3    0    0  0.91019526697E-01 -0.71027698463E-01  0.57028258758E-01  0.13036446282E+00  0.20326895519E-01 0.  0.
         14    1    1    2    0    0  0.12239498115E-01  0.18074545753E-01  0.87410078778E-02  0.23513820127E-01  0.00000000000E+00 0.  1.
     999901    1    3    3    0    0 -0.10325902481E+00  0.52953152710E-01 -0.65769266636E-01  0.89005171705E+00  0.88000000000E+00 0.  1.
        -11    1    4    4    0    0  0.70576784531E-01 -0.45904015735E-01  0.47155093922E-01  0.96499353258E-01  0.51100000000E-03 0. -1.
         11    1    4    4    0    0  0.20442742165E-01 -0.25123682728E-01  0.98731648357E-02  0.33865109566E-01  0.51100000000E-03 0.  1.
</event>
<event>
 8    1  0.1123285E+005  0.1043930E+01  0.7957747E-01            NaN
         13   -1    0    0    0    0  0.00000000000E+00  0.00000000000E+00  0.74505805969E-08  0.10566000000E+00  0.10566000000E+00 0.  1.
     999900   -1    0    0    0    0 -0.00000000000E+00 -0.00000000000E+00 -0.74505805969E-08  0.93827000000E+00  0.93827000000E+00 0.  1.
     999902    2    1    2    0    0 -0.20908673294E-01  0.30315060682E-02  0.70754972935E-02  0.10216493961E+01  0.10214064143E+01 0.  0.
     999903    2    3    3    0    0  0.95241698231E-01  0.77160682920E-01 -0.37752280703E-01  0.12979987217E+00  0.19950439743E-01 0.  0.
         14    1    1    2    0    0  0.20908673294E-01 -0.30315060682E-02 -0.70754972935E-02  0.22280603895E-01  0.00000000000E+00 0. -1.
     999901    1    3    3    0    0 -0.11615037153E+00 -0.74129176852E-01  0.44827777997E-01  0.89184952394E+00  0.88000000000E+00 0. -1.
        -11    1    4    4    0    0  0.29618595935E-01  0.33261699645E-01 -0.20256121926E-01  0.48930292099E-01  0.51100000000E-03 0. -1.
         11    1    4    4    0    0  0.65623102297E-01  0.43898983275E-01 -0.17496158777E-01  0.80869580069E-01  0.51100000000E-03 0.  1.
</event>
<event>
 8    1  0.1123285E+005  0.1043930E+01  0.7957747E-01            NaN
         13   -1    0    0    0    0  0.00000000000E+00  0.00000000000E+00  0.74505805969E-08  0.10566000000E+00  0.10566000000E+00 0.  1.
     999900   -1    0    0    0    0 -0.00000000000E+00 -0.00000000000E+00 -0.74505805969E-08  0.93827000000E+00  0.93827000000E+00 0.  1.
     999902    2    1    2    0    0  0.48780160583E-02 -0.77733711141E-02  0.23636532668E-01  0.10185744086E+01  0.10182587686E+01 0.  0.
     999903    2    3    3    0    0 -0.12099383723E+00  0.18718287053E-01  0.35955713944E-01  0.12913790516E+00  0.19846971246E-01 0.  0.
         14    1    1    2    0    0 -0.48780160583E-02  0.77733711141E-02 -0.23636532668E-01  0.25355591409E-01  0.00000000000E+00 0. -1.
     999901    1    3    3    0    0  0.12587185328E+00 -0.26491658167E-01 -0.12319181276E-01  0.88943650343E+00  0.88000000000E+00 0.  1.
        -11    1    4    4    0    0 -0.82467956748E-01  0.21455174068E-01  0.28033973155E-01  0.89707598097E-01  0.51100000000E-03 0.  1.
         11    1    4    4    0    0 -0.38525880478E-01 -0.27368870153E-02  0.79217407890E-02  0.39430307066E-01  0.51100000000E-03 0. -1.
</event>
<event>
 8    1  0.1123285E+005  0.1043930E+01  0.7957747E-01            NaN
         13   -1    0    0    0    0  0.00000000000E+00  0.00000000000E+00  0.74505805969E-08  0.10566000000E+00  0.10566000000E+00 0.  1.
     999900   -1    0    0    0    0 -0.00000000000E+00 -0.00000000000E+00 -0.74505805969E-08  0.93827000000E+00  0.93827000000E+00 0.  1.
     999902    2    1    2    0    0  0.86161579891E-02 -0.21281735365E-01 -0.61462986262E-02  0.10201617980E+01  0.10198848791E+01 0.  0.
     999903    2    3    3    0    0  0.50338803799E-01  0.10586735626E+00 -0.50281821209E-01  0.12895160114E+00  0.18930441168E-01 0.  0.
         14    1    1    2    0    0 -0.86161579891E-02  0.21281735365E-01  0.61462986262E-02  0.23768201982E-01  0.00000000000E+00 0. -1.
     999901    1    3    3    0    0 -0.41722645810E-01 -0.12714909162E+00  0.44135522583E-01  0.89121019688E+00  0.88000000000E+00 0. -1.
        -11    1    4    4    0    0  0.27103226585E-01  0.35722732280E-01 -0.18356756953E-01  0.48455444893E-01  0.51100000000E-03 0.  1.
         11    1    4    4    0    0  0.23235577213E-01  0.70144623976E-01 -0.31925064256E-01  0.80496156243E-01  0.51100000000E-03 0. -1.
</event>
<event>
 7    1  0.1237107E+005  0.1043930E+01  0.7957747E-01            NaN
         13   -1    0    0    0    0  0.00000000000E+00  0.00000000000E+00  0.74505805969E-08  0.10566000000E+00  0.10566000000E+00 0.  1.
     999900   -1    0    0    0    0 -0.00000000000E+00 -0.00000000000E+00 -0.74505805969E-08  0.93827000000E+00  0.93827000000E+00 0.  1.
     999903    2    1    2    0    0 -0.39084839380E-01  0.67837238180E-01  0.59265316307E-01  0.10035681471E+00  0.20726721611E-01 0.  0.
         14    1    1    2    0    0 -0.18251574733E-01 -0.47687341632E-01  0.26120701641E-01  0.57354106971E-01  0.00000000000E+00 0.  1.
     999901    1    1    2    0    0  0.57336414113E-01 -0.20149896548E-01 -0.85386017947E-01  0.88621907832E+00  0.88000000000E+00 0.  1.
        -11    1    3    3    0    0 -0.21065755136E-01  0.39911890773E-01  0.46360291018E-01  0.64701335139E-01  0.51100000000E-03 0. -1.
         11    1    3    3    0    0 -0.18019084244E-01  0.27925347407E-01  0.12905025289E-01  0.35655479572E-01  0.51100000000E-03 0.  1.
</event>
<event>
 8    1  0.1123285E+005  0.1043930E+01  0.7957747E-01            NaN
         13   -1    0    0    0    0  0.00000000000E+00  0.00000000000E+00  0.74505805969E-08  0.10566000000E+00  0.10566000000E+00 0.  1.
     999900   -1    0    0    0    0 -0.00000000000E+00 -0.00000000000E+00 -0.74505805969E-08  0.93827000000E+00  0.93827000000E+00 0.  1.
     999902    2    1    2    0    0 -0.17589404520E-01 -0.16617706141E-01 -0.71074580816E-02  0.10187099431E+01  0.10183977106E+01 0.  0.
     999903    2    3    3    0    0 -0.11024835883E+00  0.16368643990E-01  0.64553133081E-01  0.13033557303E+00  0.19940448227E-01 0.  0.
         14    1    1    2    0    0  0.17589404520E-01  0.16617706141E-01  0.71074580816E-02  0.25220056882E-01  0.00000000000E+00 0.  1.
     999901    1    3    3    0    0  0.92658954307E-01 -0.32986350131E-01 -0.71660591163E-01  0.88837437009E+00  0.88000000000E+00 0. -1.
        -11    1    4    4    0    0 -0.87679518094E-01  0.20693415060E-01  0.48664770758E-01  0.10239353668E+00  0.51100000000E-03 0. -1.
         11    1    4    4    0    0 -0.22568840734E-01 -0.43247710708E-02  0.15888362323E-01  0.27942036347E-01  0.51100000000E-03 0.  1.
</event>
<event>
 8    1  0.1123285E+005  0.1043930E+01  0.7957747E-01            NaN
         13   -1    0    0    0    0  0.00000000000E+00  0.00000000000E+00  0.74505805969E-08  0.10566000000E+00  0.10566000000E+00 0. -1.
     999900   -1    0    0    0    0 -0.00000000000E+00 -0.00000000000E+00 -0.74505805969E-08  0.93827000000E+00  0.93827000000E+00 0. -1.
     999902    2    1    2    0    0  0.27815881977E-02 -0.20004625912E-01 -0.19648875210E-01  0.10157519840E+01  0.10153610650E+01 0.  0.
     999903    2    3    3    0    0 -0.26932300705E-01  0.22783513582E-01  0.11685778664E+00  0.12370500717E+00  0.20068612012E-01 0.  0.
         14    1    1    2    0    0 -0.27815881977E-02  0.20004625912E-01  0.19648875210E-01  0.28178016038E-01  0.00000000000E+00 0. -1.
     999901    1    3    3    0    0  0.29713888903E-01 -0.42788139495E-01 -0.13650666185E+00  0.89204697679E+00  0.88000000000E+00 0. -1.
        -11    1    4    4    0    0 -0.72053437287E-02  0.24308219147E-03  0.48976739466E-01  0.49507152987E-01  0.51100000000E-03 0. -1.
         11    1    4    4    0    0 -0.19726956977E-01  0.22540431391E-01  0.67881047174E-01  0.74197854182E-01  0.51100000000E-03 0.  1.
</event>
<event>
 8    1  0.1123285E+005  0.1043930E+01  0.7957747E-01            NaN
         13   -1    0    0    0    0  0.00000000000E+00  0.00000000000E+00  0.74505805969E-08  0.10566000000E+00  0.10566000000E+00 0.  1.
     999900   -1    0    0    0    0 -0.00000000000E+00 -0.00000000000E+00 -0.74505805969E-08  0.93827000000E+00  0.93827000000E+00 0.  1.
     999902    2    1    2    0    0 -0.65084775885E-02  0.64411751522E-02  0.21678212532E-01  0.10203971736E+01  0.10201257756E+01 0.  0.
     999903    2    3    3    0    0  0.70812854837E-01 -0.80903273281E-01 -0.66990781229E-01  0.12828180466E+00  0.20215256590E-01 0.  0.
         14    1    1    2    0    0  0.65084775885E-02 -0.64411751522E-02 -0.21678212532E-01  0.23532826359E-01  0.00000000000E+00 0. -1.
     999901    1    3    3    0    0 -0.77321332425E-01  0.87344448434E-01  0.88668993761E-01  0.89211536898E+00  0.88000000000E+00 0. -1.
        -11    1    4    4    0    0  0.21649241997E-01 -0.28914365536E-01 -0.12098371759E-01  0.38096744397E-01  0.51100000000E-03 0. -1.
         11    1    4    4    0    0  0.49163612840E-01 -0.51988907745E-01 -0.54892409470E-01  0.90185060262E-01  0.51100000000E-03 0.  1.
</event>
<event>
 8    1  0.1123285E+005  0.1043930E+01  0.7957747E-01            NaN
         13   -1    0    0    0    0  0.00000000000E+00  0.00000000000E+00  0.74505805969E-08  0.10566000000E+00  0.10566000000E+00 0.  1.
     999900   -1    0    0    0    0 -0.00000000000E+00 -0.00000000000E+00 -0.74505805969E-08  0.93827000000E+00  0.93827000000E+00 0.  1.
     999902    2    1    2    0    0 -0.66855353410E-02  0.16591912010E-01 -0.15120456242E-01  0.10205074441E+01  0.10202386130E+01 0.  0.
     999903    2    3    3    0    0 -0.61130314365E-01 -0.11215688147E+00 -0.54734266314E-02  0.12942184163E+00  0.20099086987E-01 0.  0.
         14    1    1    2    0    0  0.66855353410E-02 -0.16591912010E-01  0.15120456242E-01  0.23422555879E-01  0.00000000000E+00 0.  1.
     999901    1    3    3    0    0  0.54444779024E-01  0.12874879348E+00 -0.96470296109E-02  0.89108560249E+00  0.88000000000E+00 0.  1.
        -11    1    4    4    0    0 -0.31031343960E-01 -0.52204618841E-01  0.71704762827E-02  0.61155076547E-01  0.51100000000E-03 0. -1.
         11    1    4    4    0    0 -0.30098970405E-01 -0.59952262624E-01 -0.12643902914E-01  0.68266765084E-01  0.51100000000E-03 0.  1.
</event>
<event>
 8    1  0.1123285E+005  0.1043930E+01  0.7957747E-01            NaN
         13   -1    0    0    0    0  0.00000000000E+00  0.00000000000E+00  0.74505805969E-08  0.10566000000E+00  0.10566000000E+00 0. -1.
     999900   -1    0    0    0    0 -0.00000000000E+00 -0.00000000000E+00 -0.74505805969E-08  0.93827000000E+00  0.93827000000E+00 0. -1.
     999902    2    1    2    0    0  0.21565886603E-01  0.38135317741E-02  0.10923567027E-01  0.10194564468E+01  0.10191626426E+01 0.  0.
     999903    2    3    3    0    0  0.32380444799E-01 -0.76722957826E-01 -0.96756683721E-01  0.12917664964E+00  0.19744505704E-01 0.  0.
         14    1    1    2    0    0 -0.21565886603E-01 -0.38135317741E-02 -0.10923567027E-01  0.24473553199E-01  0.00000000000E+00 0.  1.
     999901    1    3    3    0    0 -0.10814558196E-01  0.80536489600E-01  0.10768025075E+00  0.89027979716E+00  0.88000000000E+00 0.  1.
        -11    1    4    4    0    0  0.32755399061E-01 -0.59503693028E-01 -0.82091030909E-01  0.10654953838E+00  0.51100000000E-03 0. -1.
         11    1    4    4    0    0 -0.37495426202E-03 -0.17219264797E-01 -0.14665652812E-01  0.22627111266E-01  0.51100000000E-03 0.  1.
</event>
<event>
 8    1  0.1123285E+005  0.1043930E+01  0.7957747E-01            NaN
         13   -1    0    0    0    0  0.00000000000E+00  0.00000000000E+00  0.74505805969E-08  0.10566000000E+00  0.10566000000E+00 0. -1.
     999900   -1    0    0    0    0 -0.00000000000E+00 -0.00000000000E+00 -0.74505805969E-08  0.93827000000E+00  0.93827000000E+00 0.  1.
     999902    2    1    2    0    0 -0.18603899729E-01  0.13607785134E-01  0.58689637470E-02  0.10201450965E+01  0.10198677837E+01 0.  0.
     999903    2    3    3    0    0  0.87867935238E-01 -0.66711358703E-01  0.62349036870E-01  0.12830575264E+00  0.20094385758E-01 0.  0.
         14    1    1    2    0    0  0.18603899729E-01 -0.13607785134E-01 -0.58689637470E-02  0.23784903549E-01  0.00000000000E+00 0. -1.
     999901    1    3    3    0    0 -0.10647183497E+00  0.80319143837E-01 -0.56480073123E-01  0.89183934381E+00  0.88000000000E+00 0. -1.
        -11    1    4    4    0    0  0.40405626947E-01 -0.37691847097E-01  0.21535210734E-01  0.59306967962E-01  0.51100000000E-03 0. -1.
         11    1    4    4    0    0  0.47462308291E-01 -0.29019511607E-01  0.40813826136E-01  0.68998784678E-01  0.51100000000E-03 0.  1.
</event>
<event>
 8    1  0.1123285E+005  0.1043930E+01  0.7957747E-01            NaN
         13   -1    0    0    0    0  0.00000000000E+00  0.00000000000E+00  0.74505805969E-08  0.10566000000E+00  0.10566000000E+00 0. -1.
     999900   -1    0    0    0    0 -0.00000000000E+00 -0.00000000000E+00 -0.74505805969E-08  0.93827000000E+00  0.93827000000E+00 0. -1.
     999902    2    1    2    0    0 -0.20370458490E-01 -0.83627420064E-02 -0.95704972353E-02  0.10199198886E+01  0.10196372363E+01 0.  0.
     999903    2    3    3    0    0 -0.60407727455E-01  0.11366161875E+00 -0.97765229266E-02  0.13059825387E+00  0.19805716328E-01 0.  0.
         14    1    1    2    0    0  0.20370458490E-01  0.83627420064E-02  0.95704972353E-02  0.24010111418E-01  0.00000000000E+00 0. -1.
     999901    1    3    3    0    0  0.40037268965E-01 -0.12202436076E+00  0.20602569135E-03  0.88932163471E+00  0.88000000000E+00 0. -1.
        -11    1    4    4    0    0 -0.36398704478E-01  0.74226701366E-01  0.28830032022E-02  0.82722679550E-01  0.51100000000E-03 0. -1.
         11    1    4    4    0    0 -0.24009022977E-01  0.39434917385E-01 -0.12659526129E-01  0.47875574318E-01  0.51100000000E-03 0.  1.
</event>
<event>
 8    1  0.1123285E+005  0.1043930E+01  0.7957747E-01            NaN
         13   -1    0    0    0    0  0.00000000000E+00  0.00000000000E+00  0.74505805969E-08  0.10566000000E+00  0.10566000000E+00 0. -1.
     999900   -1    0    0    0    0 -0.00000000000E+00 -0.00000000000E+00 -0.74505805969E-08  0.93827000000E+00  0.93827000000E+00 0.  1.
     999902    2    1    2    0    0 -0.23547256581E-02  0.23317890827E-01 -0.10697117289E-02  0.10204691166E+01  0.10201993947E+01 0.  0.
     999903    2    3    3    0    0 -0.36989667955E-01  0.14037878221E-01 -0.12347965914E+00  0.13127291044E+00  0.20495200318E-01 0.  0.
         14    1    1    2    0    0  0.23547256581E-02 -0.23317890827E-01  0.10697117289E-02  0.23460883374E-01  0.00000000000E+00 0. -1.
     999901    1    3    3    0    0  0.34634942296E-01  0.92800126057E-02  0.12240994741E+00  0.88919620618E+00  0.88000000000E+00 0. -1.
        -11    1    4    4    0    0 -0.30106892655E-01  0.77112814587E-02 -0.65013248184E-01  0.72061587600E-01  0.51100000000E-03 0.  1.
         11    1    4    4    0    0 -0.68827752999E-02  0.63265967622E-02 -0.58466410952E-01  0.59211322845E-01  0.51100000000E-03 0. -1.
</event>
<event>
 8    1  0.1123285E+005  0.1043930E+01  0.7957747E-01            NaN
         13   -1    0    0    0    0  0.00000000000E+00  0.00000000000E+00  0.74505805969E-08  0.10566000000E+00  0.10566000000E+00 0.  1.
     999900   -1    0    0    0    0 -0.00000000000E+00 -0.00000000000E+00 -0.74505805969E-08  0.93827000000E+00  0.93827000000E+00 0. -1.
     999902    2    1    2    0    0  0.19723385657E-01 -0.10820942983E-01  0.84975050900E-02  0.10198818745E+01  0.10195983158E+01 0.  0.
     999903    2    3    3    0    0  0.38831530114E-01 -0.48141803163E-01 -0.11315834559E+00  0.13052361494E+00  0.20151474833E-01 0.  0.
         14    1    1    2    0    0 -0.19723385657E-01  0.10820942983E-01 -0.84975050900E-02  0.24048125532E-01  0.00000000000E+00 0. -1.
     999901    1    3    3    0    0 -0.19108144457E-01  0.37320860180E-01  0.12165585068E+00  0.88935825953E+00  0.88000000000E+00 0.  1.
        -11    1    4    4    0    0  0.15736905813E-01 -0.35226008536E-01 -0.66967563530E-01  0.77288016976E-01  0.51100000000E-03 0. -1.
         11    1    4    4    0    0  0.23094624300E-01 -0.12915794628E-01 -0.46190782058E-01  0.53235597964E-01  0.51100000000E-03 0.  1.
</event>
<event>
 8    1  0.1123285E+005  0.1043930E+01  0.7957747E-01            NaN
         13   -1    0    0    0    0  0.00000000000E+00  0.00000000000E+00  0.74505805969E-08  0.10566000000E+00  0.10566000000E+00 0. -1.
     999900   -1    0    0    0    0 -0.00000000000E+00 -0.00000000000E+00 -0.74505805969E-08  0.93827000000E+00  0.93827000000E+00 0.  1.
     999902    2    1    2    0    0  0.24323803964E-01  0.21037292468E-02 -0.53100991033E-02  0.10189445989E+01  0.10186382210E+01 0.  0.
     999903    2    3    3    0    0  0.87687169380E-01  0.60143166120E-01  0.74545015510E-01  0.13116065466E+00  0.18436862213E-01 0.  0.
         14    1    1    2    0    0 -0.24323803964E-01 -0.21037292468E-02  0.53100991033E-02  0.24985401107E-01  0.00000000000E+00 0. -1.
     999901    1    3    3    0    0 -0.63363365416E-01 -0.58039436873E-01 -0.79855114614E-01  0.88778394423E+00  0.88000000000E+00 0.  1.
        -11    1    4    4    0    0  0.39200311201E-01  0.37792936774E-01  0.40014367577E-01  0.67575004268E-01  0.51100000000E-03 0. -1.
         11    1    4    4    0    0  0.48486858179E-01  0.22350229346E-01  0.34530647933E-01  0.63585650390E-01  0.51100000000E-03 0.  1.
</event>
<event>
 8    1  0.1123285E+005  0.1043930E+01  0.7957747E-01            NaN
         13   -1    0    0    0    0  0.00000000000E+00  0.00000000000E+00  0.74505805969E-08  0.10566000000E+00  0.10566000000E+00 0.  1.
     999900   -1    0    0    0    0 -0.00000000000E+00 -0.00000000000E+00 -0.74505805969E-08  0.93827000000E+00  0.93827000000E+00 0. -1.
     999902    2    1    2    0    0 -0.21190441937E-01 -0.11765596604E-01  0.15783508019E-01  0.10150062517E+01  0.10145940605E+01 0.  0.
     999903    2    3    3    0    0 -0.11365614101E+00 -0.30457569063E-01  0.48846105243E-01  0.12934693190E+00  0.22345131264E-01 0.  0.
         14    1    1    2    0    0  0.21190441937E-01  0.11765596604E-01 -0.15783508019E-01  0.28923748345E-01  0.00000000000E+00 0. -1.
     999901    1    3    3    0    0  0.92465699072E-01  0.18691972458E-01 -0.33062597223E-01  0.88565931976E+00  0.88000000000E+00 0. -1.
        -11    1    4    4    0    0 -0.72825897187E-01 -0.18980683000E-01  0.19426862002E-01  0.77727355008E-01  0.51100000000E-03 0. -1.
         11    1    4    4    0    0 -0.40830243822E-01 -0.11476886063E-01  0.29419243241E-01  0.51619576889E-01  0.51100000000E-03 0.  1.
</event>
<event>
 8    1  0.1123285E+005  0.1043930E+01  0.7957747E-01            NaN
         13   -1    0    0    0    0  0.00000000000E+00  0.00000000000E+00  0.74505805969E-08  0.10566000000E+00  0.10566000000E+00 0.  1.
     999900   -1    0    0    0    0 -0.00000000000E+00 -0.00000000000E+00 -0.74505805969E-08  0.93827000000E+00  0.93827000000E+00 0. -1.
     999902    2    1    2    0    0 -0.15318707152E-01 -0.14352141913E-01  0.11905001572E-01  0.10197975358E+01  0.10195119608E+01 0.  0.
     999903    2    3    3    0    0 -0.10009131106E+00 -0.74007045062E-01 -0.40413286837E-01  0.13217018992E+00  0.18450259628E-01 0.  0.
         14    1    1    2    0    0  0.15318707152E-01  0.14352141913E-01 -0.11905001572E-01  0.24132464208E-01  0.00000000000E+00 0. -1.
     999901    1    3    3    0    0  0.84772603912E-01  0.59654903149E-01  0.52318288409E-01  0.88762734588E+00  0.88000000000E+00 0.  1.
        -11    1    4    4    0    0 -0.17232522690E-01 -0.13734704486E-01 -0.14814822228E-01  0.26558276002E-01  0.51100000000E-03 0.  1.
         11    1    4    4    0    0 -0.82858788374E-01 -0.60272340576E-01 -0.25598464610E-01  0.10561191391E+00  0.51100000000E-03 0. -1.
</event>
<event>
 8    1  0.1207980E+005  0.1043930E+01  0.7957747E-01            NaN
         13   -1    0    0    0    0  0.00000000000E+00  0.00000000000E+00  0.74505805969E-08  0.10566000000E+00  0.10566000000E+00 0. -1.
     999900   -1    0    0    0    0 -0.00000000000E+00 -0.00000000000E+00 -0.74505805969E-08  0.93827000000E+00  0.93827000000E+00 0.  1.
     999902    2    1    2    0    0 -0.79505086153E-02  0.89753866728E-03  0.20454349858E-01  0.10219664713E+01  0.10217304302E+01 0.  0.
     999903    2    3    3    0    0  0.79546114440E-01 -0.10222844624E+00 -0.39678513087E-02  0.13129982679E+00  0.21110687559E-01 0.  0.
         14    1    1    2    0    0  0.79505086153E-02 -0.89753866728E-03 -0.20454349858E-01  0.21963528656E-01  0.00000000000E+00 0.  1.
     999901    1    3    3    0    0 -0.87496623055E-01  0.10312598490E+00  0.24422201167E-01  0.89066664455E+00  0.88000000000E+00 0. -1.
        -11    1    4    4    0    0  0.29432510989E-01 -0.52596128839E-01  0.34812133335E-02  0.60373880439E-01  0.51100000000E-03 0. -1.
         11    1    4    4    0    0  0.50113603451E-01 -0.49632317397E-01 -0.74490646422E-02  0.70925946353E-01  0.51100000000E-03 0.  1.
</event>
<event>
 8    1  0.1123285E+005  0.1043930E+01  0.7957747E-01            NaN
         13   -1    0    0    0    0  0.00000000000E+00  0.00000000000E+00  0.74505805969E-08  0.10566000000E+00  0.10566000000E+00 0.  1.
     999900   -1    0    0    0    0 -0.00000000000E+00 -0.00000000000E+00 -0.74505805969E-08  0.93827000000E+00  0.93827000000E+00 0. -1.
     999902    2    1    2    0    0 -0.21187999527E-01  0.29222373825E-02 -0.67772148949E-02  0.10214933907E+01  0.10212469563E+01 0.  0.
     999903    2    3    3    0    0  0.50329774499E-01 -0.33388405755E-01 -0.11449101813E+00  0.13130491727E+00  0.22020813507E-01 0.  0.
         14    1    1    2    0    0  0.21187999527E-01 -0.29222373825E-02  0.67772148949E-02  0.22436609303E-01  0.00000000000E+00 0.  1.
     999901    1    3    3    0    0 -0.71517774027E-01  0.36310643137E-01  0.10771380324E+00  0.89018847342E+00  0.88000000000E+00 0.  1.
        -11    1    4    4    0    0  0.20010877582E-01 -0.10845492930E-01 -0.66092631261E-01  0.69903912383E-01  0.51100000000E-03 0. -1.
         11    1    4    4    0    0  0.30318896917E-01 -0.22542912825E-01 -0.48398386871E-01  0.61401004891E-01  0.51100000000E-03 0.  1.
</event>
<event>
 7    1  0.1123285E+005  0.1043930E+01  0.7957747E-01            NaN
         13   -1    0    0    0    0  0.00000000000E+00  0.00000000000E+00  0.74505805969E-08  0.10566000000E+00  0.10566000000E+00 0. -1.
     999900   -1    0    0    0    0 -0.00000000000E+00 -0.00000000000E+00 -0.74505805969E-08  0.93827000000E+00  0.93827000000E+00 0. -1.
     999903    2    1    2    0    0 -0.11800224738E-01  0.12162241416E-01  0.77039976082E-01  0.81259722906E-01  0.19514590235E-01 0.  0.
         14    1    1    2    0    0  0.61142390354E-01  0.45652006447E-01 -0.57473731045E-02  0.76521434177E-01  0.00000000000E+00 0. -1.
     999901    1    1    2    0    0 -0.49342165617E-01 -0.57814247863E-01 -0.71292602977E-01  0.88614884292E+00  0.88000000000E+00 0. -1.
        -11    1    3    3    0    0 -0.36303136330E-02 -0.31202847075E-02  0.42120414985E-02  0.63966997988E-02  0.51100000000E-03 0. -1.
         11    1    3    3    0    0 -0.81699111049E-02  0.15282526124E-01  0.72827934583E-01  0.74863023108E-01  0.51100000000E-03 0.  1.
</event>
<event>
 8    1  0.1123285E+005  0.1043930E+01  0.7957747E-01            NaN
         13   -1    0    0    0    0  0.00000000000E+00  0.00000000000E+00  0.74505805969E-08  0.10566000000E+00  0.10566000000E+00 0.  1.
     999900   -1    0    0    0    0 -0.00000000000E+00 -0.00000000000E+00 -0.74505805969E-08  0.93827000000E+00  0.93827000000E+00 0.  1.
     999902    2    1    2    0    0  0.26115004322E-02  0.95100402282E-02 -0.21150122526E-01  0.10205935803E+01  0.10203267456E+01 0.  0.
     999903    2    3    3    0    0 -0.19874523876E-01  0.11957732817E+00 -0.50868664279E-01  0.13295422740E+00  0.19886464427E-01 0.  0.
         14    1    1    2    0    0 -0.26115004322E-02 -0.95100402282E-02  0.21150122526E-01  0.23336419659E-01  0.00000000000E+00 0.  1.
     999901    1    3    3    0    0  0.22486024308E-01 -0.11006728794E+00  0.29718541754E-01  0.88763935294E+00  0.88000000000E+00 0. -1.
        -11    1    4    4    0    0 -0.55679559036E-02  0.35980686284E-01 -0.56781190038E-02  0.36852599295E-01  0.51100000000E-03 0.  1.
         11    1    4    4    0    0 -0.14306567972E-01  0.83596641883E-01 -0.45190545276E-01  0.96101628106E-01  0.51100000000E-03 0. -1.
</event>
<event>
 8    1  0.1123285E+005  0.1043930E+01  0.7957747E-01            NaN
         13   -1    0    0    0    0  0.00000000000E+00  0.00000000000E+00  0.74505805969E-08  0.10566000000E+00  0.10566000000E+00 0. -1.
     999900   -1    0    0    0    0 -0.00000000000E+00 -0.00000000000E+00 -0.74505805969E-08  0.93827000000E+00  0.93827000000E+00 0.  1.
     999902    2    1    2    0    0  0.76011758210E-03 -0.91573574788E-02  0.21929072953E-01  0.10201535576E+01  0.10198764444E+01 0.  0.
     999903    2    3    3    0    0  0.76651797849E-01  0.94367902654E-01  0.43190904489E-01  0.13058675731E+00  0.20165509895E-01 0.  0.
         14    1    1    2    0    0 -0.76011758210E-03  0.91573574788E-02 -0.21929072953E-01  0.23776442444E-01  0.00000000000E+00 0.  1.
     999901    1    3    3    0    0 -0.75891680267E-01 -0.10352526013E+00 -0.21261831536E-01  0.88956680025E+00  0.88000000000E+00 0.  1.
        -11    1    4    4    0    0  0.26094198545E-01  0.20369005994E-01  0.16996374701E-01  0.37214801852E-01  0.51100000000E-03 0. -1.
         11    1    4    4    0    0  0.50557599303E-01  0.73998896660E-01  0.26194529789E-01  0.93371955458E-01  0.51100000000E-03 0.  1.
</event>
<event>
 8    1  0.1123285E+005  0.1043930E+01  0.7957747E-01            NaN
         13   -1    0    0    0    0  0.00000000000E+00  0.00000000000E+00  0.74505805969E-08  0.10566000000E+00  0.10566000000E+00 0.  1.
     999900   -1    0    0    0    0 -0.00000000000E+00 -0.00000000000E+00 -0.74505805969E-08  0.93827000000E+00  0.93827000000E+00 0.  1.
     999902    2    1    2    0    0 -0.22888592610E-01 -0.10350074779E-01  0.22583117133E-02  0.10187087452E+01  0.10183964827E+01 0.  0.
     999903    2    3    3    0    0  0.10037911312E+00 -0.57300465973E-01 -0.49823123601E-01  0.12735486355E+00  0.19432135048E-01 0.  0.
         14    1    1    2    0    0  0.22888592610E-01  0.10350074779E-01 -0.22583117133E-02  0.25221254755E-01  0.00000000000E+00 0. -1.
     999901    1    3    3    0    0 -0.12326770573E+00  0.46950391194E-01  0.52081435315E-01  0.89135388170E+00  0.88000000000E+00 0.  1.
        -11    1    4    4    0    0  0.19290213577E-01 -0.59212853424E-02 -0.25385808869E-02  0.20344027966E-01  0.51100000000E-03 0. -1.
         11    1    4    4    0    0  0.81088899544E-01 -0.51379180630E-01 -0.47284542715E-01  0.10701083558E+00  0.51100000000E-03 0.  1.
</event>
<event>
 8    1  0.1123285E+005  0.1043930E+01  0.7957747E-01            NaN
         13   -1    0    0    0    0  0.00000000000E+00  0.00000000000E+00  0.74505805969E-08  0.10566000000E+00  0.10566000000E+00 0.  1.
     999900   -1    0    0    0    0 -0.00000000000E+00 -0.00000000000E+00 -0.74505805969E-08  0.93827000000E+00  0.93827000000E+00 0. -1.
     999902    2    1    2    0    0  0.65590839159E-02 -0.21597906165E-01  0.54740357366E-02  0.10207038036E+01  0.10204395124E+01 0.  0.
     999903    2    3    3    0    0 -0.42787992461E-01 -0.90120210775E-01 -0.84227449629E-01  0.13212246423E+00  0.20239011701E-01 0.  0.
         14    1    1    2    0    0 -0.65590839159E-02  0.21597906165E-01 -0.54740357366E-02  0.23226196412E-01  0.00000000000E+00 0.  1.
     999901    1    3    3    0    0  0.49347076376E-01  0.68522304610E-01  0.89701485366E-01  0.88858133936E+00  0.88000000000E+00 0.  1.
        -11    1    4    4    0    0 -0.25623265462E-01 -0.47573576505E-01 -0.32844423048E-01  0.63236177626E-01  0.51100000000E-03 0.  1.
         11    1    4    4    0    0 -0.17164726999E-01 -0.42546634270E-01 -0.51383026581E-01  0.68886286606E-01  0.51100000000E-03 0. -1.
</event>
<event>
 8    1  0.1123285E+005  0.1043930E+01  0.7957747E-01            NaN
         13   -1    0    0    0    0  0.00000000000E+00  0.00000000000E+00  0.74505805969E-08  0.10566000000E+00  0.10566000000E+00 0.  1.
     999900   -1    0    0    0    0 -0.00000000000E+00 -0.00000000000E+00 -0.74505805969E-08  0.93827000000E+00  0.93827000000E+00 0. -1.
     999902    2    1    2    0    0 -0.10112745870E-02 -0.14848926869E-01  0.18145911647E-01  0.10204611395E+01  0.10201912319E+01 0.  0.
     999903    2    3    3    0    0 -0.28659451632E-01  0.53148285658E-01  0.11578575015E+00  0.13202342039E+00  0.19435512791E-01 0.  0.
         14    1    1    2    0    0  0.10112745870E-02  0.14848926869E-01 -0.18145911647E-01  0.23468860538E-01  0.00000000000E+00 0. -1.
     999901    1    3    3    0    0  0.27648177045E-01 -0.67997212527E-01 -0.97639838504E-01  0.88843771907E+00  0.88000000000E+00 0. -1.
        -11    1    4    4    0    0 -0.16788890503E-01  0.32254758402E-01  0.88388341707E-01  0.95577174862E-01  0.51100000000E-03 0. -1.
         11    1    4    4    0    0 -0.11870561129E-01  0.20893527256E-01  0.27397408445E-01  0.36446245530E-01  0.51100000000E-03 0.  1.
</event>
<event>
 8    1  0.1123285E+005  0.1043930E+01  0.7957747E-01            NaN
         13   -1    0    0    0    0  0.00000000000E+00  0.00000000000E+00  0.74505805969E-08  0.10566000000E+00  0.10566000000E+00 0. -1.
     999900   -1    0    0    0    0 -0.00000000000E+00 -0.00000000000E+00 -0.74505805969E-08  0.93827000000E+00  0.93827000000E+00 0. -1.
     999902    2    1    2    0    0  0.11264371581E-01  0.92120186968E-02 -0.18839244722E-01  0.10201252841E+01  0.10198475037E+01 0.  0.
     999903    2    3    3    0    0 -0.37946601288E-01 -0.42019396560E-01  0.11257300218E+00  0.12753604132E+00  0.19677062264E-01 0.  0.
         14    1    1    2    0    0 -0.11264371581E-01 -0.92120186968E-02  0.18839244722E-01  0.23804715863E-01  0.00000000000E+00 0. -1.
     999901    1    3    3    0    0  0.49210972869E-01  0.51231415257E-01 -0.13141224690E+00  0.89258924282E+00  0.88000000000E+00 0. -1.
        -11    1    4    4    0    0 -0.30187759508E-02 -0.10520170966E-01  0.36378337094E-01  0.37992519476E-01  0.51100000000E-03 0. -1.
         11    1    4    4    0    0 -0.34927825337E-01 -0.31499225594E-01  0.76194665084E-01  0.89543521843E-01  0.51100000000E-03 0.  1.
</event>
<event>
 8    1  0.1123285E+005  0.1043930E+01  0.7957747E-01            NaN
         13   -1    0    0    0    0  0.00000000000E+00  0.00000000000E+00  0.74505805969E-08  0.10566000000E+00  0.10566000000E+00 0. -1.
     999900   -1    0    0    0    0 -0.00000000000E+00 -0.00000000000E+00 -0.74505805969E-08  0.93827000000E+00  0.93827000000E+00 0. -1.
     999902    2    1    2    0    0 -0.94155832742E-02  0.21162585559E-01  0.54541646013E-02  0.10201338628E+01  0.10198562849E+01 0.  0.
     999903    2    3    3    0    0  0.24275438910E-01  0.74171129652E-01 -0.10355111318E+00  0.13118665325E+00  0.19911090895E-01 0.  0.
         14    1    1    2    0    0  0.94155832742E-02 -0.21162585559E-01 -0.54541646013E-02  0.23796137237E-01  0.00000000000E+00 0. -1.
     999901    1    3    3    0    0 -0.33691022185E-01 -0.53008544094E-01  0.10900527778E+00  0.88894720952E+00  0.88000000000E+00 0.  1.
        -11    1    4    4    0    0  0.15185747266E-01  0.31489287503E-01 -0.32114877604E-01  0.47474294434E-01  0.51100000000E-03 0. -1.
         11    1    4    4    0    0  0.90896916447E-02  0.42681842149E-01 -0.71436235578E-01  0.83712358812E-01  0.51100000000E-03 0.  1.
</event>
<event>
 8    1  0.1123285E+005  0.1043930E+01  0.7957747E-01            NaN
         13   -1    0    0    0    0  0.00000000000E+00  0.00000000000E+00  0.74505805969E-08  0.10566000000E+00  0.10566000000E+00 0.  1.
     999900   -1    0    0    0    0 -0.00000000000E+00 -0.00000000000E+00 -0.74505805969E-08  0.93827000000E+00  0.93827000000E+00 0. -1.
     999902    2    1    2    0    0 -0.52616283825E-02 -0.20617675645E-03  0.21186448951E-01  0.10220989931E+01  0.10218658223E+01 0.  0.
     999903    2    3    3    0    0 -0.98800126385E-01  0.62731693324E-01  0.61364252792E-01  0.13399715098E+00  0.22202131177E-01 0.  0.
         14    1    1    2    0    0  0.52616283825E-02  0.20617675645E-03 -0.21186448951E-01  0.21831006876E-01  0.00000000000E+00 0. -1.
     999901    1    3    3    0    0  0.93538498003E-01 -0.62937870081E-01 -0.40177803842E-01  0.88810184214E+00  0.88000000000E+00 0. -1.
        -11    1    4    4    0    0 -0.82694413546E-01  0.53666591919E-01  0.41801042745E-01  0.10707967788E+00  0.51100000000E-03 0. -1.
         11    1    4    4    0    0 -0.16105712839E-01  0.90651014050E-02  0.19563210048E-01  0.26917473097E-01  0.51100000000E-03 0.  1.
</event>
<event>
 8    1  0.1123285E+005  0.1043930E+01  0.7957747E-01            NaN
         13   -1    0    0    0    0  0.00000000000E+00  0.00000000000E+00  0.74505805969E-08  0.10566000000E+00  0.10566000000E+00 0. -1.
     999900   -1    0    0    0    0 -0.00000000000E+00 -0.00000000000E+00 -0.74505805969E-08  0.93827000000E+00  0.93827000000E+00 0. -1.
     999902    2    1    2    0    0  0.24990466151E-02  0.89182961870E-02  0.21764415639E-01  0.10202768601E+01  0.10200026471E+01 0.  0.
     999903    2    3    3    0    0 -0.11261814215E+00 -0.30088905190E-01  0.56898488184E-01  0.13122796829E+00  0.19878469402E-01 0.  0.
         14    1    1    2    0    0 -0.24990466151E-02 -0.89182961870E-02 -0.21764415639E-01  0.23653139939E-01  0.00000000000E+00 0.  1.
     999901    1    3    3    0    0  0.11511718877E+00  0.39007201377E-01 -0.35134072545E-01  0.88904889177E+00  0.88000000000E+00 0. -1.
        -11    1    4    4    0    0 -0.60473536377E-01 -0.26354568854E-01  0.31382364370E-01  0.73052897382E-01  0.51100000000E-03 0.  1.
         11    1    4    4    0    0 -0.52144605776E-01 -0.37343363358E-02  0.25516123815E-01  0.58175070906E-01  0.51100000000E-03 0. -1.
</event>
<event>
 8    1  0.1123285E+005  0.1043930E+01  0.7957747E-01            NaN
         13   -1    0    0    0    0  0.00000000000E+00  0.00000000000E+00  0.74505805969E-08  0.10566000000E+00  0.10566000000E+00 0.  1.
     999900   -1    0    0    0    0 -0.00000000000E+00 -0.00000000000E+00 -0.74505805969E-08  0.93827000000E+00  0.93827000000E+00 0.  1.
     999902    2    1    2    0    0 -0.16864011235E-01  0.12080591800E-01  0.10474969534E-01  0.10206907969E+01  0.10204262062E+01 0.  0.
     999903    2    3    3    0    0  0.40083321058E-01  0.62586797076E-01  0.10752870232E+00  0.13208891617E+00  0.19007371105E-01 0.  0.
         14    1    1    2    0    0  0.16864011235E-01 -0.12080591800E-01 -0.10474969534E-01  0.23239203083E-01  0.00000000000E+00 0.  1.
     999901    1    3    3    0    0 -0.56947332293E-01 -0.50506205277E-01 -0.97053732784E-01  0.88860188075E+00  0.88000000000E+00 0.  1.
        -11    1    4    4    0    0  0.32935591095E-01  0.42875750066E-01  0.64077297288E-01  0.83840588340E-01  0.51100000000E-03 0. -1.
         11    1    4    4    0    0  0.71477299629E-02  0.19711047010E-01  0.43451405031E-01  0.48248327826E-01  0.51100000000E-03 0.  1.
</event>
<event>
 8    1  0.1123285E+005  0.1043930E+01  0.7957747E-01            NaN
         13   -1    0    0    0    0  0.00000000000E+00  0.00000000000E+00  0.74505805969E-08  0.10566000000E+00  0.10566000000E+00 0.  1.
     999900   -1    0    0    0    0 -0.00000000000E+00 -0.00000000000E+00 -0.74505805969E-08  0.93827000000E+00  0.93827000000E+00 0.  1.
     999902    2    1    2    0    0 -0.20380018679E-01  0.65354168684E-02  0.93378222920E-02  0.10205793735E+01  0.10203122099E+01 0.  0.
     999903    2    3    3    0    0  0.32806786228E-01 -0.11613803150E+00 -0.41487096930E-01  0.12902972056E+00  0.19056809618E-01 0.  0.
         14    1    1    2    0    0  0.20380018679E-01 -0.65354168684E-02 -0.93378222920E-02  0.23350626548E-01  0.00000000000E+00 0. -1.
     999901    1    3    3    0    0 -0.53186804907E-01  0.12267344837E+00  0.50824919222E-01  0.89154965289E+00  0.88000000000E+00 0.  1.
        -11    1    4    4    0    0  0.22462545690E-01 -0.73393833841E-01 -0.35759967930E-01  0.84677371429E-01  0.51100000000E-03 0.  1.
         11    1    4    4    0    0  0.10344240537E-01 -0.42744197664E-01 -0.57271289995E-02  0.44352349135E-01  0.51100000000E-03 0. -1.
</event>
<event>
 8    1  0.1123285E+005  0.1043930E+01  0.7957747E-01            NaN
         13   -1    0    0    0    0  0.00000000000E+00  0.00000000000E+00  0.74505805969E-08  0.10566000000E+00  0.10566000000E+00 0. -1.
     999900   -1    0    0    0    0 -0.00000000000E+00 -0.00000000000E+00 -0.74505805969E-08  0.93827000000E+00  0.93827000000E+00 0. -1.
     999902    2    1    2    0    0  0.48866996087E-02  0.19906044161E-01 -0.15844134923E-01  0.10180231083E+01  0.10176934126E+01 0.  0.
     999903    2    3    3    0    0 -0.54637801070E-01  0.17553336478E-01 -0.11476513410E+00  0.13047926965E+00  0.23672660902E-01 0.  0.
         14    1    1    2    0    0 -0.48866996087E-02 -0.19906044161E-01  0.15844134923E-01  0.25906891721E-01  0.00000000000E+00 0.  1.
     999901    1    3    3    0    0  0.59524500679E-01  0.23527076832E-02  0.98920999182E-01  0.88754383863E+00  0.88000000000E+00 0. -1.
        -11    1    4    4    0    0 -0.24374180856E-01  0.93489510467E-02 -0.77468550554E-01  0.81750480268E-01  0.51100000000E-03 0.  1.
         11    1    4    4    0    0 -0.30263620214E-01  0.82043854309E-02 -0.37296583550E-01  0.48728789379E-01  0.51100000000E-03 0. -1.
</event>
<event>
 8    1  0.1123285E+005  0.1043930E+01  0.7957747E-01            NaN
         13   -1    0    0    0    0  0.00000000000E+00  0.00000000000E+00  0.74505805969E-08  0.10566000000E+00  0.10566000000E+00 0.  1.
     999900   -1    0    0    0    0 -0.00000000000E+00 -0.00000000000E+00 -0.74505805969E-08  0.93827000000E+00  0.93827000000E+00 0.  1.
     999902    2    1    2    0    0  0.72589412656E-02  0.10638758107E-01  0.19904827001E-01  0.10202218255E+01  0.10199463200E+01 0.  0.
     999903    2    3    3    0    0 -0.96571164260E-01 -0.81193019375E-01  0.20281680946E-01  0.12937172123E+00  0.20184140097E-01 0.  0.
         14    1    1    2    0    0 -0.72589412656E-02 -0.10638758107E-01 -0.19904827001E-01  0.23708174546E-01  0.00000000000E+00 0. -1.
     999901    1    3    3    0    0  0.10383010553E+00  0.91831777482E-01 -0.37685394496E-03  0.89085010422E+00  0.88000000000E+00 0. -1.
        -11    1    4    4    0    0 -0.27807782496E-01 -0.35884776757E-01  0.83361190647E-02  0.46159960705E-01  0.51100000000E-03 0.  1.
         11    1    4    4    0    0 -0.68763381764E-01 -0.45308242618E-01  0.11945561882E-01  0.83211760529E-01  0.51100000000E-03 0. -1.
</event>
<event>
 8    1  0.1123285E+005  0.1043930E+01  0.7957747E-01            NaN
         13   -1    0    0    0    0  0.00000000000E+00  0.00000000000E+00  0.74505805969E-08  0.10566000000E+00  0.10566000000E+00 0. -1.
     999900   -1    0    0    0    0 -0.00000000000E+00 -0.00000000000E+00 -0.74505805969E-08  0.93827000000E+00  0.93827000000E+00 0. -1.
     999902    2    1    2    0    0 -0.10767750856E-01  0.18590881647E-01  0.93627207981E-02  0.10204944313E+01  0.10202252979E+01 0.  0.
     999903    2    3    3    0    0 -0.10032007811E+00  0.52256902191E-01 -0.65428108276E-01  0.13215514457E+00  0.19729241913E-01 0.  0.
         14    1    1    2    0    0  0.10767750856E-01 -0.18590881647E-01 -0.93627207981E-02  0.23435568686E-01  0.00000000000E+00 0.  1.
     999901    1    3    3    0    0  0.89552327250E-01 -0.33666020544E-01  0.74790829074E-01  0.88833928674E+00  0.88000000000E+00 0.  1.
        -11    1    4    4    0    0 -0.67005321535E-01  0.36511997734E-01 -0.54311344037E-01  0.93663345577E-01  0.51100000000E-03 0. -1.
         11    1    4    4    0    0 -0.33314756570E-01  0.15744904457E-01 -0.11116764239E-01  0.38491798995E-01  0.51100000000E-03 0.  1.
</event>
<event>
 8    1  0.1123285E+005  0.1043930E+01  0.7957747E-01            NaN
         13   -1    0    0    0    0  0.00000000000E+00  0.00000000000E+00  0.74505805969E-08  0.10566000000E+00  0.10566000000E+00 0. -1.
     999900   -1    0    0    0    0 -0.00000000000E+00 -0.00000000000E+00 -0.74505805969E-08  0.93827000000E+00  0.93827000000E+00 0.  1.
     999902    2    1    2    0    0  0.15371808137E-01 -0.11012247095E-01 -0.15464319096E-01  0.10195024083E+01  0.10192097200E+01 0.  0.
     999903    2    3    3    0    0 -0.40412182341E-01  0.24306421185E-01 -0.12035166097E+00  0.13081764056E+00  0.20119298949E-01 0.  0.
         14    1    1    2    0    0 -0.15371808137E-01  0.11012247095E-01  0.15464319096E-01  0.24427591707E-01  0.00000000000E+00 0. -1.
     999901    1    3    3    0    0  0.55783990478E-01 -0.35318668281E-01  0.10488734187E+00  0.88868476774E+00  0.88000000000E+00 0. -1.
        -11    1    4    4    0    0 -0.35805723414E-01  0.27585973821E-01 -0.11134533345E+00  0.12017104553E+00  0.51100000000E-03 0. -1.
         11    1    4    4    0    0 -0.46064589269E-02 -0.32795526359E-02 -0.90063275185E-02  0.10646595029E-01  0.51100000000E-03 0.  1.
</event>
<event>
 8    1  0.1123285E+005  0.1043930E+01  0.7957747E-01            NaN
         13   -1    0    0    0    0  0.00000000000E+00  0.00000000000E+00  0.74505805969E-08  0.10566000000E+00  0.10566000000E+00 0.  1.
     999900   -1    0    0    0    0 -0.00000000000E+00 -0.00000000000E+00 -0.74505805969E-08  0.93827000000E+00  0.93827000000E+00 0. -1.
     999902    2    1    2    0    0 -0.10706466821E-01 -0.28572466297E-02 -0.15220527050E-01  0.10251029786E+01  0.10249300757E+01 0.  0.
     999903    2    3    3    0    0  0.48592412017E-01 -0.39615013266E-01  0.11539459372E+00  0.13273097088E+00  0.19262050462E-01 0.  0.
         14    1    1    2    0    0  0.10706466821E-01  0.28572466297E-02  0.15220527050E-01  0.18827021373E-01  0.00000000000E+00 0.  1.
     999901    1    3    3    0    0 -0.59298878837E-01  0.36757766636E-01 -0.13061512077E+00  0.89237200775E+00  0.88000000000E+00 0. -1.
        -11    1    4    4    0    0  0.14671179602E-01 -0.12147324478E-01  0.55045913251E-01  0.58250447977E-01  0.51100000000E-03 0. -1.
         11    1    4    4    0    0  0.33921232415E-01 -0.27467688787E-01  0.60348680473E-01  0.74480522901E-01  0.51100000000E-03 0.  1.
</event>
<event>
 8    1  0.1123285E+005  0.1043930E+01  0.7957747E-01            NaN
         13   -1    0    0    0    0  0.00000000000E+00  0.00000000000E+00  0.74505805969E-08  0.10566000000E+00  0.10566000000E+00 0. -1.
     999900   -1    0    0    0    0 -0.00000000000E+00 -0.00000000000E+00 -0.74505805969E-08  0.93827000000E+00  0.93827000000E+00 0.  1.
     999902    2    1    2    0    0 -0.15887199799E-01 -0.16711260073E-01 -0.25429777725E-02  0.10207322401E+01  0.10204686031E+01 0.  0.
     999903    2    3    3    0    0  0.11023945882E-01 -0.31026936339E-01 -0.12588358456E+00  0.13160792162E+00  0.19742593784E-01 0.  0.
         14    1    1    2    0    0  0.15887199799E-01  0.16711260073E-01  0.25429777725E-02  0.23197759948E-01  0.00000000000E+00 0. -1.
     999901    1    3    3    0    0 -0.26911145681E-01  0.14315676265E-01  0.12334060679E+00  0.88912431843E+00  0.88000000000E+00 0. -1.
        -11    1    4    4    0    0  0.93429001200E-02 -0.21454947793E-01 -0.51244542285E-01  0.56337099699E-01  0.51100000000E-03 0.  1.
         11    1    4    4    0    0  0.16810457620E-02 -0.95719885460E-02 -0.74639042275E-01  0.75270821918E-01  0.51100000000E-03 0. -1.
</event>
<event>
 8    1  0.1123285E+005  0.1043930E+01  0.7957747E-01            NaN
         13   -1    0    0    0    0  0.00000000000E+00  0.00000000000E+00  0.74505805969E-08  0.10566000000E+00  0.10566000000E+00 0. -1.
     999900   -1    0    0    0    0 -0.00000000000E+00 -0.00000000000E+00 -0.74505805969E-08  0.93827000000E+00  0.93827000000E+00 0. -1.
     999902    2    1    2    0    0 -0.11843194221E-01 -0.19192354837E-01 -0.36057310810E-02  0.10210912384E+01  0.10208357890E+01 0.  0.
     999903    2    3    3    0    0  0.11797142720E+00 -0.51229275036E-01 -0.13789221475E-01  0.13093287967E+00  0.20287436831E-01 0.  0.
         14    1    1    2    0    0  0.11843194221E-01  0.19192354837E-01  0.36057310810E-02  0.22838761573E-01  0.00000000000E+00 0.  1.
     999901    1    3    3    0    0 -0.12981462142E+00  0.32036920198E-01  0.10183490394E-01  0.89015835876E+00  0.88000000000E+00 0.  1.
        -11    1    4    4    0    0  0.60229901092E-01 -0.37122475880E-01 -0.82950567206E-02  0.71237548301E-01  0.51100000000E-03 0.  1.
         11    1    4    4    0    0  0.57741526108E-01 -0.14106799156E-01 -0.54941647545E-02  0.59695331367E-01  0.51100000000E-03 0. -1.
</event>
<event>
 8    1  0.1123285E+005  0.1043930E+01  0.7957747E-01            NaN
         13   -1    0    0    0    0  0.00000000000E+00  0.00000000000E+00  0.74505805969E-08  0.10566000000E+00  0.10566000000E+00 0. -1.
     999900   -1    0    0    0    0 -0.00000000000E+00 -0.00000000000E+00 -0.74505805969E-08  0.93827000000E+00  0.93827000000E+00 0. -1.
     999902    2    1    2    0    0 -0.10840900443E-01  0.49998193315E-02 -0.18881999648E-01  0.10215905008E+01  0.10213462185E+01 0.  0.
     999903    2    3    3    0    0  0.42549815139E-01  0.82131550767E-01 -0.94019955201E-01  0.13342070569E+00  0.20130929705E-01 0.  0.
         14    1    1    2    0    0  0.10840900443E-01 -0.49998193315E-02  0.18881999648E-01  0.22339499244E-01  0.00000000000E+00 0. -1.
     999901    1    3    3    0    0 -0.53390715582E-01 -0.77131731435E-01  0.75137955553E-01  0.88816979507E+00  0.88000000000E+00 0.  1.
        -11    1    4    4    0    0  0.15693441869E-01  0.51719873171E-01 -0.55562213006E-01  0.77515482541E-01  0.51100000000E-03 0. -1.
         11    1    4    4    0    0  0.26856373270E-01  0.30411677596E-01 -0.38457742196E-01  0.55905223148E-01  0.51100000000E-03 0.  1.
</event>
<event>
 7    1  0.1123285E+005  0.1043930E+01  0.7957747E-01            NaN
         13   -1    0    0    0    0  0.00000000000E+00  0.00000000000E+00  0.74505805969E-08  0.10566000000E+00  0.10566000000E+00 0. -1.
     999900   -1    0    0    0    0 -0.00000000000E+00 -0.00000000000E+00 -0.74505805969E-08  0.93827000000E+00  0.93827000000E+00 0. -1.
     999903    2    1    2    0    0 -0.60518691636E-01 -0.41398111891E-01  0.40133122338E-01  0.86927917972E-01  0.23863773987E-01 0.  0.
         14    1    1    2    0    0 -0.18418079450E-01  0.36330012705E-02  0.63865963925E-01  0.66567902903E-01  0.00000000000E+00 0. -1.
     999901    1    1    2    0    0  0.78936771086E-01  0.37765110621E-01 -0.10399908626E+00  0.89043417912E+00  0.88000000000E+00 0.  1.
        -11    1    3    3    0    0 -0.33152729780E-01 -0.35294842801E-01  0.19937893095E-01  0.52369935290E-01  0.51100000000E-03 0. -1.
         11    1    3    3    0    0 -0.27365961856E-01 -0.61032690903E-02  0.20195229243E-01  0.34557982682E-01  0.51100000000E-03 0.  1.
</event>
<event>
 8    1  0.1123285E+005  0.1043930E+01  0.7957747E-01            NaN
         13   -1    0    0    0    0  0.00000000000E+00  0.00000000000E+00  0.74505805969E-08  0.10566000000E+00  0.10566000000E+00 0.  1.
     999900   -1    0    0    0    0 -0.00000000000E+00 -0.00000000000E+00 -0.74505805969E-08  0.93827000000E+00  0.93827000000E+00 0. -1.
     999902    2    1    2    0    0 -0.95933356047E-03  0.12812017467E-02  0.28521104739E-01  0.10153640200E+01  0.10149621066E+01 0.  0.
     999903    2    3    3    0    0 -0.94000440550E-01 -0.22381616626E-01 -0.75612858206E-01  0.12403890601E+00  0.18202370483E-01 0.  0.
         14    1    1    2    0    0  0.95933356047E-03 -0.12812017467E-02 -0.28521104739E-01  0.28565980017E-01  0.00000000000E+00 0. -1.
     999901    1    3    3    0    0  0.93041106989E-01  0.23662818373E-01  0.10413396295E+00  0.89132511397E+00  0.88000000000E+00 0.  1.
        -11    1    4    4    0    0 -0.88778011072E-01 -0.19997648028E-01 -0.75546499421E-01  0.11827500105E+00  0.51100000000E-03 0. -1.
         11    1    4    4    0    0 -0.52224294776E-02 -0.23839685985E-02 -0.66358785295E-04  0.57639049624E-02  0.51100000000E-03 0.  1.
</event>
<event>
 8    1  0.1123285E+005  0.1043930E+01  0.7957747E-01            NaN
         13   -1    0    0    0    0  0.00000000000E+00  0.00000000000E+00  0.74505805969E-08  0.10566000000E+00  0.10566000000E+00 0. -1.
     999900   -1    0    0    0    0 -0.00000000000E+00 -0.00000000000E+00 -0.74505805969E-08  0.93827000000E+00  0.93827000000E+00 0.  1.
     999902    2    1    2    0    0  0.14212098290E-01  0.82385411123E-02  0.16037662174E-01  0.10209721276E+01  0.10207139763E+01 0.  0.
     999903    2    3    3    0    0  0.78483323385E-01  0.60913819610E-02 -0.10243369735E+00  0.13070763673E+00  0.19876794593E-01 0.  0.
         14    1    1    2    0    0 -0.14212098290E-01 -0.82385411123E-02 -0.16037662174E-01  0.22957872408E-01  0.00000000000E+00 0.  1.
     999901    1    3    3    0    0 -0.64271225095E-01  0.21471591513E-02  0.11847135952E+00  0.89026449086E+00  0.88000000000E+00 0. -1.
        -11    1    4    4    0    0  0.47026126238E-01  0.12782210166E-01 -0.67035757850E-01  0.82878799444E-01  0.51100000000E-03 0.  1.
         11    1    4    4    0    0  0.31457197147E-01 -0.66908282053E-02 -0.35397939496E-01  0.47828837284E-01  0.51100000000E-03 0. -1.
</event>
<event>
 8    1  0.1123285E+005  0.1043930E+01  0.7957747E-01            NaN
         13   -1    0    0    0    0  0.00000000000E+00  0.00000000000E+00  0.74505805969E-08  0.10566000000E+00  0.10566000000E+00 0.  1.
     999900   -1    0    0    0    0 -0.00000000000E+00 -0.00000000000E+00 -0.74505805969E-08  0.93827000000E+00  0.93827000000E+00 0. -1.
     999902    2    1    2    0    0 -0.12045224438E-01 -0.11052997281E-01  0.16771379322E-01  0.10205091686E+01  0.10202403775E+01 0.  0.
     999903    2    3    3    0    0 -0.13670493402E-01  0.72843313748E-02  0.13104839649E+00  0.13292923652E+00  0.16017360148E-01 0.  0.
         14    1    1    2    0    0  0.12045224438E-01  0.11052997281E-01 -0.16771379322E-01  0.23420831433E-01  0.00000000000E+00 0. -1.
     999901    1    3    3    0    0  0.16252689637E-02 -0.18337328656E-01 -0.11427701717E+00  0.88757993205E+00  0.88000000000E+00 0. -1.
        -11    1    4    4    0    0 -0.17181971853E-01  0.66863596960E-02  0.10146218951E+00  0.10312499495E+00  0.51100000000E-03 0.  1.
         11    1    4    4    0    0  0.35114784513E-02  0.59797167878E-03  0.29586206980E-01  0.29804241569E-01  0.51100000000E-03 0. -1.
</event>
<event>
 8    1  0.1123285E+005  0.1043930E+01  0.7957747E-01            NaN
         13   -1    0    0    0    0  0.00000000000E+00  0.00000000000E+00  0.74505805969E-08  0.10566000000E+00  0.10566000000E+00 0. -1.
     999900   -1    0    0    0    0 -0.00000000000E+00 -0.00000000000E+00 -0.74505805969E-08  0.93827000000E+00  0.93827000000E+00 0. -1.
     999902    2    1    2    0    0 -0.10088034957E-02  0.82428897797E-02  0.22077956217E-01  0.10203418872E+01  0.10200691975E+01 0.  0.
     999903    2    3    3    0    0 -0.92550267653E-02 -0.19923625481E-01  0.12993963051E+00  0.13327058588E+00  0.19852836374E-01 0.  0.
         14    1    1    2    0    0  0.10088034957E-02 -0.82428897797E-02 -0.22077956217E-01  0.23588112835E-01  0.00000000000E+00 0.  1.
     999901    1    3    3    0    0  0.82462232695E-02  0.28166515261E-01 -0.10786167429E+00  0.88707130128E+00  0.88000000000E+00 0. -1.
        -11    1    4    4    0    0 -0.17187115895E-02 -0.11086769433E-01  0.21943293957E-01  0.24650348815E-01  0.51100000000E-03 0. -1.
         11    1    4    4    0    0 -0.75363151758E-02 -0.88368560479E-02  0.10799633655E+00  0.10862023707E+00  0.51100000000E-03 0.  1.
</event>
<event>
 8    1  0.1123285E+005  0.1043930E+01  0.7957747E-01            NaN
         13   -1    0    0    0    0  0.00000000000E+00  0.00000000000E+00  0.74505805969E-08  0.10566000000E+00  0.10566000000E+00 0.  1.
     999900   -1    0    0    0    0 -0.00000000000E+00 -0.00000000000E+00 -0.74505805969E-08  0.93827000000E+00  0.93827000000E+00 0.  1.
     999902    2    1    2    0    0 -0.20289113246E-01 -0.79512245191E-02 -0.10758717563E-01  0.10196273234E+01  0.10193376568E+01 0.  0.
     999903    2    3    3    0    0  0.53188658259E-01  0.89253138770E-02  0.11375701321E+00  0.12766994341E+00  0.21219373252E-01 0.  0.
         14    1    1    2    0    0  0.20289113246E-01  0.79512245191E-02  0.10758717563E-01  0.24302676627E-01  0.00000000000E+00 0. -1.
     999901    1    3    3    0    0 -0.73477771505E-01 -0.16876538396E-01 -0.12451573077E+00  0.89195737996E+00  0.88000000000E+00 0.  1.
        -11    1    4    4    0    0  0.24221024743E-01  0.63612384706E-02  0.30430939516E-01  0.39413533149E-01  0.51100000000E-03 0. -1.
         11    1    4    4    0    0  0.28967633516E-01  0.25640754064E-02  0.83326073696E-01  0.88256410265E-01  0.51100000000E-03 0.  1.
</event>
<event>
 8    1  0.1123285E+005  0.1043930E+01  0.7957747E-01            NaN
         13   -1    0    0    0    0  0.00000000000E+00  0.00000000000E+00  0.74505805969E-08  0.10566000000E+00  0.10566000000E+00 0. -1.
     999900   -1    0    0    0    0 -0.00000000000E+00 -0.00000000000E+00 -0.74505805969E-08  0.93827000000E+00  0.93827000000E+00 0.  1.
     999902    2    1    2    0    0  0.11531868334E-01 -0.12304855135E-01  0.16302225040E-01  0.10204745958E+01  0.10202050013E+01 0.  0.
     999903    2    3    3    0    0 -0.10595449113E+00 -0.47424775532E-01 -0.53050217802E-01  0.12926967274E+00  0.20514852081E-01 0.  0.
         14    1    1    2    0    0 -0.11531868334E-01  0.12304855135E-01 -0.16302225040E-01  0.23455404248E-01  0.00000000000E+00 0.  1.
     999901    1    3    3    0    0  0.11748635947E+00  0.35119920397E-01  0.69352442842E-01  0.89120492301E+00  0.88000000000E+00 0. -1.
        -11    1    4    4    0    0 -0.50325116999E-01 -0.26252955576E-01 -0.15318971099E-01  0.58794277561E-01  0.51100000000E-03 0. -1.
         11    1    4    4    0    0 -0.55629374136E-01 -0.21171819957E-01 -0.37731246703E-01  0.70475395180E-01  0.51100000000E-03 0.  1.
</event>
<event>
 8    1  0.1123285E+005  0.1043930E+01  0.7957747E-01            NaN
         13   -1    0    0    0    0  0.00000000000E+00  0.00000000000E+00  0.74505805969E-08  0.10566000000E+00  0.10566000000E+00 0.  1.
     999900   -1    0    0    0    0 -0.00000000000E+00 -0.00000000000E+00 -0.74505805969E-08  0.93827000000E+00  0.93827000000E+00 0. -1.
     999902    2    1    2    0    0  0.19825642184E-01  0.96009319950E-02  0.56348890827E-02  0.10211926748E+01  0.10209395149E+01 0.  0.
     999903    2    3    3    0    0 -0.74433775753E-01  0.10901450954E-01 -0.10345732898E+00  0.12945973199E+00  0.19929241880E-01 0.  0.
         14    1    1    2    0    0 -0.19825642184E-01 -0.96009319950E-02 -0.56348890827E-02  0.22737325220E-01  0.00000000000E+00 0.  1.
     999901    1    3    3    0    0  0.94259417937E-01 -0.13005189591E-02  0.10909221806E+00  0.89173294279E+00  0.88000000000E+00 0.  1.
        -11    1    4    4    0    0 -0.35381826569E-01  0.14531975023E-01 -0.44990375774E-01  0.59054610173E-01  0.51100000000E-03 0.  1.
         11    1    4    4    0    0 -0.39051949183E-01 -0.36305240686E-02 -0.58466953202E-01  0.70405121815E-01  0.51100000000E-03 0. -1.
</event>
<event>
 7    1  0.1123285E+005  0.1043930E+01  0.7957747E-01            NaN
         13   -1    0    0    0    0  0.00000000000E+00  0.00000000000E+00  0.74505805969E-08  0.10566000000E+00  0.10566000000E+00 0. -1.
     999900   -1    0    0    0    0 -0.00000000000E+00 -0.00000000000E+00 -0.74505805969E-08  0.93827000000E+00  0.93827000000E+00 0.  1.
     999903    2    1    2    0    0  0.49317821627E-02 -0.86071599085E-01 -0.77137648250E-01  0.11739774231E+00  0.19984255723E-01 0.  0.
         14    1    1    2    0    0 -0.15899213302E-01  0.23154411875E-01 -0.25919411057E-01  0.38219466800E-01  0.00000000000E+00 0.  1.
     999901    1    1    2    0    0  0.10967431139E-01  0.62917187210E-01  0.10305705931E+00  0.88831279089E+00  0.88000000000E+00 0. -1.
        -11    1    3    3    0    0  0.42764590734E-02 -0.57271887100E-01 -0.38270710934E-01  0.69016415371E-01  0.51100000000E-03 0.  1.
         11    1    3    3    0    0  0.65532308930E-03 -0.28799711985E-01 -0.38866937316E-01  0.48381326936E-01  0.51100000000E-03 0. -1.
</event>
<event>
 8    1  0.1123285E+005  0.1043930E+01  0.7957747E-01            NaN
         13   -1    0    0    0    0  0.00000000000E+00  0.00000000000E+00  0.74505805969E-08  0.10566000000E+00  0.10566000000E+00 0.  1.
     999900   -1    0    0    0    0 -0.00000000000E+00 -0.00000000000E+00 -0.74505805969E-08  0.93827000000E+00  0.93827000000E+00 0.  1.
     999902    2    1    2    0    0 -0.98453295146E-03  0.89644302405E-03 -0.23845132775E-01  0.10200477205E+01  0.10197681055E+01 0.  0.
     999903    2    3    3    0    0  0.76662256570E-02 -0.54558571938E-01 -0.11938487597E+00  0.13309905413E+00  0.20668836740E-01 0.  0.
         14    1    1    2    0    0  0.98453295146E-03 -0.89644302405E-03  0.23845132775E-01  0.23882279462E-01  0.00000000000E+00 0.  1.
     999901    1    3    3    0    0 -0.86507586085E-02  0.55455014962E-01  0.95539743197E-01  0.88694866641E+00  0.88000000000E+00 0. -1.
        -11    1    4    4    0    0 -0.27917181043E-02 -0.27111636218E-01 -0.75673070590E-01  0.80433259551E-01  0.51100000000E-03 0.  1.
         11    1    4    4    0    0  0.10457943761E-01 -0.27446935720E-01 -0.43711805382E-01  0.52665794581E-01  0.51100000000E-03 0. -1.
</event>
<event>
 8    1  0.1123285E+005  0.1043930E+01  0.7957747E-01            NaN
         13   -1    0    0    0    0  0.00000000000E+00  0.00000000000E+00  0.74505805969E-08  0.10566000000E+00  0.10566000000E+00 0. -1.
     999900   -1    0    0    0    0 -0.00000000000E+00 -0.00000000000E+00 -0.74505805969E-08  0.93827000000E+00  0.93827000000E+00 0.  1.
     999902    2    1    2    0    0  0.89827343969E-03  0.18491915722E-01  0.16954877802E-01  0.10188257031E+01  0.10185163659E+01 0.  0.
     999903    2    3    3    0    0  0.99517212907E-01 -0.28164800073E-01 -0.72066556730E-01  0.12763135831E+00  0.19981075995E-01 0.  0.
         14    1    1    2    0    0 -0.89827343969E-03 -0.18491915722E-01 -0.16954877802E-01  0.25104296914E-01  0.00000000000E+00 0.  1.
     999901    1    3    3    0    0 -0.98618939468E-01  0.46656715795E-01  0.89021434531E-01  0.89119434477E+00  0.88000000000E+00 0. -1.
        -11    1    4    4    0    0  0.63908859540E-01 -0.16278160466E-01 -0.57027394751E-01  0.87187761234E-01  0.51100000000E-03 0.  1.
         11    1    4    4    0    0  0.35608353367E-01 -0.11886639607E-01 -0.15039161979E-01  0.40443597079E-01  0.51100000000E-03 0. -1.
</event>
<event>
 8    1  0.1123285E+005  0.1043930E+01  0.7957747E-01            NaN
         13   -1    0    0    0    0  0.00000000000E+00  0.00000000000E+00  0.74505805969E-08  0.10566000000E+00  0.10566000000E+00 0. -1.
     999900   -1    0    0    0    0 -0.00000000000E+00 -0.00000000000E+00 -0.74505805969E-08  0.93827000000E+00  0.93827000000E+00 0.  1.
     999902    2    1    2    0    0 -0.10700460068E-01  0.20237008301E-01 -0.79686049125E-02  0.10196908784E+01  0.10194027430E+01 0.  0.
     999903    2    3    3    0    0 -0.49853876556E-01 -0.11083814015E+00 -0.36888492302E-01  0.12865213378E+00  0.20496544622E-01 0.  0.
         14    1    1    2    0    0  0.10700460068E-01 -0.20237008301E-01  0.79686049125E-02  0.24239121579E-01  0.00000000000E+00 0. -1.
     999901    1    3    3    0    0  0.39153416488E-01  0.13107514846E+00  0.28919887389E-01  0.89103874464E+00  0.88000000000E+00 0.  1.
        -11    1    4    4    0    0 -0.53119726337E-02 -0.16391567927E-01 -0.12839532677E-01  0.21494540534E-01  0.51100000000E-03 0.  1.
         11    1    4    4    0    0 -0.44541903922E-01 -0.94446572227E-01 -0.24048959624E-01  0.10715759325E+00  0.51100000000E-03 0. -1.
</event>
<event>
 8    1  0.1123285E+005  0.1043930E+01  0.7957747E-01            NaN
         13   -1    0    0    0    0  0.00000000000E+00  0.00000000000E+00  0.74505805969E-08  0.10566000000E+00  0.10566000000E+00 0.  1.
     999900   -1    0    0    0    0 -0.00000000000E+00 -0.00000000000E+00 -0.74505805969E-08  0.93827000000E+00  0.93827000000E+00 0.  1.
     999902    2    1    2    0    0  0.20604097845E-01 -0.11208993918E-01 -0.55385513022E-02  0.10198292543E+01  0.10195444385E+01 0.  0.
     999903    2    3    3    0    0 -0.52711588546E-01  0.67804985148E-01  0.92560149574E-01  0.12784172419E+00  0.20002439284E-01 0.  0.
         14    1    1    2    0    0 -0.20604097845E-01  0.11208993918E-01  0.55385513022E-02  0.24100745697E-01  0.00000000000E+00 0. -1.
     999901    1    3    3    0    0  0.73315686390E-01 -0.79013979066E-01 -0.98098700876E-01  0.89198753011E+00  0.88000000000E+00 0.  1.
        -11    1    4    4    0    0 -0.11447641830E-01  0.29488679654E-01  0.37820300237E-01  0.49307879312E-01  0.51100000000E-03 0. -1.
         11    1    4    4    0    0 -0.41263946716E-01  0.38316305494E-01  0.54739849337E-01  0.78533844881E-01  0.51100000000E-03 0.  1.
</event>
<event>
 8    1  0.1123285E+005  0.1043930E+01  0.7957747E-01            NaN
         13   -1    0    0    0    0  0.00000000000E+00  0.00000000000E+00  0.74505805969E-08  0.10566000000E+00  0.10566000000E+00 0. -1.
     999900   -1    0    0    0    0 -0.00000000000E+00 -0.00000000000E+00 -0.74505805969E-08  0.93827000000E+00  0.93827000000E+00 0. -1.
     999902    2    1    2    0    0 -0.19658155811E-01 -0.15265848339E-02  0.13427031894E-01  0.10200750480E+01  0.10197960800E+01 0.  0.
     999903    2    3    3    0    0 -0.35967833343E-01 -0.99842925067E-01 -0.72823467246E-01  0.13025975424E+00  0.20051221218E-01 0.  0.
         14    1    1    2    0    0  0.19658155811E-01  0.15265848339E-02 -0.13427031894E-01  0.23854952036E-01  0.00000000000E+00 0.  1.
     999901    1    3    3    0    0  0.16309677532E-01  0.98316340233E-01  0.86250499141E-01  0.88981529372E+00  0.88000000000E+00 0. -1.
        -11    1    4    4    0    0 -0.11380807696E-01 -0.33020558487E-01 -0.35751445537E-01  0.49983067589E-01  0.51100000000E-03 0. -1.
         11    1    4    4    0    0 -0.24587025646E-01 -0.66822366581E-01 -0.37072021709E-01  0.80276686654E-01  0.51100000000E-03 0.  1.
</event>
<event>
 8    1  0.1123285E+005  0.1043930E+01  0.7957747E-01            NaN
         13   -1    0    0    0    0  0.00000000000E+00  0.00000000000E+00  0.74505805969E-08  0.10566000000E+00  0.10566000000E+00 0.  1.
     999900   -1    0    0    0    0 -0.00000000000E+00 -0.00000000000E+00 -0.74505805969E-08  0.93827000000E+00  0.93827000000E+00 0.  1.
     999902    2    1    2    0    0  0.20841782802E-01 -0.11370602963E-01 -0.35456779237E-02  0.10199249515E+01  0.10196424198E+01 0.  0.
     999903    2    3    3    0    0  0.24715497934E-01 -0.83855454837E-01  0.96006225982E-01  0.13134201164E+00  0.19772087653E-01 0.  0.
         14    1    1    2    0    0 -0.20841782802E-01  0.11370602963E-01  0.35456779237E-02  0.24005048512E-01  0.00000000000E+00 0.  1.
     999901    1    3    3    0    0 -0.38737151321E-02  0.72484851874E-01 -0.99551903905E-01  0.88858293985E+00  0.88000000000E+00 0.  1.
        -11    1    4    4    0    0  0.20765149275E-01 -0.53971367181E-01  0.50622037564E-01  0.76856695921E-01  0.51100000000E-03 0. -1.
         11    1    4    4    0    0  0.39503486589E-02 -0.29884087656E-01  0.45384188418E-01  0.54485315718E-01  0.51100000000E-03 0.  1.
</event>
<event>
 8    1  0.1123285E+005  0.1043930E+01  0.7957747E-01            NaN
         13   -1    0    0    0    0  0.00000000000E+00  0.00000000000E+00  0.74505805969E-08  0.10566000000E+00  0.10566000000E+00 0.  1.
     999900   -1    0    0    0    0 -0.00000000000E+00 -0.00000000000E+00 -0.74505805969E-08  0.93827000000E+00  0.93827000000E+00 0.  1.
     999902    2    1    2    0    0  0.12156522672E-01 -0.12304702370E-01  0.15765247956E-01  0.10205263724E+01  0.10202579806E+01 0.  0.
     999903    2    3    3    0    0  0.11088919071E+00 -0.49582343849E-01 -0.47665797703E-01  0.13195377552E+00  0.19620121443E-01 0.  0.
         14    1    1    2    0    0 -0.12156522672E-01  0.12304702370E-01 -0.15765247956E-01  0.23403627646E-01  0.00000000000E+00 0. -1.
     999901    1    3    3    0    0 -0.98732668038E-01  0.37277641479E-01  0.63431045659E-01  0.88857259683E+00  0.88000000000E+00 0. -1.
        -11    1    4    4    0    0  0.66783234644E-01 -0.25371346369E-01 -0.37251194764E-01  0.80570579485E-01  0.51100000000E-03 0. -1.
         11    1    4    4    0    0  0.44105956065E-01 -0.24210997480E-01 -0.10414602939E-01  0.51383196035E-01  0.51100000000E-03 0.  1.
</event>
<event>
 8    1  0.1123285E+005  0.1043930E+01  0.7957747E-01            NaN
         13   -1    0    0    0    0  0.00000000000E+00  0.00000000000E+00  0.74505805969E-08  0.10566000000E+00  0.10566000000E+00 0.  1.
     999900   -1    0    0    0    0 -0.00000000000E+00 -0.00000000000E+00 -0.74505805969E-08  0.93827000000E+00  0.93827000000E+00 0. -1.
     999902    2    1    2    0    0  0.19128282421E-01 -0.13817195273E-01  0.17555948074E-02  0.10202680435E+01  0.10199936237E+01 0.  0.
     999903    2    3    3    0    0  0.70981359031E-01  0.33146563076E-01  0.10387672424E+00  0.13160440563E+00  0.19806508201E-01 0.  0.
         14    1    1    2    0    0 -0.19128282421E-01  0.13817195273E-01 -0.17555948074E-02  0.23661956527E-01  0.00000000000E+00 0.  1.
     999901    1    3    3    0    0 -0.51853076610E-01 -0.46963758349E-01 -0.10212112944E+00  0.88866363785E+00  0.88000000000E+00 0. -1.
        -11    1    4    4    0    0  0.44309707735E-01  0.30664498253E-01  0.65887570811E-01  0.85118122401E-01  0.51100000000E-03 0. -1.
         11    1    4    4    0    0  0.26671651295E-01  0.24820648237E-02  0.37989153433E-01  0.46486283226E-01  0.51100000000E-03 0.  1.
</event>
<event>
 8    1  0.1123285E+005  0.1043930E+01  0.7957747E-01            NaN
         13   -1    0    0    0    0  0.00000000000E+00  0.00000000000E+00  0.74505805969E-08  0.10566000000E+00  0.10566000000E+00 0. -1.
     999900   -1    0    0    0    0 -0.00000000000E+00 -0.00000000000E+00 -0.74505805969E-08  0.93827000000E+00  0.93827000000E+00 0.  1.
     999902    2    1    2    0    0  0.79004268469E-02 -0.13120785919E-01 -0.18696369818E-01  0.10197613010E+01  0.10194748575E+01 0.  0.
     999903    2    3    3    0    0  0.10697185988E+00  0.38418949405E-01 -0.63630175066E-01  0.13156619854E+00  0.18489752274E-01 0.  0.
         14    1    1    2    0    0 -0.79004268469E-02  0.13120785919E-01  0.18696369818E-01  0.24168699011E-01  0.00000000000E+00 0. -1.
     999901    1    3    3    0    0 -0.99071433036E-01 -0.51539735325E-01  0.44933805248E-01  0.88819510245E+00  0.88000000000E+00 0. -1.
        -11    1    4    4    0    0  0.29887866596E-01  0.30227075456E-02 -0.20802892205E-01  0.36543710480E-01  0.51100000000E-03 0.  1.
         11    1    4    4    0    0  0.77083993287E-01  0.35396241860E-01 -0.42827282861E-01  0.95022488060E-01  0.51100000000E-03 0. -1.
</event>
<event>
 8    1  0.1123285E+005  0.1043930E+01  0.7957747E-01            NaN
         13   -1    0    0    0    0  0.00000000000E+00  0.00000000000E+00  0.74505805969E-08  0.10566000000E+00  0.10566000000E+00 0.  1.
     999900   -1    0    0    0    0 -0.00000000000E+00 -0.00000000000E+00 -0.74505805969E-08  0.93827000000E+00  0.93827000000E+00 0. -1.
     999902    2    1    2    0    0  0.26410565832E-01  0.47281170753E-03  0.80087262933E-03  0.10175030642E+01  0.10171598216E+01 0.  0.
     999903    2    3    3    0    0 -0.11455327940E+00  0.13862574855E-01 -0.43449160444E-01  0.12508603341E+00  0.21072764602E-01 0.  0.
         14    1    1    2    0    0 -0.26410565832E-01 -0.47281170753E-03 -0.80087262933E-03  0.26426935794E-01  0.00000000000E+00 0. -1.
     999901    1    3    3    0    0  0.14096384524E+00 -0.13389763147E-01  0.44250033074E-01  0.89241703079E+00  0.88000000000E+00 0.  1.
        -11    1    4    4    0    0 -0.37023029095E-01  0.13283458826E-02 -0.24100708974E-01  0.44199258820E-01  0.51100000000E-03 0.  1.
         11    1    4    4    0    0 -0.77530250309E-01  0.12534228972E-01 -0.19348451471E-01  0.80886774594E-01  0.51100000000E-03 0. -1.
</event>
<event>
 8    1  0.1123285E+005  0.1043930E+01  0.7957747E-01            NaN
         13   -1    0    0    0    0  0.00000000000E+00  0.00000000000E+00  0.74505805969E-08  0.10566000000E+00  0.10566000000E+00 0.  1.
     999900   -1    0    0    0    0 -0.00000000000E+00 -0.00000000000E+00 -0.74505805969E-08  0.93827000000E+00  0.93827000000E+00 0. -1.
     999902    2    1    2    0    0 -0.16486931874E-01  0.12839669761E-01 -0.84738331675E-02  0.10213804570E+01  0.10211315077E+01 0.  0.
     999903    2    3    3    0    0 -0.38228356542E-01 -0.12311859241E+00  0.50892419323E-02  0.13057110834E+00  0.20082801340E-01 0.  0.
         14    1    1    2    0    0  0.16486931874E-01 -0.12839669761E-01  0.84738331675E-02  0.22549543027E-01  0.00000000000E+00 0.  1.
     999901    1    3    3    0    0  0.21741424667E-01  0.13595826217E+00 -0.13563075100E-01  0.89080934863E+00  0.88000000000E+00 0. -1.
        -11    1    4    4    0    0 -0.26103515490E-01 -0.61427223233E-01 -0.48290855444E-02  0.66919940700E-01  0.51100000000E-03 0.  1.
         11    1    4    4    0    0 -0.12124841051E-01 -0.61691369177E-01  0.99183274767E-02  0.63651167643E-01  0.51100000000E-03 0. -1.
</event>
<event>
 8    1  0.1123285E+005  0.1043930E+01  0.7957747E-01            NaN
         13   -1    0    0    0    0  0.00000000000E+00  0.00000000000E+00  0.74505805969E-08  0.10566000000E+00  0.10566000000E+00 0. -1.
     999900   -1    0    0    0    0 -0.00000000000E+00 -0.00000000000E+00 -0.74505805969E-08  0.93827000000E+00  0.93827000000E+00 0.  1.
     999902    2    1    2    0    0 -0.19112405063E-01 -0.46453047739E-02  0.11739193929E-01  0.10210242898E+01  0.10207673236E+01 0.  0.
     999903    2    3    3    0    0  0.12605857929E-01 -0.96081486136E-01  0.87043574507E-01  0.13252140678E+00  0.24388106953E-01 0.  0.
         14    1    1    2    0    0  0.19112405063E-01  0.46453047739E-02 -0.11739193929E-01  0.22905710158E-01  0.00000000000E+00 0.  1.
     999901    1    3    3    0    0 -0.31718262992E-01  0.91436181362E-01 -0.75304380579E-01  0.88850288306E+00  0.88000000000E+00 0.  1.
        -11    1    4    4    0    0 -0.20409696461E-02 -0.19521088894E-01  0.30299080843E-01  0.36104485727E-01  0.51100000000E-03 0. -1.
         11    1    4    4    0    0  0.14646827575E-01 -0.76560397241E-01  0.56744493665E-01  0.96416921057E-01  0.51100000000E-03 0.  1.
</event>
<event>
 8    1  0.1123285E+005  0.1043930E+01  0.7957747E-01            NaN
         13   -1    0    0    0    0  0.00000000000E+00  0.00000000000E+00  0.74505805969E-08  0.10566000000E+00  0.10566000000E+00 0.  1.
     999900   -1    0    0    0    0 -0.00000000000E+00 -0.00000000000E+00 -0.74505805969E-08  0.93827000000E+00  0.93827000000E+00 0. -1.
     999902    2    1    2    0    0 -0.88528705839E-02  0.22302148747E-01 -0.58605560223E-02  0.10192296908E+01  0.10189303496E+01 0.  0.
     999903    2    3    3    0    0  0.21877379073E-01 -0.75408585813E-01  0.97997000343E-01  0.12722177163E+00  0.20417947296E-01 0.  0.
         14    1    1    2    0    0  0.88528705839E-02 -0.22302148747E-01  0.58605560223E-02  0.24700309172E-01  0.00000000000E+00 0.  1.
     999901    1    3    3    0    0 -0.30730249657E-01  0.97710734560E-01 -0.10385755637E+00  0.89200791919E+00  0.88000000000E+00 0. -1.
        -11    1    4    4    0    0  0.19328538238E-01 -0.41360210731E-01  0.44500962076E-01  0.63756224549E-01  0.51100000000E-03 0. -1.
         11    1    4    4    0    0  0.25488408357E-02 -0.34048375082E-01  0.53496038268E-01  0.63465547084E-01  0.51100000000E-03 0.  1.
</event>
<event>
 8    1  0.1123285E+005  0.1043930E+01  0.7957747E-01            NaN
         13   -1    0    0    0    0  0.00000000000E+00  0.00000000000E+00  0.74505805969E-08  0.10566000000E+00  0.10566000000E+00 0.  1.
     999900   -1    0    0    0    0 -0.00000000000E+00 -0.00000000000E+00 -0.74505805969E-08  0.93827000000E+00  0.93827000000E+00 0. -1.
     999902    2    1    2    0    0  0.17629224399E-01 -0.11768995621E-01 -0.10337967652E-01  0.10203466926E+01  0.10200741153E+01 0.  0.
     999903    2    3    3    0    0  0.86921792528E-01  0.65320056142E-01  0.69633233452E-01  0.13066159391E+00  0.20038891460E-01 0.  0.
         14    1    1    2    0    0 -0.17629224399E-01  0.11768995621E-01  0.10337967652E-01  0.23583307359E-01  0.00000000000E+00 0. -1.
     999901    1    3    3    0    0 -0.69292568129E-01 -0.77089051763E-01 -0.79971201105E-01  0.88968509873E+00  0.88000000000E+00 0. -1.
        -11    1    4    4    0    0  0.41140437213E-01  0.26873617866E-01  0.42647975990E-01  0.65067948241E-01  0.51100000000E-03 0. -1.
         11    1    4    4    0    0  0.45781355315E-01  0.38446438276E-01  0.26985257462E-01  0.65593645667E-01  0.51100000000E-03 0.  1.
</event>
<event>
 8    1  0.1123285E+005  0.1043930E+01  0.7957747E-01            NaN
         13   -1    0    0    0    0  0.00000000000E+00  0.00000000000E+00  0.74505805969E-08  0.10566000000E+00  0.10566000000E+00 0. -1.
     999900   -1    0    0    0    0 -0.00000000000E+00 -0.00000000000E+00 -0.74505805969E-08  0.93827000000E+00  0.93827000000E+00 0. -1.
     999902    2    1    2    0    0 -0.22316695019E-01 -0.12960646970E-02 -0.10244330688E-02  0.10215522404E+01  0.10213071114E+01 0.  0.
     999903    2    3    3    0    0  0.39071064398E-01  0.11183428818E+00 -0.51277095262E-01  0.13077041315E+00  0.20930942905E-01 0.  0.
         14    1    1    2    0    0  0.22316695019E-01  0.12960646970E-02  0.10244330688E-02  0.22377759571E-01  0.00000000000E+00 0. -1.
     999901    1    3    3    0    0 -0.61387759417E-01 -0.11313035288E+00  0.50252662193E-01  0.89078182728E+00  0.88000000000E+00 0. -1.
        -11    1    4    4    0    0  0.22791112250E-01  0.63829480161E-01 -0.40460809011E-01  0.78936528439E-01  0.51100000000E-03 0. -1.
         11    1    4    4    0    0  0.16279952148E-01  0.48004808023E-01 -0.10816286251E-01  0.51833884713E-01  0.51100000000E-03 0.  1.
</event>
<event>
 8    1  0.1123285E+005  0.1043930E+01  0.7957747E-01            NaN
         13   -1    0    0    0    0  0.00000000000E+00  0.00000000000E+00  0.74505805969E-08  0.10566000000E+00  0.10566000000E+00 0. -1.
     999900   -1    0    0    0    0 -0.00000000000E+00 -0.00000000000E+00 -0.74505805969E-08  0.93827000000E+00  0.93827000000E+00 0. -1.
     999902    2    1    2    0    0 -0.13442613056E-02 -0.23553981917E-01  0.26361224488E-02  0.10201908710E+01  0.10199146372E+01 0.  0.
     999903    2    3    3    0    0  0.25773105998E-01 -0.11062157526E+00 -0.65825054656E-01  0.13283353028E+00  0.20258900249E-01 0.  0.
         14    1    1    2    0    0  0.13442613056E-02  0.23553981917E-01 -0.26361224488E-02  0.23739128968E-01  0.00000000000E+00 0. -1.
     999901    1    3    3    0    0 -0.27117367304E-01  0.87067593345E-01  0.68461177104E-01  0.88735734075E+00  0.88000000000E+00 0.  1.
        -11    1    4    4    0    0  0.22518192870E-01 -0.56294480054E-01 -0.29768439752E-01  0.67546714360E-01  0.51100000000E-03 0. -1.
         11    1    4    4    0    0  0.32549131284E-02 -0.54327095208E-01 -0.36056614904E-01  0.65286815917E-01  0.51100000000E-03 0.  1.
</event>
<event>
 8    1  0.1123285E+005  0.1043930E+01  0.7957747E-01            NaN
         13   -1    0    0    0    0  0.00000000000E+00  0.00000000000E+00  0.74505805969E-08  0.10566000000E+00  0.10566000000E+00 0. -1.
     999900   -1    0    0    0    0 -0.00000000000E+00 -0.00000000000E+00 -0.74505805969E-08  0.93827000000E+00  0.93827000000E+00 0.  1.
     999902    2    1    2    0    0 -0.15692480653E-01  0.12894661484E-01  0.12034752541E-01  0.10203214949E+01  0.10200483280E+01 0.  0.
     999903    2    3    3    0    0  0.12132076173E+00  0.40634567658E-01  0.92757253525E-02  0.12928291931E+00  0.16066699342E-01 0.  0.
         14    1    1    2    0    0  0.15692480653E-01 -0.12894661484E-01 -0.12034752541E-01  0.23608505090E-01  0.00000000000E+00 0. -1.
     999901    1    3    3    0    0 -0.13701324238E+00 -0.27739906173E-01  0.27590271890E-02  0.89103857560E+00  0.88000000000E+00 0.  1.
        -11    1    4    4    0    0  0.69287420670E-01  0.27484178795E-01 -0.14249521799E-02  0.74554801031E-01  0.51100000000E-03 0. -1.
         11    1    4    4    0    0  0.52033341061E-01  0.13150388863E-01  0.10700677532E-01  0.54728118275E-01  0.51100000000E-03 0.  1.
</event>
<event>
 8    1  0.1123285E+005  0.1043930E+01  0.7957747E-01            NaN
         13   -1    0    0    0    0  0.00000000000E+00  0.00000000000E+00  0.74505805969E-08  0.10566000000E+00  0.10566000000E+00 0. -1.
     999900   -1    0    0    0    0 -0.00000000000E+00 -0.00000000000E+00 -0.74505805969E-08  0.93827000000E+00  0.93827000000E+00 0. -1.
     999902    2    1    2    0    0 -0.19801804454E-01 -0.12775202942E-01 -0.38075630288E-02  0.10200592060E+01  0.10197798630E+01 0.  0.
     999903    2    3    3    0    0 -0.10589055159E+00  0.43016341856E-01 -0.62606848907E-01  0.13215080708E+00  0.21931796562E-01 0.  0.
         14    1    1    2    0    0  0.19801804454E-01  0.12775202942E-01  0.38075630288E-02  0.23870793997E-01  0.00000000000E+00 0. -1.
     999901    1    3    3    0    0  0.86088747133E-01 -0.55791544798E-01  0.58799285878E-01  0.88790839892E+00  0.88000000000E+00 0.  1.
        -11    1    4    4    0    0 -0.75455864189E-01  0.19639921082E-01 -0.40575907734E-01  0.87897550308E-01  0.51100000000E-03 0. -1.
         11    1    4    4    0    0 -0.30434687397E-01  0.23376420774E-01 -0.22030941173E-01  0.44253256775E-01  0.51100000000E-03 0.  1.
</event>
<event>
 8    1  0.1123285E+005  0.1043930E+01  0.7957747E-01            NaN
         13   -1    0    0    0    0  0.00000000000E+00  0.00000000000E+00  0.74505805969E-08  0.10566000000E+00  0.10566000000E+00 0. -1.
     999900   -1    0    0    0    0 -0.00000000000E+00 -0.00000000000E+00 -0.74505805969E-08  0.93827000000E+00  0.93827000000E+00 0. -1.
     999902    2    1    2    0    0  0.81067976463E-02  0.22115989972E-01 -0.16552476168E-03  0.10203744363E+01  0.10201025075E+01 0.  0.
     999903    2    3    3    0    0 -0.17105126102E-01  0.11410533743E+00 -0.63141555649E-01  0.13298294348E+00  0.19621259874E-01 0.  0.
         14    1    1    2    0    0 -0.81067976463E-02 -0.22115989972E-01  0.16552476168E-03  0.23555563652E-01  0.00000000000E+00 0.  1.
     999901    1    3    3    0    0  0.25211923749E-01 -0.91989347456E-01  0.62976030887E-01  0.88739149287E+00  0.88000000000E+00 0. -1.
        -11    1    4    4    0    0 -0.74907650329E-02  0.81853641480E-01 -0.35957147039E-01  0.89717934263E-01  0.51100000000E-03 0.  1.
         11    1    4    4    0    0 -0.96143610693E-02  0.32251695948E-01 -0.27184408609E-01  0.43265009219E-01  0.51100000000E-03 0. -1.
</event>
<event>
 8    1  0.1123285E+005  0.1043930E+01  0.7957747E-01            NaN
         13   -1    0    0    0    0  0.00000000000E+00  0.00000000000E+00  0.74505805969E-08  0.10566000000E+00  0.10566000000E+00 0.  1.
     999900   -1    0    0    0    0 -0.00000000000E+00 -0.00000000000E+00 -0.74505805969E-08  0.93827000000E+00  0.93827000000E+00 0.  1.
     999902    2    1    2    0    0  0.15776322519E-01  0.29422475807E-02  0.16385269789E-01  0.10209947381E+01  0.10207371008E+01 0.  0.
     999903    2    3    3    0    0 -0.93724863149E-01 -0.52256405275E-01 -0.67135013671E-01  0.12857497212E+00  0.22568374559E-01 0.  0.
         14    1    1    2    0    0 -0.15776322519E-01 -0.29422475807E-02 -0.16385269789E-01  0.22935261914E-01  0.00000000000E+00 0.  1.
     999901    1    3    3    0    0  0.10950118567E+00  0.55198652855E-01  0.83520283459E-01  0.89241976597E+00  0.88000000000E+00 0. -1.
        -11    1    4    4    0    0 -0.26023589493E-01 -0.36243399393E-02 -0.15139539959E-01  0.30328696663E-01  0.51100000000E-03 0.  1.
         11    1    4    4    0    0 -0.67701273656E-01 -0.48632065335E-01 -0.51995473712E-01  0.98246275455E-01  0.51100000000E-03 0. -1.
</event>
<event>
 8    1  0.1123285E+005  0.1043930E+01  0.7957747E-01            NaN
         13   -1    0    0    0    0  0.00000000000E+00  0.00000000000E+00  0.74505805969E-08  0.10566000000E+00  0.10566000000E+00 0.  1.
     999900   -1    0    0    0    0 -0.00000000000E+00 -0.00000000000E+00 -0.74505805969E-08  0.93827000000E+00  0.93827000000E+00 0.  1.
     999902    2    1    2    0    0 -0.19596301850E-01  0.11407028831E-01  0.82334469988E-02  0.10198068783E+01  0.10195215270E+01 0.  0.
     999903    2    3    3    0    0 -0.13000210171E+00  0.17609889988E-01  0.11686348708E-01  0.13287968922E+00  0.17600749585E-01 0.  0.
         14    1    1    2    0    0  0.19596301850E-01 -0.11407028831E-01 -0.82334469988E-02  0.24123121739E-01  0.00000000000E+00 0. -1.
     999901    1    3    3    0    0  0.11040579986E+00 -0.62028611570E-02 -0.34529017088E-02  0.88692718904E+00  0.88000000000E+00 0.  1.
        -11    1    4    4    0    0 -0.72878140014E-01  0.17947134384E-01  0.10068805612E-01  0.75729550982E-01  0.51100000000E-03 0.  1.
         11    1    4    4    0    0 -0.57123961699E-01 -0.33724439578E-03  0.16175430954E-02  0.57150138238E-01  0.51100000000E-03 0. -1.
</event>
<event>
 8    1  0.1123285E+005  0.1043930E+01  0.7957747E-01            NaN
         13   -1    0    0    0    0  0.00000000000E+00  0.00000000000E+00  0.74505805969E-08  0.10566000000E+00  0.10566000000E+00 0.  1.
     999900   -1    0    0    0    0 -0.00000000000E+00 -0.00000000000E+00 -0.74505805969E-08  0.93827000000E+00  0.93827000000E+00 0. -1.
     999902    2    1    2    0    0  0.12862599499E-01 -0.56516600859E-02  0.18669339084E-01  0.10205648133E+01  0.10202973126E+01 0.  0.
     999903    2    3    3    0    0 -0.40151352038E-01 -0.88417520775E-01 -0.83088166207E-01  0.12926505641E+00  0.19391296877E-01 0.  0.
         14    1    1    2    0    0 -0.12862599499E-01  0.56516600859E-02 -0.18669339084E-01  0.23365186698E-01  0.00000000000E+00 0.  1.
     999901    1    3    3    0    0  0.53013951537E-01  0.82765860689E-01  0.10175750529E+00  0.89129975689E+00  0.88000000000E+00 0.  1.
        -11    1    4    4    0    0 -0.10838032735E-01 -0.45069938583E-01 -0.44353674508E-01  0.64158178596E-01  0.51100000000E-03 0. -1.
         11    1    4    4    0    0 -0.29313319303E-01 -0.43347582192E-01 -0.38734491699E-01  0.65106877814E-01  0.51100000000E-03 0.  1.
</event>
<event>
 8    1  0.1123285E+005  0.1043930E+01  0.7957747E-01            NaN
         13   -1    0    0    0    0  0.00000000000E+00  0.00000000000E+00  0.74505805969E-08  0.10566000000E+00  0.10566000000E+00 0. -1.
     999900   -1    0    0    0    0 -0.00000000000E+00 -0.00000000000E+00 -0.74505805969E-08  0.93827000000E+00  0.93827000000E+00 0. -1.
     999902    2    1    2    0    0 -0.12562891208E-01  0.17174528246E-01 -0.77799593250E-02  0.10212734684E+01  0.10210221246E+01 0.  0.
     999903    2    3    3    0    0  0.26981339773E-01  0.13122596747E-01 -0.12728023411E+00  0.13230750731E+00  0.20120219987E-01 0.  0.
         14    1    1    2    0    0  0.12562891208E-01 -0.17174528246E-01  0.77799593250E-02  0.22656531576E-01  0.00000000000E+00 0. -1.
     999901    1    3    3    0    0 -0.39544230980E-01  0.40519314986E-02  0.11950027479E+00  0.88896596112E+00  0.88000000000E+00 0.  1.
        -11    1    4    4    0    0  0.59357040729E-02  0.75756226508E-02 -0.75843047894E-01  0.76452937656E-01  0.51100000000E-03 0.  1.
         11    1    4    4    0    0  0.21045635700E-01  0.55469740966E-02 -0.51437186219E-01  0.55854569650E-01  0.51100000000E-03 0. -1.
</event>
<event>
 8    1  0.1123285E+005  0.1043930E+01  0.7957747E-01            NaN
         13   -1    0    0    0    0  0.00000000000E+00  0.00000000000E+00  0.74505805969E-08  0.10566000000E+00  0.10566000000E+00 0.  1.
     999900   -1    0    0    0    0 -0.00000000000E+00 -0.00000000000E+00 -0.74505805969E-08  0.93827000000E+00  0.93827000000E+00 0.  1.
     999902    2    1    2    0    0 -0.32511847580E-02  0.11598267521E-01 -0.22292904746E-01  0.10185910258E+01  0.10182758046E+01 0.  0.
     999903    2    3    3    0    0 -0.16911391798E-01 -0.28818269498E-01 -0.12560287276E+00  0.13152110340E+00  0.20130354312E-01 0.  0.
         14    1    1    2    0    0  0.32511847580E-02 -0.11598267521E-01  0.22292904746E-01  0.25338974207E-01  0.00000000000E+00 0.  1.
     999901    1    3    3    0    0  0.13660207040E-01  0.40416537019E-01  0.10330996801E+00  0.88706992239E+00  0.88000000000E+00 0. -1.
        -11    1    4    4    0    0 -0.98668983303E-02 -0.30222005135E-01 -0.10111565018E+00  0.10599698632E+00  0.51100000000E-03 0. -1.
         11    1    4    4    0    0 -0.70444934677E-02  0.14037356367E-02 -0.24487222585E-01  0.25524117083E-01  0.51100000000E-03 0.  1.
</event>
<event>
 8    1  0.1123285E+005  0.1043930E+01  0.7957747E-01            NaN
         13   -1    0    0    0    0  0.00000000000E+00  0.00000000000E+00  0.74505805969E-08  0.10566000000E+00  0.10566000000E+00 0.  1.
     999900   -1    0    0    0    0 -0.00000000000E+00 -0.00000000000E+00 -0.74505805969E-08  0.93827000000E+00  0.93827000000E+00 0.  1.
     999902    2    1    2    0    0  0.16948288135E-01 -0.53779322778E-02 -0.14307005992E-01  0.10211077072E+01  0.10208526303E+01 0.  0.
     999903    2    3    3    0    0  0.53585774974E-01 -0.11761996811E+00 -0.25301720009E-01  0.13315418155E+00  0.19595072140E-01 0.  0.
         14    1    1    2    0    0 -0.16948288135E-01  0.53779322778E-02  0.14307005992E-01  0.22822292758E-01  0.00000000000E+00 0.  1.
     999901    1    3    3    0    0 -0.36637486839E-01  0.11224203583E+00  0.10994714018E-01  0.88795352569E+00  0.88000000000E+00 0.  1.
        -11    1    4    4    0    0  0.22926095322E-01 -0.39136021796E-01 -0.66383928104E-03  0.45364477869E-01  0.51100000000E-03 0. -1.
         11    1    4    4    0    0  0.30659679652E-01 -0.78483946311E-01 -0.24637880728E-01  0.87789703683E-01  0.51100000000E-03 0.  1.
</event>
<event>
 8    1  0.1123285E+005  0.1043930E+01  0.7957747E-01            NaN
         13   -1    0    0    0    0  0.00000000000E+00  0.00000000000E+00  0.74505805969E-08  0.10566000000E+00  0.10566000000E+00 0.  1.
     999900   -1    0    0    0    0 -0.00000000000E+00 -0.00000000000E+00 -0.74505805969E-08  0.93827000000E+00  0.93827000000E+00 0.  1.
     999902    2    1    2    0    0 -0.17317744849E-01 -0.17112654610E-01 -0.59711494160E-02  0.10188620551E+01  0.10185536243E+01 0.  0.
     999903    2    3    3    0    0  0.90073332261E-01  0.71419806409E-01  0.48348392650E-01  0.12626950937E+00  0.19809795393E-01 0.  0.
         14    1    1    2    0    0  0.17317744849E-01  0.17112654610E-01  0.59711494160E-02  0.25067944866E-01  0.00000000000E+00 0.  1.
     999901    1    3    3    0    0 -0.10739107711E+00 -0.88532461019E-01 -0.54319542066E-01  0.89259254576E+00  0.88000000000E+00 0.  1.
        -11    1    4    4    0    0  0.27208505139E-01  0.13009935385E-01  0.18644866420E-01  0.35460588481E-01  0.51100000000E-03 0.  1.
         11    1    4    4    0    0  0.62864827122E-01  0.58409871024E-01  0.29703526230E-01  0.90808920892E-01  0.51100000000E-03 0. -1.
</event>
<event>
 8    1  0.1123285E+005  0.1043930E+01  0.7957747E-01            NaN
         13   -1    0    0    0    0  0.00000000000E+00  0.00000000000E+00  0.74505805969E-08  0.10566000000E+00  0.10566000000E+00 0. -1.
     999900   -1    0    0    0    0 -0.00000000000E+00 -0.00000000000E+00 -0.74505805969E-08  0.93827000000E+00  0.93827000000E+00 0.  1.
     999902    2    1    2    0    0  0.56218742921E-02  0.27402662576E-02 -0.23292131947E-01  0.10198128289E+01  0.10195276201E+01 0.  0.
     999903    2    3    3    0    0 -0.11893648601E+00 -0.43800892132E-01 -0.19671082941E-01  0.12981621290E+00  0.20022281882E-01 0.  0.
         14    1    1    2    0    0 -0.56218742921E-02 -0.27402662576E-02  0.23292131947E-01  0.24117171069E-01  0.00000000000E+00 0. -1.
     999901    1    3    3    0    0  0.12455836030E+00  0.46541158390E-01 -0.36210490066E-02  0.88999661603E+00  0.88000000000E+00 0. -1.
        -11    1    4    4    0    0 -0.42966719063E-01 -0.17909489391E-01  0.22732575029E-02  0.46608127810E-01  0.51100000000E-03 0.  1.
         11    1    4    4    0    0 -0.75969766950E-01 -0.25891402741E-01 -0.21944340444E-01  0.83208085093E-01  0.51100000000E-03 0. -1.
</event>
<event>
 8    1  0.1123285E+005  0.1043930E+01  0.7957747E-01            NaN
         13   -1    0    0    0    0  0.00000000000E+00  0.00000000000E+00  0.74505805969E-08  0.10566000000E+00  0.10566000000E+00 0. -1.
     999900   -1    0    0    0    0 -0.00000000000E+00 -0.00000000000E+00 -0.74505805969E-08  0.93827000000E+00  0.93827000000E+00 0.  1.
     999902    2    1    2    0    0  0.17669207341E-01  0.15656248037E-01 -0.33605354297E-02  0.10200844094E+01  0.10198056630E+01 0.  0.
     999903    2    3    3    0    0 -0.20615386272E-01 -0.69869541891E-01 -0.10484650997E+00  0.12930959285E+00  0.20528836141E-01 0.  0.
         14    1    1    2    0    0 -0.17669207341E-01 -0.15656248037E-01  0.33605354297E-02  0.23845590558E-01  0.00000000000E+00 0. -1.
     999901    1    3    3    0    0  0.38284593613E-01  0.85525789928E-01  0.10148597454E+00  0.89077481660E+00  0.88000000000E+00 0. -1.
        -11    1    4    4    0    0  0.25230459281E-02 -0.23363852118E-01 -0.37483021206E-01  0.44243342395E-01  0.51100000000E-03 0.  1.
         11    1    4    4    0    0 -0.23138432200E-01 -0.46505689773E-01 -0.67363488769E-01  0.85066250452E-01  0.51100000000E-03 0. -1.
</event>
<event>
 8    1  0.1123285E+005  0.1043930E+01  0.7957747E-01            NaN
         13   -1    0    0    0    0  0.00000000000E+00  0.00000000000E+00  0.74505805969E-08  0.10566000000E+00  0.10566000000E+00 0.  1.
     999900   -1    0    0    0    0 -0.00000000000E+00 -0.00000000000E+00 -0.74505805969E-08  0.93827000000E+00  0.93827000000E+00 0.  1.
     999902    2    1    2    0    0 -0.17278431306E-01  0.88673377903E-02 -0.12443773236E-01  0.10208644118E+01  0.10206038046E+01 0.  0.
     999903    2    3    3    0    0  0.10125623410E+00  0.60161732076E-01 -0.53118751260E-01  0.13050716009E+00  0.18391795709E-01 0.  0.
         14    1    1    2    0    0  0.17278431306E-01 -0.88673377903E-02  0.12443773236E-01  0.23065588226E-01  0.00000000000E+00 0.  1.
     999901    1    3    3    0    0 -0.11853466540E+00 -0.51294394285E-01  0.40674978025E-01  0.89035725168E+00  0.88000000000E+00 0. -1.
        -11    1    4    4    0    0  0.70529671860E-01  0.46114603943E-01 -0.45888423124E-01  0.95953112546E-01  0.51100000000E-03 0. -1.
         11    1    4    4    0    0  0.30726562238E-01  0.14047128133E-01 -0.72303281361E-02  0.34554047544E-01  0.51100000000E-03 0.  1.
</event>
<event>
 8    1  0.1123285E+005  0.1043930E+01  0.7957747E-01            NaN
         13   -1    0    0    0    0  0.00000000000E+00  0.00000000000E+00  0.74505805969E-08  0.10566000000E+00  0.10566000000E+00 0. -1.
     999900   -1    0    0    0    0 -0.00000000000E+00 -0.00000000000E+00 -0.74505805969E-08  0.93827000000E+00  0.93827000000E+00 0.  1.
     999902    2    1    2    0    0  0.12170018671E-01 -0.17585873034E-01  0.11016236068E-01  0.10198731976E+01  0.10195894318E+01 0.  0.
     999903    2    3    3    0    0 -0.10768459835E+00 -0.68275362401E-01 -0.15395918111E-01  0.12991131333E+00  0.19555490369E-01 0.  0.
         14    1    1    2    0    0 -0.12170018671E-01  0.17585873034E-01 -0.11016236068E-01  0.24056802404E-01  0.00000000000E+00 0.  1.
     999901    1    3    3    0    0  0.11985461702E+00  0.50689489368E-01  0.26412154180E-01  0.88996188426E+00  0.88000000000E+00 0. -1.
        -11    1    4    4    0    0 -0.31159545421E-01 -0.22380615228E-01 -0.13448449894E-01  0.40656255784E-01  0.51100000000E-03 0. -1.
         11    1    4    4    0    0 -0.76525052932E-01 -0.45894747174E-01 -0.19474682171E-02  0.89255057548E-01  0.51100000000E-03 0.  1.
</event>
<event>
 8    1  0.1123285E+005  0.1043930E+01  0.7957747E-01            NaN
         13   -1    0    0    0    0  0.00000000000E+00  0.00000000000E+00  0.74505805969E-08  0.10566000000E+00  0.10566000000E+00 0.  1.
     999900   -1    0    0    0    0 -0.00000000000E+00 -0.00000000000E+00 -0.74505805969E-08  0.93827000000E+00  0.93827000000E+00 0. -1.
     999902    2    1    2    0    0  0.91785036095E-02 -0.20806037061E-01  0.54094386136E-02  0.10205548394E+01  0.10202871077E+01 0.  0.
     999903    2    3    3    0    0  0.88389987756E-01  0.39345373374E-01 -0.85194473538E-01  0.13032918245E+00  0.19150695448E-01 0.  0.
         14    1    1    2    0    0 -0.91785036095E-02  0.20806037061E-01 -0.54094386136E-02  0.23375160595E-01  0.00000000000E+00 0. -1.
     999901    1    3    3    0    0 -0.79211484146E-01 -0.60151410435E-01  0.90603912152E-01  0.89022565695E+00  0.88000000000E+00 0.  1.
        -11    1    4    4    0    0  0.30827335231E-01  0.77113545264E-02 -0.37496862501E-01  0.49153488223E-01  0.51100000000E-03 0. -1.
         11    1    4    4    0    0  0.57562652525E-01  0.31634018848E-01 -0.47697611037E-01  0.81175694231E-01  0.51100000000E-03 0.  1.
</event>
<event>
 8    1  0.1123285E+005  0.1043930E+01  0.7957747E-01            NaN
         13   -1    0    0    0    0  0.00000000000E+00  0.00000000000E+00  0.74505805969E-08  0.10566000000E+00  0.10566000000E+00 0.  1.
     999900   -1    0    0    0    0 -0.00000000000E+00 -0.00000000000E+00 -0.74505805969E-08  0.93827000000E+00  0.93827000000E+00 0.  1.
     999902    2    1    2    0    0  0.52724392938E-02 -0.50232170653E-02 -0.22938975666E-01  0.10198628454E+01  0.10195788324E+01 0.  0.
     999903    2    3    3    0    0 -0.12110615550E+00  0.37716489592E-01  0.12525205997E-01  0.12910140712E+00  0.20519699049E-01 0.  0.
         14    1    1    2    0    0 -0.52724392938E-02  0.50232170653E-02  0.22938975666E-01  0.24067154597E-01  0.00000000000E+00 0.  1.
     999901    1    3    3    0    0  0.12637859479E+00 -0.42739706657E-01 -0.35464181664E-01  0.89076143828E+00  0.88000000000E+00 0. -1.
        -11    1    4    4    0    0 -0.79875408630E-01  0.30602669193E-01  0.16337991009E-01  0.87084989158E-01  0.51100000000E-03 0.  1.
         11    1    4    4    0    0 -0.41230746868E-01  0.71138203989E-02 -0.38127850115E-02  0.42016417964E-01  0.51100000000E-03 0. -1.
</event>
<event>
 8    1  0.1123285E+005  0.1043930E+01  0.7957747E-01            NaN
         13   -1    0    0    0    0  0.00000000000E+00  0.00000000000E+00  0.74505805969E-08  0.10566000000E+00  0.10566000000E+00 0. -1.
     999900   -1    0    0    0    0 -0.00000000000E+00 -0.00000000000E+00 -0.74505805969E-08  0.93827000000E+00  0.93827000000E+00 0. -1.
     999902    2    1    2    0    0 -0.19048446485E-01 -0.83354786631E-02 -0.10042052083E-01  0.10208396053E+01  0.10205784308E+01 0.  0.
     999903    2    3    3    0    0  0.88534969531E-01  0.39958979629E-01 -0.84084455702E-01  0.12989133314E+00  0.19141626146E-01 0.  0.
         14    1    1    2    0    0  0.19048446485E-01  0.83354786631E-02  0.10042052083E-01  0.23090394715E-01  0.00000000000E+00 0. -1.
     999901    1    3    3    0    0 -0.10758341602E+00 -0.48294458292E-01  0.74042403619E-01  0.89094827214E+00  0.88000000000E+00 0. -1.
        -11    1    4    4    0    0  0.76177920769E-01  0.33145607717E-01 -0.79648800813E-01  0.11509083159E+00  0.51100000000E-03 0.  1.
         11    1    4    4    0    0  0.12357048762E-01  0.68133719125E-02 -0.44356548890E-02  0.14800501553E-01  0.51100000000E-03 0. -1.
</event>
<event>
 8    1  0.1123285E+005  0.1043930E+01  0.7957747E-01            NaN
         13   -1    0    0    0    0  0.00000000000E+00  0.00000000000E+00  0.74505805969E-08  0.10566000000E+00  0.10566000000E+00 0. -1.
     999900   -1    0    0    0    0 -0.00000000000E+00 -0.00000000000E+00 -0.74505805969E-08  0.93827000000E+00  0.93827000000E+00 0. -1.
     999902    2    1    2    0    0  0.16984652442E-01  0.10352255594E-01  0.11528843540E-01  0.10209395270E+01  0.10206806337E+01 0.  0.
     999903    2    3    3    0    0 -0.82733390173E-01  0.95046582831E-01 -0.27215873864E-01  0.13042396275E+00  0.19774718977E-01 0.  0.
         14    1    1    2    0    0 -0.16984652442E-01 -0.10352255594E-01 -0.11528843540E-01  0.22990472980E-01  0.00000000000E+00 0.  1.
     999901    1    3    3    0    0  0.99718042615E-01 -0.84694327237E-01  0.38744717405E-01  0.89051556427E+00  0.88000000000E+00 0.  1.
        -11    1    4    4    0    0 -0.63803751760E-02  0.16656270878E-01 -0.68544845711E-02  0.19115062822E-01  0.51100000000E-03 0. -1.
         11    1    4    4    0    0 -0.76353014997E-01  0.78390311953E-01 -0.20361389293E-01  0.11130889992E+00  0.51100000000E-03 0.  1.
</event>
<event>
 8    1  0.1123285E+005  0.1043930E+01  0.7957747E-01            NaN
         13   -1    0    0    0    0  0.00000000000E+00  0.00000000000E+00  0.74505805969E-08  0.10566000000E+00  0.10566000000E+00 0. -1.
     999900   -1    0    0    0    0 -0.00000000000E+00 -0.00000000000E+00 -0.74505805969E-08  0.93827000000E+00  0.93827000000E+00 0. -1.
     999902    2    1    2    0    0  0.15168411678E-01  0.15451141219E-01  0.32324995593E-02  0.10220378203E+01  0.10218033268E+01 0.  0.
     999903    2    3    3    0    0  0.31750448335E-01 -0.12318473305E+00 -0.21144248481E-01  0.13069664242E+00  0.21259437168E-01 0.  0.
         14    1    1    2    0    0 -0.15168411678E-01 -0.15451141219E-01 -0.32324995593E-02  0.21892179681E-01  0.00000000000E+00 0.  1.
     999901    1    3    3    0    0 -0.16582036657E-01  0.13863587427E+00  0.24376748041E-01  0.89134117790E+00  0.88000000000E+00 0. -1.
        -11    1    4    4    0    0  0.66758467422E-02 -0.52672836011E-01 -0.16963584938E-01  0.55740639735E-01  0.51100000000E-03 0. -1.
         11    1    4    4    0    0  0.25074601593E-01 -0.70511897043E-01 -0.41806635434E-02  0.74956002684E-01  0.51100000000E-03 0.  1.
</event>
<event>
 8    1  0.1123285E+005  0.1043930E+01  0.7957747E-01            NaN
         13   -1    0    0    0    0  0.00000000000E+00  0.00000000000E+00  0.74505805969E-08  0.10566000000E+00  0.10566000000E+00 0.  1.
     999900   -1    0    0    0    0 -0.00000000000E+00 -0.00000000000E+00 -0.74505805969E-08  0.93827000000E+00  0.93827000000E+00 0.  1.
     999902    2    1    2    0    0 -0.16642554985E-01  0.17017193602E-01  0.38127079953E-02  0.10198240618E+01  0.10195391217E+01 0.  0.
     999903    2    3    3    0    0  0.66849162585E-01  0.55519564132E-01 -0.94852896215E-01  0.12954983388E+00  0.15324979526E-01 0.  0.
         14    1    1    2    0    0  0.16642554985E-01 -0.17017193602E-01 -0.38127079953E-02  0.24105938206E-01  0.00000000000E+00 0. -1.
     999901    1    3    3    0    0 -0.83491717571E-01 -0.38502370530E-01  0.98665604210E-01  0.89027422792E+00  0.88000000000E+00 0. -1.
        -11    1    4    4    0    0  0.74224833799E-02  0.12605674275E-01 -0.12029095935E-01  0.18946148777E-01  0.51100000000E-03 0.  1.
         11    1    4    4    0    0  0.59426679205E-01  0.42913889857E-01 -0.82823800279E-01  0.11060368510E+00  0.51100000000E-03 0. -1.
</event>
<event>
 8    1  0.1123285E+005  0.1043930E+01  0.7957747E-01            NaN
         13   -1    0    0    0    0  0.00000000000E+00  0.00000000000E+00  0.74505805969E-08  0.10566000000E+00  0.10566000000E+00 0. -1.
     999900   -1    0    0    0    0 -0.00000000000E+00 -0.00000000000E+00 -0.74505805969E-08  0.93827000000E+00  0.93827000000E+00 0. -1.
     999902    2    1    2    0    0 -0.90918745414E-02  0.57428220343E-02  0.21041778300E-01  0.10202995404E+01  0.10200258592E+01 0.  0.
     999903    2    3    3    0    0 -0.55882635448E-01 -0.11607901399E+00  0.67659090293E-02  0.13056152530E+00  0.20083025942E-01 0.  0.
         14    1    1    2    0    0  0.90918745414E-02 -0.57428220343E-02 -0.21041778300E-01  0.23630459615E-01  0.00000000000E+00 0.  1.
     999901    1    3    3    0    0  0.46790760907E-01  0.12182183602E+00  0.14275869271E-01  0.88973801508E+00  0.88000000000E+00 0.  1.
        -11    1    4    4    0    0 -0.42524572659E-01 -0.87037151949E-01  0.13734319821E-01  0.97840164356E-01  0.51100000000E-03 0. -1.
         11    1    4    4    0    0 -0.13358062789E-01 -0.29041862041E-01 -0.69684107917E-02  0.32721360947E-01  0.51100000000E-03 0.  1.
</event>
<event>
 8    1  0.1123285E+005  0.1043930E+01  0.7957747E-01            NaN
         13   -1    0    0    0    0  0.00000000000E+00  0.00000000000E+00  0.74505805969E-08  0.10566000000E+00  0.10566000000E+00 0. -1.
     999900   -1    0    0    0    0 -0.00000000000E+00 -0.00000000000E+00 -0.74505805969E-08  0.93827000000E+00  0.93827000000E+00 0. -1.
     999902    2    1    2    0    0 -0.64987197832E-02  0.11061332937E-01 -0.18867657684E-01  0.10211138883E+01  0.10208589511E+01 0.  0.
     999903    2    3    3    0    0 -0.72350366035E-01  0.22051406993E-01 -0.10883837048E+00  0.13401076569E+00  0.19805413784E-01 0.  0.
         14    1    1    2    0    0  0.64987197832E-02 -0.11061332937E-01  0.18867657684E-01  0.22816111667E-01  0.00000000000E+00 0. -1.
     999901    1    3    3    0    0  0.65851646252E-01 -0.10990074056E-01  0.89970712801E-01  0.88710312264E+00  0.88000000000E+00 0.  1.
        -11    1    4    4    0    0 -0.52668606323E-01  0.24927360927E-01 -0.79904510915E-01  0.98895638935E-01  0.51100000000E-03 0.  1.
         11    1    4    4    0    0 -0.19681759712E-01 -0.28759539339E-02 -0.28933859569E-01  0.35115126754E-01  0.51100000000E-03 0. -1.
</event>
<event>
 8    1  0.1123285E+005  0.1043930E+01  0.7957747E-01            NaN
         13   -1    0    0    0    0  0.00000000000E+00  0.00000000000E+00  0.74505805969E-08  0.10566000000E+00  0.10566000000E+00 0. -1.
     999900   -1    0    0    0    0 -0.00000000000E+00 -0.00000000000E+00 -0.74505805969E-08  0.93827000000E+00  0.93827000000E+00 0. -1.
     999902    2    1    2    0    0 -0.18163286804E-01 -0.47444943052E-02 -0.14187641225E-01  0.10203990761E+01  0.10201277225E+01 0.  0.
     999903    2    3    3    0    0  0.45273168626E-01 -0.17420998979E-01 -0.12081948591E+00  0.13160482102E+00  0.19217953487E-01 0.  0.
         14    1    1    2    0    0  0.18163286804E-01  0.47444943052E-02  0.14187641225E-01  0.23530923851E-01  0.00000000000E+00 0. -1.
     999901    1    3    3    0    0 -0.63436455430E-01  0.12676504673E-01  0.10663184469E+00  0.88879425513E+00  0.88000000000E+00 0.  1.
        -11    1    4    4    0    0  0.40196049839E-01 -0.92693716678E-02 -0.84486418118E-01  0.94020527765E-01  0.51100000000E-03 0. -1.
         11    1    4    4    0    0  0.50771187873E-02 -0.81516273109E-02 -0.36333067797E-01  0.37584293255E-01  0.51100000000E-03 0.  1.
</event>
<event>
 8    1  0.1123285E+005  0.1043930E+01  0.7957747E-01            NaN
         13   -1    0    0    0    0  0.00000000000E+00  0.00000000000E+00  0.74505805969E-08  0.10566000000E+00  0.10566000000E+00 0.  1.
     999900   -1    0    0    0    0 -0.00000000000E+00 -0.00000000000E+00 -0.74505805969E-08  0.93827000000E+00  0.93827000000E+00 0.  1.
     999902    2    1    2    0    0 -0.13840273453E-01 -0.17463531287E-01  0.73774303773E-02  0.10204575785E+01  0.10201875881E+01 0.  0.
     999903    2    3    3    0    0  0.27949729698E-01 -0.72433589442E-01 -0.10342803050E+00  0.13082509152E+00  0.19749298912E-01 0.  0.
         14    1    1    2    0    0  0.13840273453E-01  0.17463531287E-01 -0.73774303773E-02  0.23472421546E-01  0.00000000000E+00 0. -1.
     999901    1    3    3    0    0 -0.41790003150E-01  0.54970058155E-01  0.11080546088E+00  0.88963248694E+00  0.88000000000E+00 0. -1.
        -11    1    4    4    0    0  0.14918867191E-01 -0.16614679601E-01 -0.35511738247E-01  0.41951935007E-01  0.51100000000E-03 0.  1.
         11    1    4    4    0    0  0.13030862506E-01 -0.55818909841E-01 -0.67916292251E-01  0.88873156508E-01  0.51100000000E-03 0. -1.
</event>
<event>
 8    1  0.1123285E+005  0.1043930E+01  0.7957747E-01            NaN
         13   -1    0    0    0    0  0.00000000000E+00  0.00000000000E+00  0.74505805969E-08  0.10566000000E+00  0.10566000000E+00 0. -1.
     999900   -1    0    0    0    0 -0.00000000000E+00 -0.00000000000E+00 -0.74505805969E-08  0.93827000000E+00  0.93827000000E+00 0. -1.
     999902    2    1    2    0    0 -0.23077329293E-01 -0.12594796756E-01 -0.73925679344E-02  0.10166198903E+01  0.10162529996E+01 0.  0.
     999903    2    3    3    0    0  0.92500678548E-01  0.49570380633E-01 -0.65159781305E-01  0.12501468834E+00  0.19216582229E-01 0.  0.
         14    1    1    2    0    0  0.23077329293E-01  0.12594796756E-01  0.73925679344E-02  0.27310109727E-01  0.00000000000E+00 0. -1.
     999901    1    3    3    0    0 -0.11557800784E+00 -0.62165177390E-01  0.57767213371E-01  0.89160520193E+00  0.88000000000E+00 0. -1.
        -11    1    4    4    0    0  0.10079991978E-01  0.99504398177E-02 -0.15297829561E-01  0.20854308934E-01  0.51100000000E-03 0.  1.
         11    1    4    4    0    0  0.82420686570E-01  0.39619940816E-01 -0.49861951744E-01  0.10416037940E+00  0.51100000000E-03 0. -1.
</event>
<event>
 8    1  0.1123285E+005  0.1043930E+01  0.7957747E-01            NaN
         13   -1    0    0    0    0  0.00000000000E+00  0.00000000000E+00  0.74505805969E-08  0.10566000000E+00  0.10566000000E+00 0.  1.
     999900   -1    0    0    0    0 -0.00000000000E+00 -0.00000000000E+00 -0.74505805969E-08  0.93827000000E+00  0.93827000000E+00 0.  1.
     999902    2    1    2    0    0 -0.22988047327E-01  0.60113336638E-02  0.66432249940E-02  0.10192577709E+01  0.10189591182E+01 0.  0.
     999903    2    3    3    0    0  0.11356614439E+00 -0.46648037433E-01  0.27772989470E-01  0.12692009734E+00  0.16250034398E-01 0.  0.
         14    1    1    2    0    0  0.22988047327E-01 -0.60113336638E-02 -0.66432249940E-02  0.24672229138E-01  0.00000000000E+00 0. -1.
     999901    1    3    3    0    0 -0.13655419171E+00  0.52659371097E-01 -0.21129764476E-01  0.89233767352E+00  0.88000000000E+00 0.  1.
        -11    1    4    4    0    0  0.51974998867E-01 -0.17201187608E-01  0.51162086227E-02  0.54988344893E-01  0.51100000000E-03 0.  1.
         11    1    4    4    0    0  0.61591145518E-01 -0.29446849825E-01  0.22656780848E-01  0.71931752448E-01  0.51100000000E-03 0. -1.
</event>
<event>
 8    1  0.1123285E+005  0.1043930E+01  0.7957747E-01            NaN
         13   -1    0    0    0    0  0.00000000000E+00  0.00000000000E+00  0.74505805969E-08  0.10566000000E+00  0.10566000000E+00 0.  1.
     999900   -1    0    0    0    0 -0.00000000000E+00 -0.00000000000E+00 -0.74505805969E-08  0.93827000000E+00  0.93827000000E+00 0. -1.
     999902    2    1    2    0    0  0.20603901472E-01 -0.19581302867E-02  0.90241954588E-02  0.10213514453E+01  0.10211018478E+01 0.  0.
     999903    2    3    3    0    0 -0.89887658800E-01 -0.59237899739E-01 -0.68375359108E-01  0.12923035039E+00  0.20889561002E-01 0.  0.
         14    1    1    2    0    0 -0.20603901472E-01  0.19581302867E-02 -0.90241954588E-02  0.22578554732E-01  0.00000000000E+00 0.  1.
     999901    1    3    3    0    0  0.11049156027E+00  0.57279769452E-01  0.77399554566E-01  0.89212109488E+00  0.88000000000E+00 0.  1.
        -11    1    4    4    0    0 -0.67408026301E-02 -0.87300524045E-02 -0.13826908884E-01  0.17694540553E-01  0.51100000000E-03 0. -1.
         11    1    4    4    0    0 -0.83146856170E-01 -0.50507847334E-01 -0.54548450223E-01  0.11153580984E+00  0.51100000000E-03 0.  1.
</event>
<event>
 8    1  0.1123285E+005  0.1043930E+01  0.7957747E-01            NaN
         13   -1    0    0    0    0  0.00000000000E+00  0.00000000000E+00  0.74505805969E-08  0.10566000000E+00  0.10566000000E+00 0. -1.
     999900   -1    0    0    0    0 -0.00000000000E+00 -0.00000000000E+00 -0.74505805969E-08  0.93827000000E+00  0.93827000000E+00 0. -1.
     999902    2    1    2    0    0 -0.37601069181E-02  0.31072245351E-02 -0.22850276807E-01  0.10205648893E+01  0.10202973904E+01 0.  0.
     999903    2    3    3    0    0  0.13109606073E-01 -0.97571967859E-01 -0.86877452686E-01  0.13235299664E+00  0.16657528349E-01 0.  0.
         14    1    1    2    0    0  0.37601069181E-02 -0.31072245351E-02  0.22850276807E-01  0.23365110710E-01  0.00000000000E+00 0. -1.
     999901    1    3    3    0    0 -0.16869712991E-01  0.10067919239E+00  0.64027175879E-01  0.88821189265E+00  0.88000000000E+00 0. -1.
        -11    1    4    4    0    0 -0.21443199050E-02 -0.21232851058E-01 -0.25238542234E-01  0.33055668303E-01  0.51100000000E-03 0.  1.
         11    1    4    4    0    0  0.15253925978E-01 -0.76339116801E-01 -0.61638910452E-01  0.99297328335E-01  0.51100000000E-03 0. -1.
</event>
<event>
 8    1  0.1123285E+005  0.1043930E+01  0.7957747E-01            NaN
         13   -1    0    0    0    0  0.00000000000E+00  0.00000000000E+00  0.74505805969E-08  0.10566000000E+00  0.10566000000E+00 0.  1.
     999900   -1    0    0    0    0 -0.00000000000E+00 -0.00000000000E+00 -0.74505805969E-08  0.93827000000E+00  0.93827000000E+00 0. -1.
     999902    2    1    2    0    0 -0.23074969064E-01 -0.33467247637E-02  0.88349028177E-02  0.10189958814E+01  0.10186907754E+01 0.  0.
     999903    2    3    3    0    0  0.85301891073E-01 -0.25334862417E-01  0.90312760838E-01  0.12834013230E+00  0.19912983550E-01 0.  0.
         14    1    1    2    0    0  0.23074969064E-01  0.33467247637E-02 -0.88349028177E-02  0.24934118628E-01  0.00000000000E+00 0. -1.
     999901    1    3    3    0    0 -0.10837686014E+00  0.21988137653E-01 -0.81477858020E-01  0.89065574907E+00  0.88000000000E+00 0. -1.
        -11    1    4    4    0    0  0.28287421788E-01 -0.16515699487E-01  0.25107950682E-01  0.41274893936E-01  0.51100000000E-03 0. -1.
         11    1    4    4    0    0  0.57014469286E-01 -0.88191629293E-02  0.65204810155E-01  0.87065238363E-01  0.51100000000E-03 0.  1.
</event>
<event>
 8    1  0.1123285E+005  0.1043930E+01  0.7957747E-01            NaN
         13   -1    0    0    0    0  0.00000000000E+00  0.00000000000E+00  0.74505805969E-08  0.10566000000E+00  0.10566000000E+00 0. -1.
     999900   -1    0    0    0    0 -0.00000000000E+00 -0.00000000000E+00 -0.74505805969E-08  0.93827000000E+00  0.93827000000E+00 0.  1.
     999902    2    1    2    0    0  0.58249935530E-02 -0.20346867764E-01  0.15184376719E-01  0.10178821426E+01  0.10175488025E+01 0.  0.
     999903    2    3    3    0    0 -0.27401335571E-01  0.50570452080E-01  0.11450405235E+00  0.12883903165E+00  0.13420665258E-01 0.  0.
         14    1    1    2    0    0 -0.58249935530E-02  0.20346867764E-01 -0.15184376719E-01  0.26047857379E-01  0.00000000000E+00 0.  1.
     999901    1    3    3    0    0  0.33226329124E-01 -0.70917319843E-01 -0.99319675634E-01  0.88904311097E+00  0.88000000000E+00 0.  1.
        -11    1    4    4    0    0 -0.18489365935E-01  0.25066277684E-01  0.72303007014E-01  0.78728399412E-01  0.51100000000E-03 0.  1.
         11    1    4    4    0    0 -0.89119696363E-02  0.25504174395E-01  0.42201045339E-01  0.50110632236E-01  0.51100000000E-03 0. -1.
</event>
<event>
 8    1  0.1123285E+005  0.1043930E+01  0.7957747E-01            NaN
         13   -1    0    0    0    0  0.00000000000E+00  0.00000000000E+00  0.74505805969E-08  0.10566000000E+00  0.10566000000E+00 0.  1.
     999900   -1    0    0    0    0 -0.00000000000E+00 -0.00000000000E+00 -0.74505805969E-08  0.93827000000E+00  0.93827000000E+00 0.  1.
     999902    2    1    2    0    0 -0.64454030964E-02 -0.19523178068E-01  0.12040087648E-01  0.10201043539E+01  0.10198260790E+01 0.  0.
     999903    2    3    3    0    0 -0.36608463747E-02  0.47859870302E-01 -0.11713525903E+00  0.12812089037E+00  0.19756635828E-01 0.  0.
         14    1    1    2    0    0  0.64454030964E-02  0.19523178068E-01 -0.12040087648E-01  0.23825646130E-01  0.00000000000E+00 0. -1.
     999901    1    3    3    0    0 -0.27845567217E-02 -0.67383048370E-01  0.12917534668E+00  0.89198346350E+00  0.88000000000E+00 0. -1.
        -11    1    4    4    0    0 -0.39540908940E-02  0.21831098050E-01 -0.30915911126E-01  0.38056357663E-01  0.51100000000E-03 0.  1.
         11    1    4    4    0    0  0.29324451931E-03  0.26028772252E-01 -0.86219347908E-01  0.90064532708E-01  0.51100000000E-03 0. -1.
</event>
<event>
 8    1  0.1123285E+005  0.1043930E+01  0.7957747E-01            NaN
         13   -1    0    0    0    0  0.00000000000E+00  0.00000000000E+00  0.74505805969E-08  0.10566000000E+00  0.10566000000E+00 0. -1.
     999900   -1    0    0    0    0 -0.00000000000E+00 -0.00000000000E+00 -0.74505805969E-08  0.93827000000E+00  0.93827000000E+00 0. -1.
     999902    2    1    2    0    0 -0.19913903575E-01  0.72587542520E-02 -0.52866700944E-02  0.10220850475E+01  0.10218515755E+01 0.  0.
     999903    2    3    3    0    0  0.63110358129E-01  0.13050601111E-01 -0.11296740134E+00  0.13162353042E+00  0.20245604524E-01 0.  0.
         14    1    1    2    0    0  0.19913903575E-01 -0.72587542520E-02  0.52866700944E-02  0.21844952497E-01  0.00000000000E+00 0.  1.
     999901    1    3    3    0    0 -0.83024261704E-01 -0.57918468589E-02  0.10768073125E+00  0.89046151708E+00  0.88000000000E+00 0.  1.
        -11    1    4    4    0    0  0.21325586376E-01 -0.50776177546E-02 -0.39608701939E-01  0.45273316938E-01  0.51100000000E-03 0.  1.
         11    1    4    4    0    0  0.41784771753E-01  0.18128218865E-01 -0.73358699402E-01  0.86350213483E-01  0.51100000000E-03 0. -1.
</event>
<event>
 8    1  0.1123285E+005  0.1043930E+01  0.7957747E-01            NaN
         13   -1    0    0    0    0  0.00000000000E+00  0.00000000000E+00  0.74505805969E-08  0.10566000000E+00  0.10566000000E+00 0.  1.
     999900   -1    0    0    0    0 -0.00000000000E+00 -0.00000000000E+00 -0.74505805969E-08  0.93827000000E+00  0.93827000000E+00 0. -1.
     999902    2    1    2    0    0 -0.86381916118E-02  0.17595294773E-02 -0.21886086385E-01  0.10203351896E+01  0.10200623433E+01 0.  0.
     999903    2    3    3    0    0  0.22130009518E-01 -0.38648139040E-01  0.11806518437E+00  0.12782982829E+00  0.20436762645E-01 0.  0.
         14    1    1    2    0    0  0.86381916118E-02 -0.17595294773E-02  0.21886086385E-01  0.23594810352E-01  0.00000000000E+00 0.  1.
     999901    1    3    3    0    0 -0.30768201130E-01  0.40407668518E-01 -0.13995127075E+00  0.89250536136E+00  0.88000000000E+00 0. -1.
        -11    1    4    4    0    0  0.23942214538E-01 -0.35239639204E-01  0.11564745561E+00  0.12324632618E+00  0.51100000000E-03 0.  1.
         11    1    4    4    0    0 -0.18122050201E-02 -0.34084998360E-02  0.24177287593E-02  0.45835021021E-02  0.51100000000E-03 0. -1.
</event>
<event>
 8    1  0.1123285E+005  0.1043930E+01  0.7957747E-01            NaN
         13   -1    0    0    0    0  0.00000000000E+00  0.00000000000E+00  0.74505805969E-08  0.10566000000E+00  0.10566000000E+00 0. -1.
     999900   -1    0    0    0    0 -0.00000000000E+00 -0.00000000000E+00 -0.74505805969E-08  0.93827000000E+00  0.93827000000E+00 0.  1.
     999902    2    1    2    0    0  0.24608523919E-01  0.12412282570E-01  0.72311841417E-02  0.10154355403E+01  0.10150356655E+01 0.  0.
     999903    2    3    3    0    0 -0.22625407846E-01  0.36182211747E-01  0.11774962097E+00  0.12694784839E+00  0.20729723683E-01 0.  0.
         14    1    1    2    0    0 -0.24608523919E-01 -0.12412282570E-01 -0.72311841417E-02  0.28494459675E-01  0.00000000000E+00 0. -1.
     999901    1    3    3    0    0  0.47233931765E-01 -0.23769929177E-01 -0.11051843683E+00  0.88848769194E+00  0.88000000000E+00 0.  1.
        -11    1    4    4    0    0 -0.51743433539E-02  0.11927766015E-01  0.65283852608E-01  0.66567919929E-01  0.51100000000E-03 0. -1.
         11    1    4    4    0    0 -0.17451064492E-01  0.24254445732E-01  0.52465768365E-01  0.60379928460E-01  0.51100000000E-03 0.  1.
</event>
<event>
 8    1  0.1123285E+005  0.1043930E+01  0.7957747E-01            NaN
         13   -1    0    0    0    0  0.00000000000E+00  0.00000000000E+00  0.74505805969E-08  0.10566000000E+00  0.10566000000E+00 0. -1.
     999900   -1    0    0    0    0 -0.00000000000E+00 -0.00000000000E+00 -0.74505805969E-08  0.93827000000E+00  0.93827000000E+00 0. -1.
     999902    2    1    2    0    0  0.74947206525E-02 -0.19958395608E-01  0.11272582375E-01  0.10198140404E+01  0.10195288606E+01 0.  0.
     999903    2    3    3    0    0 -0.38564874226E-01 -0.11905725961E+00  0.38841075517E-01  0.13262629651E+00  0.20474979587E-01 0.  0.
         14    1    1    2    0    0 -0.74947206525E-02  0.19958395608E-01 -0.11272582375E-01  0.24115959577E-01  0.00000000000E+00 0.  1.
     999901    1    3    3    0    0  0.46059594879E-01  0.99098864006E-01 -0.27568493142E-01  0.88718774391E+00  0.88000000000E+00 0. -1.
        -11    1    4    4    0    0 -0.99260068431E-02 -0.22914369574E-01  0.16241214846E-01  0.29793155682E-01  0.51100000000E-03 0. -1.
         11    1    4    4    0    0 -0.28638867383E-01 -0.96142890039E-01  0.22599860671E-01  0.10283314083E+00  0.51100000000E-03 0.  1.
</event>
<event>
 8    1  0.1123285E+005  0.1043930E+01  0.7957747E-01            NaN
         13   -1    0    0    0    0  0.00000000000E+00  0.00000000000E+00  0.74505805969E-08  0.10566000000E+00  0.10566000000E+00 0. -1.
     999900   -1    0    0    0    0 -0.00000000000E+00 -0.00000000000E+00 -0.74505805969E-08  0.93827000000E+00  0.93827000000E+00 0.  1.
     999902    2    1    2    0    0  0.15335651860E-01 -0.12841029623E-01 -0.58300167517E-02  0.10230958128E+01  0.10228836585E+01 0.  0.
     999903    2    3    3    0    0  0.13658946014E-02 -0.11592906175E+00  0.64462640161E-01  0.13418448199E+00  0.20214603684E-01 0.  0.
         14    1    1    2    0    0 -0.15335651860E-01  0.12841029623E-01  0.58300167517E-02  0.20834187171E-01  0.00000000000E+00 0. -1.
     999901    1    3    3    0    0  0.13969757259E-01  0.10308803213E+00 -0.70292656913E-01  0.88891133084E+00  0.88000000000E+00 0.  1.
        -11    1    4    4    0    0  0.23592329943E-02 -0.89262648481E-02  0.11588745317E-01  0.14825799253E-01  0.51100000000E-03 0.  1.
         11    1    4    4    0    0 -0.99333839292E-03 -0.10700279691E+00  0.52873894844E-01  0.11935868273E+00  0.51100000000E-03 0. -1.
</event>
<event>
 8    1  0.1123285E+005  0.1043930E+01  0.7957747E-01            NaN
         13   -1    0    0    0    0  0.00000000000E+00  0.00000000000E+00  0.74505805969E-08  0.10566000000E+00  0.10566000000E+00 0. -1.
     999900   -1    0    0    0    0 -0.00000000000E+00 -0.00000000000E+00 -0.74505805969E-08  0.93827000000E+00  0.93827000000E+00 0.  1.
     999902    2    1    2    0    0 -0.91851964826E-02 -0.16681149192E-01  0.13323281111E-01  0.10206891224E+01  0.10204244931E+01 0.  0.
     999903    2    3    3    0    0  0.60775225069E-01 -0.69631272865E-01  0.93122879238E-01  0.13273295678E+00  0.20100373970E-01 0.  0.
         14    1    1    2    0    0  0.91851964826E-02  0.16681149192E-01 -0.13323281111E-01  0.23240877616E-01  0.00000000000E+00 0.  1.
     999901    1    3    3    0    0 -0.69960421552E-01  0.52950123673E-01 -0.79799598127E-01  0.88795616561E+00  0.88000000000E+00 0.  1.
        -11    1    4    4    0    0  0.31311048537E-01 -0.26471827925E-01  0.30131566848E-01  0.50885281526E-01  0.51100000000E-03 0.  1.
         11    1    4    4    0    0  0.29464176532E-01 -0.43159444940E-01  0.62991312390E-01  0.81847675250E-01  0.51100000000E-03 0. -1.
</event>
<event>
 8    1  0.1123285E+005  0.1043930E+01  0.7957747E-01            NaN
         13   -1    0    0    0    0  0.00000000000E+00  0.00000000000E+00  0.74505805969E-08  0.10566000000E+00  0.10566000000E+00 0.  1.
     999900   -1    0    0    0    0 -0.00000000000E+00 -0.00000000000E+00 -0.74505805969E-08  0.93827000000E+00  0.93827000000E+00 0.  1.
     999902    2    1    2    0    0 -0.16294528107E-01  0.53212073289E-03  0.16943763796E-01  0.10204164735E+01  0.10201455256E+01 0.  0.
     999903    2    3    3    0    0 -0.12582236879E+00  0.32493416560E-01 -0.15942224520E-01  0.13244160865E+00  0.19988360881E-01 0.  0.
         14    1    1    2    0    0  0.16294528107E-01 -0.53212073289E-03 -0.16943763796E-01  0.23513526538E-01  0.00000000000E+00 0.  1.
     999901    1    3    3    0    0  0.10952784068E+00 -0.31961295827E-01  0.32885988315E-01  0.88797486481E+00  0.88000000000E+00 0. -1.
        -11    1    4    4    0    0 -0.87901987718E-01  0.29196882081E-01 -0.17838526140E-01  0.94327575522E-01  0.51100000000E-03 0. -1.
         11    1    4    4    0    0 -0.37920381072E-01  0.32965344789E-02  0.18963016202E-02  0.38114033125E-01  0.51100000000E-03 0.  1.
</event>
<event>
 8    1  0.1123285E+005  0.1043930E+01  0.7957747E-01            NaN
         13   -1    0    0    0    0  0.00000000000E+00  0.00000000000E+00  0.74505805969E-08  0.10566000000E+00  0.10566000000E+00 0. -1.
     999900   -1    0    0    0    0 -0.00000000000E+00 -0.00000000000E+00 -0.74505805969E-08  0.93827000000E+00  0.93827000000E+00 0.  1.
     999902    2    1    2    0    0  0.10776463622E-01 -0.12932446025E-01 -0.12495860014E-01  0.10229651044E+01  0.10227502520E+01 0.  0.
     999903    2    3    3    0    0  0.10431509960E+00  0.42570707441E-01 -0.69838535798E-01  0.13441670456E+00  0.22282824005E-01 0.  0.
         14    1    1    2    0    0 -0.10776463622E-01  0.12932446025E-01  0.12495860014E-01  0.20964895561E-01  0.00000000000E+00 0. -1.
     999901    1    3    3    0    0 -0.93538635977E-01 -0.55503153466E-01  0.57342675783E-01  0.88854839988E+00  0.88000000000E+00 0. -1.
        -11    1    4    4    0    0  0.67738218324E-01  0.38774468583E-01 -0.46289575918E-01  0.90746413677E-01  0.51100000000E-03 0.  1.
         11    1    4    4    0    0  0.36576881274E-01  0.37962388587E-02 -0.23548959879E-01  0.43670290881E-01  0.51100000000E-03 0. -1.
</event>
<event>
 8    1  0.1123285E+005  0.1043930E+01  0.7957747E-01            NaN
         13   -1    0    0    0    0  0.00000000000E+00  0.00000000000E+00  0.74505805969E-08  0.10566000000E+00  0.10566000000E+00 0.  1.
     999900   -1    0    0    0    0 -0.00000000000E+00 -0.00000000000E+00 -0.74505805969E-08  0.93827000000E+00  0.93827000000E+00 0.  1.
     999902    2    1    2    0    0  0.39882797162E-02 -0.22211199116E-01 -0.30802274918E-02  0.10211543212E+01  0.10209002969E+01 0.  0.
     999903    2    3    3    0    0  0.98404943577E-01  0.37588183055E-01  0.74590824354E-01  0.13069193304E+00  0.20498435486E-01 0.  0.
         14    1    1    2    0    0 -0.39882797162E-02  0.22211199116E-01  0.30802274918E-02  0.22775678753E-01  0.00000000000E+00 0.  1.
     999901    1    3    3    0    0 -0.94416663860E-01 -0.59799382171E-01 -0.77671051846E-01  0.89046238821E+00  0.88000000000E+00 0.  1.
        -11    1    4    4    0    0  0.49608014491E-01  0.28597895623E-01  0.45779874167E-01  0.73313387151E-01  0.51100000000E-03 0. -1.
         11    1    4    4    0    0  0.48796929085E-01  0.89902874326E-02  0.28810950187E-01  0.57378545886E-01  0.51100000000E-03 0.  1.
</event>
<event>
 8    1  0.1123285E+005  0.1043930E+01  0.7957747E-01            NaN
         13   -1    0    0    0    0  0.00000000000E+00  0.00000000000E+00  0.74505805969E-08  0.10566000000E+00  0.10566000000E+00 0. -1.
     999900   -1    0    0    0    0 -0.00000000000E+00 -0.00000000000E+00 -0.74505805969E-08  0.93827000000E+00  0.93827000000E+00 0.  1.
     999902    2    1    2    0    0  0.32471072866E-02 -0.15469649566E-01 -0.17532693626E-01  0.10203238756E+01  0.10200507644E+01 0.  0.
     999903    2    3    3    0    0  0.81677332261E-01 -0.10198220285E+00 -0.11376139767E-01  0.13258876577E+00  0.19462989212E-01 0.  0.
         14    1    1    2    0    0 -0.32471072866E-02  0.15469649566E-01  0.17532693626E-01  0.23606124401E-01  0.00000000000E+00 0. -1.
     999901    1    3    3    0    0 -0.78430224975E-01  0.86512553285E-01 -0.61565538593E-02  0.88773510983E+00  0.88000000000E+00 0.  1.
        -11    1    4    4    0    0  0.13750225630E-01 -0.22355517733E-01  0.47855165912E-02  0.26683331276E-01  0.51100000000E-03 0.  1.
         11    1    4    4    0    0  0.67927106631E-01 -0.79626685119E-01 -0.16161656358E-01  0.10590543449E+00  0.51100000000E-03 0. -1.
</event>
<event>
 8    1  0.1123285E+005  0.1043930E+01  0.7957747E-01            NaN
         13   -1    0    0    0    0  0.00000000000E+00  0.00000000000E+00  0.74505805969E-08  0.10566000000E+00  0.10566000000E+00 0.  1.
     999900   -1    0    0    0    0 -0.00000000000E+00 -0.00000000000E+00 -0.74505805969E-08  0.93827000000E+00  0.93827000000E+00 0.  1.
     999902    2    1    2    0    0  0.13154461484E-01 -0.13495042211E-01  0.12061818653E-01  0.10215549360E+01  0.10213098666E+01 0.  0.
     999903    2    3    3    0    0 -0.64365540179E-01  0.43601205246E-01  0.10423549818E+00  0.13151824047E+00  0.19698239396E-01 0.  0.
         14    1    1    2    0    0 -0.13154461484E-01  0.13495042211E-01 -0.12061818653E-01  0.22375064033E-01  0.00000000000E+00 0. -1.
     999901    1    3    3    0    0  0.77520001664E-01 -0.57096247458E-01 -0.92173679523E-01  0.89003669550E+00  0.88000000000E+00 0.  1.
        -11    1    4    4    0    0 -0.59823059387E-01  0.37758939040E-01  0.10126190488E+00  0.12352639561E+00  0.51100000000E-03 0. -1.
         11    1    4    4    0    0 -0.45424807922E-02  0.58422662066E-02  0.29735932953E-02  0.79918448597E-02  0.51100000000E-03 0.  1.
</event>
<event>
 8    1  0.1123285E+005  0.1043930E+01  0.7957747E-01            NaN
         13   -1    0    0    0    0  0.00000000000E+00  0.00000000000E+00  0.74505805969E-08  0.10566000000E+00  0.10566000000E+00 0. -1.
     999900   -1    0    0    0    0 -0.00000000000E+00 -0.00000000000E+00 -0.74505805969E-08  0.93827000000E+00  0.93827000000E+00 0.  1.
     999902    2    1    2    0    0 -0.71056376764E-02  0.15353244737E-01 -0.15634211515E-01  0.10208943585E+01  0.10206344352E+01 0.  0.
     999903    2    3    3    0    0  0.89479711910E-01  0.46370886307E-01  0.79690969128E-01  0.12995232113E+00  0.19495570426E-01 0.  0.
         14    1    1    2    0    0  0.71056376764E-02 -0.15353244737E-01  0.15634211515E-01  0.23035641525E-01  0.00000000000E+00 0.  1.
     999901    1    3    3    0    0 -0.96585349587E-01 -0.31017641569E-01 -0.95325180643E-01  0.89094203734E+00  0.88000000000E+00 0.  1.
        -11    1    4    4    0    0  0.75189015863E-01  0.30818961454E-01  0.66881904460E-01  0.10524564959E+00  0.51100000000E-03 0. -1.
         11    1    4    4    0    0  0.14290696047E-01  0.15551924853E-01  0.12809064668E-01  0.24706671544E-01  0.51100000000E-03 0.  1.
</event>
<event>
 8    1  0.1123285E+005  0.1043930E+01  0.7957747E-01            NaN
         13   -1    0    0    0    0  0.00000000000E+00  0.00000000000E+00  0.74505805969E-08  0.10566000000E+00  0.10566000000E+00 0.  1.
     999900   -1    0    0    0    0 -0.00000000000E+00 -0.00000000000E+00 -0.74505805969E-08  0.93827000000E+00  0.93827000000E+00 0.  1.
     999902    2    1    2    0    0  0.14071173956E-01 -0.14082359313E-01 -0.12653461140E-01  0.10203414252E+01  0.10200687247E+01 0.  0.
     999903    2    3    3    0    0 -0.10981261381E+00  0.16142145667E-01  0.60817985647E-01  0.12812017069E+00  0.19914109114E-01 0.  0.
         14    1    1    2    0    0 -0.14071173956E-01  0.14082359313E-01  0.12653461140E-01  0.23588574758E-01  0.00000000000E+00 0. -1.
     999901    1    3    3    0    0  0.12388378777E+00 -0.30224504979E-01 -0.73471446787E-01  0.89222125455E+00  0.88000000000E+00 0.  1.
        -11    1    4    4    0    0 -0.70805587372E-01  0.17893320172E-01  0.32809803293E-01  0.80064639030E-01  0.51100000000E-03 0.  1.
         11    1    4    4    0    0 -0.39007026440E-01 -0.17511745052E-02  0.28008182354E-01  0.48055531665E-01  0.51100000000E-03 0. -1.
</event>
<event>
 8    1  0.1123285E+005  0.1043930E+01  0.7957747E-01            NaN
         13   -1    0    0    0    0  0.00000000000E+00  0.00000000000E+00  0.74505805969E-08  0.10566000000E+00  0.10566000000E+00 0. -1.
     999900   -1    0    0    0    0 -0.00000000000E+00 -0.00000000000E+00 -0.74505805969E-08  0.93827000000E+00  0.93827000000E+00 0.  1.
     999902    2    1    2    0    0  0.18179436771E-01  0.35366256947E-02  0.14281059806E-01  0.10205430739E+01  0.10202750695E+01 0.  0.
     999903    2    3    3    0    0 -0.91201433131E-01 -0.87066800180E-01 -0.18302658901E-01  0.12855941139E+00  0.17152429435E-01 0.  0.
         14    1    1    2    0    0 -0.18179436771E-01 -0.35366256947E-02 -0.14281059806E-01  0.23386926087E-01  0.00000000000E+00 0. -1.
     999901    1    3    3    0    0  0.10938086990E+00  0.90603425875E-01  0.32583718707E-01  0.89198366252E+00  0.88000000000E+00 0. -1.
        -11    1    4    4    0    0 -0.35895034990E-01 -0.44493185035E-01 -0.12513928890E-01  0.58523128665E-01  0.51100000000E-03 0.  1.
         11    1    4    4    0    0 -0.55306398142E-01 -0.42573615145E-01 -0.57887300110E-02  0.70036282726E-01  0.51100000000E-03 0. -1.
</event>
<event>
 8    1  0.1123285E+005  0.1043930E+01  0.7957747E-01            NaN
         13   -1    0    0    0    0  0.00000000000E+00  0.00000000000E+00  0.74505805969E-08  0.10566000000E+00  0.10566000000E+00 0.  1.
     999900   -1    0    0    0    0 -0.00000000000E+00 -0.00000000000E+00 -0.74505805969E-08  0.93827000000E+00  0.93827000000E+00 0. -1.
     999902    2    1    2    0    0 -0.23196581568E-01 -0.43123319939E-02  0.18791972927E-02  0.10202612656E+01  0.10199866868E+01 0.  0.
     999903    2    3    3    0    0 -0.25513224558E-01 -0.81026621227E-01  0.98600172650E-01  0.13164132659E+00  0.19778949532E-01 0.  0.
         14    1    1    2    0    0  0.23196581568E-01  0.43123319939E-02 -0.18791972927E-02  0.23668734358E-01  0.00000000000E+00 0. -1.
     999901    1    3    3    0    0  0.23166429903E-02  0.76714289233E-01 -0.96720975358E-01  0.88861993905E+00  0.88000000000E+00 0. -1.
        -11    1    4    4    0    0 -0.11356406001E-01 -0.64196836403E-01  0.72287828229E-01  0.97344712196E-01  0.51100000000E-03 0.  1.
         11    1    4    4    0    0 -0.14156818557E-01 -0.16829784824E-01  0.26312344421E-01  0.34296614393E-01  0.51100000000E-03 0. -1.
</event>
<event>
 8    1  0.1123285E+005  0.1043930E+01  0.7957747E-01            NaN
         13   -1    0    0    0    0  0.00000000000E+00  0.00000000000E+00  0.74505805969E-08  0.10566000000E+00  0.10566000000E+00 0. -1.
     999900   -1    0    0    0    0 -0.00000000000E+00 -0.00000000000E+00 -0.74505805969E-08  0.93827000000E+00  0.93827000000E+00 0. -1.
     999902    2    1    2    0    0  0.11418880172E-01  0.10225679882E-01 -0.19700532615E-01  0.10189687032E+01  0.10186629235E+01 0.  0.
     999903    2    3    3    0    0 -0.44825602030E-01 -0.42084432956E-01 -0.11343823630E+00  0.13066326766E+00  0.20596649418E-01 0.  0.
         14    1    1    2    0    0 -0.11418880172E-01 -0.10225679882E-01  0.19700532615E-01  0.24961296817E-01  0.00000000000E+00 0. -1.
     999901    1    3    3    0    0  0.56244482202E-01  0.52310112838E-01  0.93737703684E-01  0.88830543552E+00  0.88000000000E+00 0. -1.
        -11    1    4    4    0    0 -0.56330063284E-02 -0.15673017767E-01 -0.39982323669E-01  0.43315373404E-01  0.51100000000E-03 0. -1.
         11    1    4    4    0    0 -0.39192595701E-01 -0.26411415189E-01 -0.73455912630E-01  0.87347894259E-01  0.51100000000E-03 0.  1.
</event>
<event>
 8    1  0.1123285E+005  0.1043930E+01  0.7957747E-01            NaN
         13   -1    0    0    0    0  0.00000000000E+00  0.00000000000E+00  0.74505805969E-08  0.10566000000E+00  0.10566000000E+00 0. -1.
     999900   -1    0    0    0    0 -0.00000000000E+00 -0.00000000000E+00 -0.74505805969E-08  0.93827000000E+00  0.93827000000E+00 0. -1.
     999902    2    1    2    0    0  0.19668903452E-01 -0.99545407919E-02  0.30186014197E-02  0.10216798180E+01  0.10214375066E+01 0.  0.
     999903    2    3    3    0    0 -0.72240491593E-01  0.63555129177E-01  0.84562369251E-01  0.13010795069E+00  0.22789064668E-01 0.  0.
         14    1    1    2    0    0 -0.19668903452E-01  0.99545407919E-02 -0.30186014197E-02  0.22250182019E-01  0.00000000000E+00 0.  1.
     999901    1    3    3    0    0  0.91909395044E-01 -0.73509669969E-01 -0.81543767832E-01  0.89157186729E+00  0.88000000000E+00 0.  1.
        -11    1    4    4    0    0 -0.32300836518E-01  0.23976097384E-01  0.49719407868E-01  0.63956844241E-01  0.51100000000E-03 0.  1.
         11    1    4    4    0    0 -0.39939655074E-01  0.39579031792E-01  0.34842961384E-01  0.66151106446E-01  0.51100000000E-03 0. -1.
</event>
<event>
 8    1  0.1123285E+005  0.1043930E+01  0.7957747E-01            NaN
         13   -1    0    0    0    0  0.00000000000E+00  0.00000000000E+00  0.74505805969E-08  0.10566000000E+00  0.10566000000E+00 0.  1.
     999900   -1    0    0    0    0 -0.00000000000E+00 -0.00000000000E+00 -0.74505805969E-08  0.93827000000E+00  0.93827000000E+00 0.  1.
     999902    2    1    2    0    0  0.94561235978E-02 -0.20645066381E-01  0.12277540629E-01  0.10181157589E+01  0.10177884473E+01 0.  0.
     999903    2    3    3    0    0  0.75266988495E-01  0.30188044309E-01 -0.93266187549E-01  0.12791659375E+00  0.32979321418E-01 0.  0.
         14    1    1    2    0    0 -0.94561235978E-02  0.20645066381E-01 -0.12277540629E-01  0.25814241094E-01  0.00000000000E+00 0. -1.
     999901    1    3    3    0    0 -0.65810864897E-01 -0.50833110690E-01  0.10554372818E+00  0.89019916515E+00  0.88000000000E+00 0.  1.
        -11    1    4    4    0    0  0.28220809933E-01  0.20897055464E-01 -0.20190163306E-01  0.40509318134E-01  0.51100000000E-03 0.  1.
         11    1    4    4    0    0  0.47046178562E-01  0.92909888449E-02 -0.73076024243E-01  0.87407275619E-01  0.51100000000E-03 0. -1.
</event>
<event>
 8    1  0.1123285E+005  0.1043930E+01  0.7957747E-01            NaN
         13   -1    0    0    0    0  0.00000000000E+00  0.00000000000E+00  0.74505805969E-08  0.10566000000E+00  0.10566000000E+00 0. -1.
     999900   -1    0    0    0    0 -0.00000000000E+00 -0.00000000000E+00 -0.74505805969E-08  0.93827000000E+00  0.93827000000E+00 0.  1.
     999902    2    1    2    0    0 -0.71329340230E-02 -0.24713445155E-01 -0.87692861788E-02  0.10167540272E+01  0.10163907803E+01 0.  0.
     999903    2    3    3    0    0 -0.21033177296E-01 -0.11818988906E+00  0.45791339720E-01  0.13001397269E+00  0.19888234638E-01 0.  0.
         14    1    1    2    0    0  0.71329340230E-02  0.24713445155E-01  0.87692861788E-02  0.27175972830E-01  0.00000000000E+00 0. -1.
     999901    1    3    3    0    0  0.13900243273E-01  0.93476443905E-01 -0.54560625899E-01  0.88674005448E+00  0.88000000000E+00 0. -1.
        -11    1    4    4    0    0 -0.24487130402E-02 -0.38520821395E-01  0.60880945531E-02  0.39079097901E-01  0.51100000000E-03 0. -1.
         11    1    4    4    0    0 -0.18584464256E-01 -0.79669067665E-01  0.39703245167E-01  0.90934874784E-01  0.51100000000E-03 0.  1.
</event>
<event>
 8    1  0.1123285E+005  0.1043930E+01  0.7957747E-01            NaN
         13   -1    0    0    0    0  0.00000000000E+00  0.00000000000E+00  0.74505805969E-08  0.10566000000E+00  0.10566000000E+00 0. -1.
     999900   -1    0    0    0    0 -0.00000000000E+00 -0.00000000000E+00 -0.74505805969E-08  0.93827000000E+00  0.93827000000E+00 0. -1.
     999902    2    1    2    0    0 -0.21903229004E-01 -0.75336551331E-02  0.63250768445E-02  0.10199192941E+01  0.10196366277E+01 0.  0.
     999903    2    3    3    0    0  0.11983519253E+00 -0.36997154036E-01 -0.12362458931E-01  0.12789513417E+00  0.21796150544E-01 0.  0.
         14    1    1    2    0    0  0.21903229004E-01  0.75336551331E-02 -0.63250768445E-02  0.24010705895E-01  0.00000000000E+00 0.  1.
     999901    1    3    3    0    0 -0.14173842154E+00  0.29463498903E-01  0.18687535775E-01  0.89202415993E+00  0.88000000000E+00 0.  1.
        -11    1    4    4    0    0  0.78556575049E-01 -0.31768467899E-01 -0.93824421043E-03  0.84743804844E-01  0.51100000000E-03 0.  1.
         11    1    4    4    0    0  0.41278617483E-01 -0.52286861368E-02 -0.11424214720E-01  0.43151329331E-01  0.51100000000E-03 0. -1.
</event>
<event>
 8    1  0.1123285E+005  0.1043930E+01  0.7957747E-01            NaN
         13   -1    0    0    0    0  0.00000000000E+00  0.00000000000E+00  0.74505805969E-08  0.10566000000E+00  0.10566000000E+00 0. -1.
     999900   -1    0    0    0    0 -0.00000000000E+00 -0.00000000000E+00 -0.74505805969E-08  0.93827000000E+00  0.93827000000E+00 0. -1.
     999902    2    1    2    0    0  0.10055611749E-01 -0.40587012097E-02  0.21829209645E-01  0.10195557764E+01  0.10192643810E+01 0.  0.
     999903    2    3    3    0    0 -0.15073175674E-02  0.50883546379E-01 -0.11481237446E+00  0.12724233683E+00  0.20428501037E-01 0.  0.
         14    1    1    2    0    0 -0.10055611749E-01  0.40587012097E-02 -0.21829209645E-01  0.24374223616E-01  0.00000000000E+00 0.  1.
     999901    1    3    3    0    0  0.11562929316E-01 -0.54942247588E-01  0.13664158410E+00  0.89231343956E+00  0.88000000000E+00 0.  1.
        -11    1    4    4    0    0  0.88691885565E-02  0.24393320790E-01 -0.46814096317E-01  0.53530527176E-01  0.51100000000E-03 0. -1.
         11    1    4    4    0    0 -0.10376506124E-01  0.26490225589E-01 -0.67998278141E-01  0.73711809653E-01  0.51100000000E-03 0.  1.
</event>
<event>
 8    1  0.1123285E+005  0.1043930E+01  0.7957747E-01            NaN
         13   -1    0    0    0    0  0.00000000000E+00  0.00000000000E+00  0.74505805969E-08  0.10566000000E+00  0.10566000000E+00 0.  1.
     999900   -1    0    0    0    0 -0.00000000000E+00 -0.00000000000E+00 -0.74505805969E-08  0.93827000000E+00  0.93827000000E+00 0. -1.
     999902    2    1    2    0    0  0.15800713773E-01  0.11855183230E-01 -0.67804837976E-02  0.10230450081E+01  0.10228318072E+01 0.  0.
     999903    2    3    3    0    0  0.12240608281E+00 -0.46163332863E-01  0.21470300167E-01  0.13426553057E+00  0.21259268585E-01 0.  0.
         14    1    1    2    0    0 -0.15800713773E-01 -0.11855183230E-01  0.67804837976E-02  0.20884991876E-01  0.00000000000E+00 0. -1.
     999901    1    3    3    0    0 -0.10660536904E+00  0.58018516092E-01 -0.28250783964E-01  0.88877947755E+00  0.88000000000E+00 0.  1.
        -11    1    4    4    0    0  0.64709236803E-01 -0.24935521590E-01  0.63941029310E-03  0.69352256856E-01  0.51100000000E-03 0.  1.
         11    1    4    4    0    0  0.57696846010E-01 -0.21227811273E-01  0.20830889873E-01  0.64913273718E-01  0.51100000000E-03 0. -1.
</event>
<event>
 8    1  0.1123285E+005  0.1043930E+01  0.7957747E-01            NaN
         13   -1    0    0    0    0  0.00000000000E+00  0.00000000000E+00  0.74505805969E-08  0.10566000000E+00  0.10566000000E+00 0. -1.
     999900   -1    0    0    0    0 -0.00000000000E+00 -0.00000000000E+00 -0.74505805969E-08  0.93827000000E+00  0.93827000000E+00 0. -1.
     999902    2    1    2    0    0  0.23848006633E-01  0.14973732769E-02  0.48025874332E-02  0.10195571792E+01  0.10192658178E+01 0.  0.
     999903    2    3    3    0    0  0.11785359268E+00 -0.52886694664E-01  0.22724105998E-01  0.13269988636E+00  0.20159441126E-01 0.  0.
         14    1    1    2    0    0 -0.23848006633E-01 -0.14973732769E-02 -0.48025874332E-02  0.24372820788E-01  0.00000000000E+00 0.  1.
     999901    1    3    3    0    0 -0.94005586048E-01  0.54384067940E-01 -0.17921518565E-01  0.88685729285E+00  0.88000000000E+00 0.  1.
        -11    1    4    4    0    0  0.96172900697E-01 -0.35207919918E-01  0.21768195369E-01  0.10470405868E+00  0.51100000000E-03 0.  1.
         11    1    4    4    0    0  0.21680691984E-01 -0.17678774746E-01  0.95591062964E-03  0.27995827681E-01  0.51100000000E-03 0. -1.
</event>
<event>
 7    1  0.1123285E+005  0.1043930E+01  0.7957747E-01            NaN
         13   -1    0    0    0    0  0.00000000000E+00  0.00000000000E+00  0.74505805969E-08  0.10566000000E+00  0.10566000000E+00 0. -1.
     999900   -1    0    0    0    0 -0.00000000000E+00 -0.00000000000E+00 -0.74505805969E-08  0.93827000000E+00  0.93827000000E+00 0.  1.
     999902    2    1    2    0    0 -0.33129585883E-01 -0.21265022570E-02 -0.14076584694E-01  0.10078711355E+01  0.10072258853E+01 0.  0.
         14    1    1    2    0    0  0.33129585883E-01  0.21265022570E-02  0.14076584694E-01  0.36058864503E-01  0.00000000000E+00 0. -1.
     999901    1    3    3    0    0  0.26578956745E-01  0.46800708789E-01 -0.49003631194E-01  0.88300515466E+00  0.88000000000E+00 0.  1.
        -11    1    3    3    0    0 -0.29978470609E-01 -0.56191634880E-01 -0.15798690261E-01  0.65620639021E-01  0.51100000000E-03 0. -1.
         11    1    3    3    0    0 -0.29730072020E-01  0.72644238349E-02  0.50725736762E-01  0.59245341817E-01  0.51100000000E-03 0.  1.
</event>
<event>
 8    1  0.1123285E+005  0.1043930E+01  0.7957747E-01            NaN
         13   -1    0    0    0    0  0.00000000000E+00  0.00000000000E+00  0.74505805969E-08  0.10566000000E+00  0.10566000000E+00 0. -1.
     999900   -1    0    0    0    0 -0.00000000000E+00 -0.00000000000E+00 -0.74505805969E-08  0.93827000000E+00  0.93827000000E+00 0.  1.
     999902    2    1    2    0    0 -0.20570613163E-01 -0.18368142439E-02 -0.92047818047E-02  0.10213191172E+01  0.10210687965E+01 0.  0.
     999903    2    3    3    0    0  0.43065152518E-01  0.73236248746E-01  0.95863920821E-01  0.12962135018E+00  0.19840554801E-01 0.  0.
         14    1    1    2    0    0  0.20570613163E-01  0.18368142439E-02  0.92047818047E-02  0.22610882790E-01  0.00000000000E+00 0. -1.
     999901    1    3    3    0    0 -0.63635765681E-01 -0.75073062989E-01 -0.10506870263E+00  0.89169776703E+00  0.88000000000E+00 0. -1.
        -11    1    4    4    0    0  0.51062071568E-02  0.25245568399E-01  0.33387643024E-01  0.42171173840E-01  0.51100000000E-03 0. -1.
         11    1    4    4    0    0  0.37958945361E-01  0.47990680347E-01  0.62476277797E-01  0.87450176337E-01  0.51100000000E-03 0.  1.
</event>
<event>
 8    1  0.1123285E+005  0.1043930E+01  0.7957747E-01            NaN
         13   -1    0    0    0    0  0.00000000000E+00  0.00000000000E+00  0.74505805969E-08  0.10566000000E+00  0.10566000000E+00 0. -1.
     999900   -1    0    0    0    0 -0.00000000000E+00 -0.00000000000E+00 -0.74505805969E-08  0.93827000000E+00  0.93827000000E+00 0.  1.
     999902    2    1    2    0    0 -0.52838024897E-02 -0.14666172401E-01  0.18035556818E-01  0.10200910300E+01  0.10198124401E+01 0.  0.
     999903    2    3    3    0    0  0.21162381958E-01  0.63382513927E-01  0.11261218710E+00  0.13119523345E+00  0.80929051532E-02 0.  0.
         14    1    1    2    0    0  0.52838024897E-02  0.14666172401E-01 -0.18035556818E-01  0.23838970015E-01  0.00000000000E+00 0.  1.
     999901    1    3    3    0    0 -0.26446184448E-01 -0.78048686328E-01 -0.94576630281E-01  0.88889579654E+00  0.88000000000E+00 0. -1.
        -11    1    4    4    0    0  0.12252093897E-01  0.44297673368E-01  0.71510720690E-01  0.85008481726E-01  0.51100000000E-03 0. -1.
         11    1    4    4    0    0  0.89102880607E-02  0.19084840559E-01  0.41101466409E-01  0.46186751720E-01  0.51100000000E-03 0.  1.
</event>
<event>
 8    1  0.1123285E+005  0.1043930E+01  0.7957747E-01            NaN
         13   -1    0    0    0    0  0.00000000000E+00  0.00000000000E+00  0.74505805969E-08  0.10566000000E+00  0.10566000000E+00 0.  1.
     999900   -1    0    0    0    0 -0.00000000000E+00 -0.00000000000E+00 -0.74505805969E-08  0.93827000000E+00  0.93827000000E+00 0.  1.
     999902    2    1    2    0    0  0.17537828947E-01  0.76770049643E-02 -0.12898350583E-01  0.10208458215E+01  0.10205847892E+01 0.  0.
     999903    2    3    3    0    0 -0.61164777183E-01 -0.19137732851E-01 -0.11289735801E+00  0.13128810450E+00  0.19579840426E-01 0.  0.
         14    1    1    2    0    0 -0.17537828947E-01 -0.76770049643E-02  0.12898350583E-01  0.23084178503E-01  0.00000000000E+00 0. -1.
     999901    1    3    3    0    0  0.78702606130E-01  0.26814737815E-01  0.99999007430E-01  0.88955771699E+00  0.88000000000E+00 0. -1.
        -11    1    4    4    0    0 -0.38352043140E-01 -0.17779281931E-01 -0.57574752888E-01  0.71428953304E-01  0.51100000000E-03 0.  1.
         11    1    4    4    0    0 -0.22812734043E-01 -0.13584509198E-02 -0.55322605125E-01  0.59859151199E-01  0.51100000000E-03 0. -1.
</event>
<event>
 8    1  0.1123285E+005  0.1043930E+01  0.7957747E-01            NaN
         13   -1    0    0    0    0  0.00000000000E+00  0.00000000000E+00  0.74505805969E-08  0.10566000000E+00  0.10566000000E+00 0.  1.
     999900   -1    0    0    0    0 -0.00000000000E+00 -0.00000000000E+00 -0.74505805969E-08  0.93827000000E+00  0.93827000000E+00 0.  1.
     999902    2    1    2    0    0 -0.18023059618E-01  0.16645291675E-01 -0.82053979748E-03  0.10193827049E+01  0.10190871058E+01 0.  0.
     999903    2    3    3    0    0 -0.72411771444E-01  0.10852880788E+00 -0.14583759536E-01  0.13282185600E+00  0.20174057701E-01 0.  0.
         14    1    1    2    0    0  0.18023059618E-01 -0.16645291675E-01  0.82053979748E-03  0.24547295136E-01  0.00000000000E+00 0. -1.
     999901    1    3    3    0    0  0.54388711826E-01 -0.91883516208E-01  0.13763219739E-01  0.88656084887E+00  0.88000000000E+00 0.  1.
        -11    1    4    4    0    0 -0.59089019876E-01  0.89329025325E-01 -0.19679786478E-01  0.10889785192E+00  0.51100000000E-03 0.  1.
         11    1    4    4    0    0 -0.13322751568E-01  0.19199782558E-01  0.50960269412E-02  0.23924004080E-01  0.51100000000E-03 0. -1.
</event>
<event>
 8    1  0.1123285E+005  0.1043930E+01  0.7957747E-01            NaN
         13   -1    0    0    0    0  0.00000000000E+00  0.00000000000E+00  0.74505805969E-08  0.10566000000E+00  0.10566000000E+00 0.  1.
     999900   -1    0    0    0    0 -0.00000000000E+00 -0.00000000000E+00 -0.74505805969E-08  0.93827000000E+00  0.93827000000E+00 0. -1.
     999902    2    1    2    0    0 -0.19932803756E-01 -0.57515549328E-03  0.12905262449E-01  0.10201772471E+01  0.10199006924E+01 0.  0.
     999903    2    3    3    0    0 -0.34153365419E-01  0.83964656353E-01 -0.87826092513E-01  0.13029185563E+00  0.32342375155E-01 0.  0.
         14    1    1    2    0    0  0.19932803756E-01  0.57515549328E-03 -0.12905262449E-01  0.23752752857E-01  0.00000000000E+00 0. -1.
     999901    1    3    3    0    0  0.14220561663E-01 -0.84539811846E-01  0.10073135496E+00  0.88988539152E+00  0.88000000000E+00 0.  1.
        -11    1    4    4    0    0  0.62888678601E-02  0.10678593018E-01 -0.13722298200E-01  0.18497156449E-01  0.51100000000E-03 0. -1.
         11    1    4    4    0    0 -0.40442233279E-01  0.73286063335E-01 -0.74103794313E-01  0.11179469918E+00  0.51100000000E-03 0.  1.
</event>
<event>
 8    1  0.1123285E+005  0.1043930E+01  0.7957747E-01            NaN
         13   -1    0    0    0    0  0.00000000000E+00  0.00000000000E+00  0.74505805969E-08  0.10566000000E+00  0.10566000000E+00 0. -1.
     999900   -1    0    0    0    0 -0.00000000000E+00 -0.00000000000E+00 -0.74505805969E-08  0.93827000000E+00  0.93827000000E+00 0. -1.
     999902    2    1    2    0    0  0.62118327853E-02  0.20639262329E-01 -0.97165470121E-02  0.10202872992E+01  0.10200133311E+01 0.  0.
     999903    2    3    3    0    0  0.64826400804E-01 -0.87294088705E-01 -0.67685146827E-01  0.12986850198E+00  0.21490196408E-01 0.  0.
         14    1    1    2    0    0 -0.62118327853E-02 -0.20639262329E-01  0.97165470121E-02  0.23642700816E-01  0.00000000000E+00 0. -1.
     999901    1    3    3    0    0 -0.58614568018E-01  0.10793335103E+00  0.57968599815E-01  0.89041879720E+00  0.88000000000E+00 0.  1.
        -11    1    4    4    0    0  0.55668478581E-01 -0.60033527551E-01 -0.53452327409E-01  0.97777381659E-01  0.51100000000E-03 0. -1.
         11    1    4    4    0    0  0.91579222225E-02 -0.27260561154E-01 -0.14232819418E-01  0.32091120321E-01  0.51100000000E-03 0.  1.
</event>
<event>
 7    1  0.1637151E+005  0.1043930E+01  0.7957747E-01            NaN
         13   -1    0    0    0    0  0.00000000000E+00  0.00000000000E+00  0.74505805969E-08  0.10566000000E+00  0.10566000000E+00 0. -1.
     999900   -1    0    0    0    0 -0.00000000000E+00 -0.00000000000E+00 -0.74505805969E-08  0.93827000000E+00  0.93827000000E+00 0. -1.
     999903    2    1    2    0    0  0.87525365947E-02  0.16084297643E-01 -0.82498830850E-01  0.86969069105E-01  0.20548731393E-01 0.  0.
         14    1    1    2    0    0 -0.25287388279E-01 -0.43941298498E-01 -0.44245988455E-01  0.67290394664E-01  0.00000000000E+00 0.  1.
     999901    1    1    2    0    0  0.16534851685E-01  0.27857000855E-01  0.12674481931E+00  0.88967053623E+00  0.88000000000E+00 0.  1.
        -11    1    3    3    0    0  0.11073464010E-01  0.10684713888E-01 -0.26404702819E-01  0.30565571613E-01  0.51100000000E-03 0.  1.
         11    1    3    3    0    0 -0.23209274156E-02  0.53995837547E-02 -0.56094128031E-01  0.56403497492E-01  0.51100000000E-03 0. -1.
</event>
<event>
 8    1  0.1123285E+005  0.1043930E+01  0.7957747E-01            NaN
         13   -1    0    0    0    0  0.00000000000E+00  0.00000000000E+00  0.74505805969E-08  0.10566000000E+00  0.10566000000E+00 0.  1.
     999900   -1    0    0    0    0 -0.00000000000E+00 -0.00000000000E+00 -0.74505805969E-08  0.93827000000E+00  0.93827000000E+00 0. -1.
     999902    2    1    2    0    0  0.21084287399E-01 -0.22269683063E-02 -0.10579780783E-01  0.10202353102E+01  0.10199601217E+01 0.  0.
     999903    2    3    3    0    0 -0.11027864534E-01 -0.10581710682E-01 -0.12912534000E+00  0.13166677507E+00  0.20717138564E-01 0.  0.
         14    1    1    2    0    0 -0.21084287399E-01  0.22269683063E-02  0.10579780783E-01  0.23694689793E-01  0.00000000000E+00 0. -1.
     999901    1    3    3    0    0  0.32112151933E-01  0.83547423755E-02  0.11854555922E+00  0.88856853514E+00  0.88000000000E+00 0.  1.
        -11    1    4    4    0    0 -0.13549272414E-01 -0.52713183909E-02 -0.44111837881E-01  0.46448734566E-01  0.51100000000E-03 0. -1.
         11    1    4    4    0    0  0.25214078795E-02 -0.53103922909E-02 -0.85013502120E-01  0.85218040506E-01  0.51100000000E-03 0.  1.
</event>
<event>
 8    1  0.1123285E+005  0.1043930E+01  0.7957747E-01            NaN
         13   -1    0    0    0    0  0.00000000000E+00  0.00000000000E+00  0.74505805969E-08  0.10566000000E+00  0.10566000000E+00 0. -1.
     999900   -1    0    0    0    0 -0.00000000000E+00 -0.00000000000E+00 -0.74505805969E-08  0.93827000000E+00  0.93827000000E+00 0.  1.
     999902    2    1    2    0    0  0.34526277097E-02 -0.15831134308E-01 -0.17548994584E-01  0.10200445931E+01  0.10197649039E+01 0.  0.
     999903    2    3    3    0    0 -0.86876722963E-01  0.90819274308E-01  0.16916266992E-01  0.12834870576E+00  0.19786980641E-01 0.  0.
         14    1    1    2    0    0 -0.34526277097E-02  0.15831134308E-01  0.17548994584E-01  0.23885406895E-01  0.00000000000E+00 0. -1.
     999901    1    3    3    0    0  0.90329350673E-01 -0.10665040862E+00 -0.34465261576E-01  0.89169588734E+00  0.88000000000E+00 0.  1.
        -11    1    4    4    0    0 -0.47628592343E-01  0.49690155987E-01  0.19167416670E-01  0.71450999946E-01  0.51100000000E-03 0.  1.
         11    1    4    4    0    0 -0.39248130620E-01  0.41129118322E-01 -0.22511496781E-02  0.56897705815E-01  0.51100000000E-03 0. -1.
</event>
<event>
 8    1  0.1123285E+005  0.1043930E+01  0.7957747E-01            NaN
         13   -1    0    0    0    0  0.00000000000E+00  0.00000000000E+00  0.74505805969E-08  0.10566000000E+00  0.10566000000E+00 0.  1.
     999900   -1    0    0    0    0 -0.00000000000E+00 -0.00000000000E+00 -0.74505805969E-08  0.93827000000E+00  0.93827000000E+00 0. -1.
     999902    2    1    2    0    0  0.19586294492E-02 -0.21399152651E-01  0.83382513181E-02  0.10208803493E+01  0.10206201062E+01 0.  0.
     999903    2    3    3    0    0  0.12300249275E+00 -0.38791540019E-01 -0.19414932187E-01  0.13199095729E+00  0.20255281180E-01 0.  0.
         14    1    1    2    0    0 -0.19586294492E-02  0.21399152651E-01 -0.83382513181E-02  0.23049650725E-01  0.00000000000E+00 0. -1.
     999901    1    3    3    0    0 -0.12104386330E+00  0.17392387368E-01  0.27753183505E-01  0.88888939198E+00  0.88000000000E+00 0.  1.
        -11    1    4    4    0    0  0.45070507518E-01 -0.22079525693E-01 -0.13975415687E-01  0.52100186827E-01  0.51100000000E-03 0. -1.
         11    1    4    4    0    0  0.77931985232E-01 -0.16712014327E-01 -0.54395165003E-02  0.79890770467E-01  0.51100000000E-03 0.  1.
</event>
<event>
 8    1  0.1123285E+005  0.1043930E+01  0.7957747E-01            NaN
         13   -1    0    0    0    0  0.00000000000E+00  0.00000000000E+00  0.74505805969E-08  0.10566000000E+00  0.10566000000E+00 0. -1.
     999900   -1    0    0    0    0 -0.00000000000E+00 -0.00000000000E+00 -0.74505805969E-08  0.93827000000E+00  0.93827000000E+00 0.  1.
     999902    2    1    2    0    0  0.12551010886E-01  0.20128946429E-01 -0.45368971839E-02  0.10197786896E+01  0.10194926630E+01 0.  0.
     999903    2    3    3    0    0  0.17018314448E-01  0.98062168643E-01 -0.85802631071E-01  0.13259344206E+00  0.17695124555E-01 0.  0.
         14    1    1    2    0    0 -0.12551010886E-01 -0.20128946429E-01  0.45368971839E-02  0.24151310413E-01  0.00000000000E+00 0. -1.
     999901    1    3    3    0    0 -0.44673035619E-02 -0.77933222214E-01  0.81265733887E-01  0.88718524753E+00  0.88000000000E+00 0. -1.
        -11    1    4    4    0    0  0.16534992215E-01  0.61731067268E-01 -0.46291862951E-01  0.78913423003E-01  0.51100000000E-03 0. -1.
         11    1    4    4    0    0  0.48332223219E-03  0.36331101375E-01 -0.39510768120E-01  0.53680019057E-01  0.51100000000E-03 0.  1.
</event>
<event>
 8    1  0.1123285E+005  0.1043930E+01  0.7957747E-01            NaN
         13   -1    0    0    0    0  0.00000000000E+00  0.00000000000E+00  0.74505805969E-08  0.10566000000E+00  0.10566000000E+00 0.  1.
     999900   -1    0    0    0    0 -0.00000000000E+00 -0.00000000000E+00 -0.74505805969E-08  0.93827000000E+00  0.93827000000E+00 0. -1.
     999902    2    1    2    0    0  0.44400086907E-02  0.24690124730E-01 -0.23125995868E-02  0.10187374604E+01  0.10184259173E+01 0.  0.
     999903    2    3    3    0    0 -0.72547874674E-01 -0.40035971730E-01 -0.95899218860E-01  0.12807756060E+00  0.18469656167E-01 0.  0.
         14    1    1    2    0    0 -0.44400086907E-02 -0.24690124730E-01  0.23125995868E-02  0.25192539634E-01  0.00000000000E+00 0. -1.
     999901    1    3    3    0    0  0.76987883364E-01  0.64726096459E-01  0.93586619273E-01  0.89065989977E+00  0.88000000000E+00 0.  1.
        -11    1    4    4    0    0 -0.25336358537E-01 -0.22914884651E-01 -0.45796645259E-01  0.57136825607E-01  0.51100000000E-03 0.  1.
         11    1    4    4    0    0 -0.47211516137E-01 -0.17121087079E-01 -0.50102573601E-01  0.70940734991E-01  0.51100000000E-03 0. -1.
</event>
<event>
 8    1  0.1123285E+005  0.1043930E+01  0.7957747E-01            NaN
         13   -1    0    0    0    0  0.00000000000E+00  0.00000000000E+00  0.74505805969E-08  0.10566000000E+00  0.10566000000E+00 0.  1.
     999900   -1    0    0    0    0 -0.00000000000E+00 -0.00000000000E+00 -0.74505805969E-08  0.93827000000E+00  0.93827000000E+00 0. -1.
     999902    2    1    2    0    0  0.34170070852E-02 -0.23033959765E-01  0.22837872993E-02  0.10205322453E+01  0.10202639898E+01 0.  0.
     999903    2    3    3    0    0 -0.95098085688E-01 -0.45783406969E-02 -0.86880764840E-01  0.13036588404E+00  0.19554777381E-01 0.  0.
         14    1    1    2    0    0 -0.34170070852E-02  0.23033959765E-01 -0.22837872993E-02  0.23397754685E-01  0.00000000000E+00 0.  1.
     999901    1    3    3    0    0  0.98515092773E-01 -0.18455619068E-01  0.89164552139E-01  0.89016636127E+00  0.88000000000E+00 0.  1.
        -11    1    4    4    0    0 -0.50498264175E-01 -0.79326179041E-02 -0.57047811128E-01  0.76601011658E-01  0.51100000000E-03 0. -1.
         11    1    4    4    0    0 -0.44599821513E-01  0.33542772072E-02 -0.29832953712E-01  0.53764872387E-01  0.51100000000E-03 0.  1.
</event>
<event>
 8    1  0.1123285E+005  0.1043930E+01  0.7957747E-01            NaN
         13   -1    0    0    0    0  0.00000000000E+00  0.00000000000E+00  0.74505805969E-08  0.10566000000E+00  0.10566000000E+00 0. -1.
     999900   -1    0    0    0    0 -0.00000000000E+00 -0.00000000000E+00 -0.74505805969E-08  0.93827000000E+00  0.93827000000E+00 0.  1.
     999902    2    1    2    0    0  0.89544746573E-02  0.20363645223E-01 -0.23576699077E-02  0.10215599470E+01  0.10213149887E+01 0.  0.
     999903    2    3    3    0    0  0.58266667495E-01  0.73386916247E-01 -0.93494592801E-01  0.13389497736E+00  0.20148996569E-01 0.  0.
         14    1    1    2    0    0 -0.89544746573E-02 -0.20363645223E-01  0.23576699077E-02  0.22370052985E-01  0.00000000000E+00 0.  1.
     999901    1    3    3    0    0 -0.49312192838E-01 -0.53023271023E-01  0.91136922893E-01  0.88766496965E+00  0.88000000000E+00 0.  1.
        -11    1    4    4    0    0  0.86708563635E-02  0.19300080179E-01 -0.12417924052E-01  0.24538598244E-01  0.51100000000E-03 0.  1.
         11    1    4    4    0    0  0.49595811132E-01  0.54086836067E-01 -0.81076668749E-01  0.10935637912E+00  0.51100000000E-03 0. -1.
</event>
<event>
 8    1  0.1123285E+005  0.1043930E+01  0.7957747E-01            NaN
         13   -1    0    0    0    0  0.00000000000E+00  0.00000000000E+00  0.74505805969E-08  0.10566000000E+00  0.10566000000E+00 0. -1.
     999900   -1    0    0    0    0 -0.00000000000E+00 -0.00000000000E+00 -0.74505805969E-08  0.93827000000E+00  0.93827000000E+00 0.  1.
     999902    2    1    2    0    0 -0.52021966929E-02 -0.53323420125E-02  0.22484647393E-01  0.10202433774E+01  0.10199683785E+01 0.  0.
     999903    2    3    3    0    0  0.11268479295E+00 -0.60985450477E-01  0.16425295255E-01  0.13061911595E+00  0.19351366792E-01 0.  0.
         14    1    1    2    0    0  0.52021966929E-02  0.53323420125E-02 -0.22484647393E-01  0.23686622599E-01  0.00000000000E+00 0.  1.
     999901    1    3    3    0    0 -0.11788698964E+00  0.55653108464E-01  0.60593521376E-02  0.88962426145E+00  0.88000000000E+00 0. -1.
        -11    1    4    4    0    0  0.46686046443E-01 -0.15377097257E-01  0.97706689180E-02  0.50117553258E-01  0.51100000000E-03 0.  1.
         11    1    4    4    0    0  0.65998746505E-01 -0.45608353220E-01  0.66546263370E-02  0.80501562695E-01  0.51100000000E-03 0. -1.
</event>
<event>
 8    1  0.1123285E+005  0.1043930E+01  0.7957747E-01            NaN
         13   -1    0    0    0    0  0.00000000000E+00  0.00000000000E+00  0.74505805969E-08  0.10566000000E+00  0.10566000000E+00 0.  1.
     999900   -1    0    0    0    0 -0.00000000000E+00 -0.00000000000E+00 -0.74505805969E-08  0.93827000000E+00  0.93827000000E+00 0.  1.
     999902    2    1    2    0    0  0.23038232441E-01 -0.14255737215E-02  0.85154263590E-02  0.10193270550E+01  0.10190300978E+01 0.  0.
     999903    2    3    3    0    0  0.76988508643E-02  0.11654758119E+00 -0.51856166235E-01  0.12927217410E+00  0.19483891615E-01 0.  0.
         14    1    1    2    0    0 -0.23038232441E-01  0.14255737215E-02 -0.85154263590E-02  0.24602944956E-01  0.00000000000E+00 0. -1.
     999901    1    3    3    0    0  0.15339381577E-01 -0.11797315491E+00  0.60371592594E-01  0.89005488095E+00  0.88000000000E+00 0. -1.
        -11    1    4    4    0    0  0.13335698614E-01  0.10025209372E+00 -0.45293712464E-01  0.11081563366E+00  0.51100000000E-03 0.  1.
         11    1    4    4    0    0 -0.56368477500E-02  0.16295487471E-01 -0.65624537710E-02  0.18456540439E-01  0.51100000000E-03 0. -1.
</event>
<event>
 8    1  0.1123285E+005  0.1043930E+01  0.7957747E-01            NaN
         13   -1    0    0    0    0  0.00000000000E+00  0.00000000000E+00  0.74505805969E-08  0.10566000000E+00  0.10566000000E+00 0.  1.
     999900   -1    0    0    0    0 -0.00000000000E+00 -0.00000000000E+00 -0.74505805969E-08  0.93827000000E+00  0.93827000000E+00 0.  1.
     999902    2    1    2    0    0  0.22525714492E-01  0.55035498064E-02 -0.39590743790E-02  0.10204061580E+01  0.10201349695E+01 0.  0.
     999903    2    3    3    0    0  0.71472231706E-01  0.54199573018E-01 -0.94928574602E-01  0.13302658068E+00  0.25273766459E-01 0.  0.
         14    1    1    2    0    0 -0.22525714492E-01 -0.55035498064E-02  0.39590743790E-02  0.23523842028E-01  0.00000000000E+00 0.  1.
     999901    1    3    3    0    0 -0.48946517215E-01 -0.48696023211E-01  0.90969500223E-01  0.88737957729E+00  0.88000000000E+00 0. -1.
        -11    1    4    4    0    0  0.36631106944E-01  0.12192497659E-01 -0.39864253210E-01  0.55496980099E-01  0.51100000000E-03 0.  1.
         11    1    4    4    0    0  0.34841124763E-01  0.42007075359E-01 -0.55064321392E-01  0.77529600581E-01  0.51100000000E-03 0. -1.
</event>
<event>
 8    1  0.1123285E+005  0.1043930E+01  0.7957747E-01            NaN
         13   -1    0    0    0    0  0.00000000000E+00  0.00000000000E+00  0.74505805969E-08  0.10566000000E+00  0.10566000000E+00 0.  1.
     999900   -1    0    0    0    0 -0.00000000000E+00 -0.00000000000E+00 -0.74505805969E-08  0.93827000000E+00  0.93827000000E+00 0.  1.
     999902    2    1    2    0    0  0.18888987579E-01  0.13489525261E-01 -0.63389288133E-02  0.10198687623E+01  0.10195848906E+01 0.  0.
     999903    2    3    3    0    0 -0.98471470109E-02 -0.30083687408E-01 -0.12486636108E+00  0.13038962113E+00  0.20195311749E-01 0.  0.
         14    1    1    2    0    0 -0.18888987579E-01 -0.13489525261E-01  0.63389288133E-02  0.24061237750E-01  0.00000000000E+00 0.  1.
     999901    1    3    3    0    0  0.28736134590E-01  0.43573212669E-01  0.11852743226E+00  0.88947914112E+00  0.88000000000E+00 0. -1.
        -11    1    4    4    0    0 -0.14370479896E-01 -0.28613688587E-01 -0.97965173202E-01  0.10306643561E+00  0.51100000000E-03 0.  1.
         11    1    4    4    0    0  0.45233328849E-02 -0.14699988208E-02 -0.26901187876E-01  0.27323185521E-01  0.51100000000E-03 0. -1.
</event>
<event>
 8    1  0.1123285E+005  0.1043930E+01  0.7957747E-01            NaN
         13   -1    0    0    0    0  0.00000000000E+00  0.00000000000E+00  0.74505805969E-08  0.10566000000E+00  0.10566000000E+00 0. -1.
     999900   -1    0    0    0    0 -0.00000000000E+00 -0.00000000000E+00 -0.74505805969E-08  0.93827000000E+00  0.93827000000E+00 0.  1.
     999902    2    1    2    0    0 -0.14874347038E-01 -0.18024345071E-01 -0.27722973535E-02  0.10203968564E+01  0.10201254510E+01 0.  0.
     999903    2    3    3    0    0 -0.35253410073E-01 -0.10885409988E+00  0.64940787127E-01  0.13290014521E+00  0.18791614620E-01 0.  0.
         14    1    1    2    0    0  0.14874347038E-01  0.18024345071E-01  0.27722973535E-02  0.23533143599E-01  0.00000000000E+00 0.  1.
     999901    1    3    3    0    0  0.20379063035E-01  0.90829754814E-01 -0.67713084480E-01  0.88749671119E+00  0.88000000000E+00 0.  1.
        -11    1    4    4    0    0 -0.21744906013E-01 -0.37791490555E-01  0.23485532893E-01  0.49526448208E-01  0.51100000000E-03 0.  1.
         11    1    4    4    0    0 -0.13508504060E-01 -0.71062609330E-01  0.41455254234E-01  0.83373696999E-01  0.51100000000E-03 0. -1.
</event>
<event>
 8    1  0.1123285E+005  0.1043930E+01  0.7957747E-01            NaN
         13   -1    0    0    0    0  0.00000000000E+00  0.00000000000E+00  0.74505805969E-08  0.10566000000E+00  0.10566000000E+00 0.  1.
     999900   -1    0    0    0    0 -0.00000000000E+00 -0.00000000000E+00 -0.74505805969E-08  0.93827000000E+00  0.93827000000E+00 0. -1.
     999902    2    1    2    0    0 -0.15387478240E-01 -0.13741257153E-01 -0.84615148706E-02  0.10216321555E+01  0.10213887934E+01 0.  0.
     999903    2    3    3    0    0  0.11081475099E+00  0.20561373205E-01 -0.62312774619E-01  0.13033892022E+00  0.20066717132E-01 0.  0.
         14    1    1    2    0    0  0.15387478240E-01  0.13741257153E-01  0.84615148706E-02  0.22297844484E-01  0.00000000000E+00 0. -1.
     999901    1    3    3    0    0 -0.12620222923E+00 -0.34302630358E-01  0.53851259749E-01  0.89129323530E+00  0.88000000000E+00 0.  1.
        -11    1    4    4    0    0  0.47094001867E-01  0.60388933342E-02 -0.15506132376E-01  0.49950120188E-01  0.51100000000E-03 0.  1.
         11    1    4    4    0    0  0.63720749128E-01  0.14522479870E-01 -0.46806642243E-01  0.80388800029E-01  0.51100000000E-03 0. -1.
</event>
<event>
 8    1  0.1123285E+005  0.1043930E+01  0.7957747E-01            NaN
         13   -1    0    0    0    0  0.00000000000E+00  0.00000000000E+00  0.74505805969E-08  0.10566000000E+00  0.10566000000E+00 0. -1.
     999900   -1    0    0    0    0 -0.00000000000E+00 -0.00000000000E+00 -0.74505805969E-08  0.93827000000E+00  0.93827000000E+00 0. -1.
     999902    2    1    2    0    0 -0.17555179054E-02  0.44910605470E-02  0.23688943066E-01  0.10197552716E+01  0.10194686834E+01 0.  0.
     999903    2    3    3    0    0 -0.97852349442E-02  0.12650405661E+00 -0.15828508973E-01  0.13042222008E+00  0.25697988889E-01 0.  0.
         14    1    1    2    0    0  0.17555179054E-02 -0.44910605470E-02 -0.23688943066E-01  0.24174728366E-01  0.00000000000E+00 0.  1.
     999901    1    3    3    0    0  0.80297170388E-02 -0.12201299607E+00  0.39517452039E-01  0.88933305155E+00  0.88000000000E+00 0. -1.
        -11    1    4    4    0    0  0.46542177865E-02  0.86125223480E-01 -0.62430327999E-02  0.86478046013E-01  0.51100000000E-03 0. -1.
         11    1    4    4    0    0 -0.14439452731E-01  0.40378833133E-01 -0.95854761733E-02  0.43944174071E-01  0.51100000000E-03 0.  1.
</event>
<event>
 8    1  0.1123285E+005  0.1043930E+01  0.7957747E-01            NaN
         13   -1    0    0    0    0  0.00000000000E+00  0.00000000000E+00  0.74505805969E-08  0.10566000000E+00  0.10566000000E+00 0. -1.
     999900   -1    0    0    0    0 -0.00000000000E+00 -0.00000000000E+00 -0.74505805969E-08  0.93827000000E+00  0.93827000000E+00 0. -1.
     999902    2    1    2    0    0  0.17517788700E-01  0.30550119879E-01 -0.17421574900E-02  0.10086707054E+01  0.10080542515E+01 0.  0.
     999903    2    3    3    0    0  0.10847317920E-02 -0.82755505558E-01 -0.80967803939E-01  0.11772462777E+00  0.21299116572E-01 0.  0.
         14    1    1    2    0    0 -0.17517788700E-01 -0.30550119879E-01  0.17421574900E-02  0.35259294637E-01  0.00000000000E+00 0. -1.
     999901    1    3    3    0    0  0.16433056908E-01  0.11330562544E+00  0.79225646449E-01  0.89094607759E+00  0.88000000000E+00 0.  1.
        -11    1    4    4    0    0 -0.19581366073E-02 -0.78582639264E-01 -0.80498565578E-01  0.11251375771E+00  0.51100000000E-03 0.  1.
         11    1    4    4    0    0  0.30428683993E-02 -0.41728662937E-02 -0.46923836110E-03  0.52108700656E-02  0.51100000000E-03 0. -1.
</event>
<event>
 7    1  0.1123285E+005  0.1043930E+01  0.7957747E-01            NaN
         13   -1    0    0    0    0  0.00000000000E+00  0.00000000000E+00  0.74505805969E-08  0.10566000000E+00  0.10566000000E+00 0.  1.
     999900   -1    0    0    0    0 -0.00000000000E+00 -0.00000000000E+00 -0.74505805969E-08  0.93827000000E+00  0.93827000000E+00 0. -1.
     999903    2    1    2    0    0 -0.75788554005E-01  0.33100104781E-01 -0.76181276596E-01  0.11407412766E+00  0.19230128549E-01 0.  0.
         14    1    1    2    0    0  0.13470342696E-01 -0.41635024303E-01 -0.41764958671E-02  0.43958713571E-01  0.00000000000E+00 0. -1.
     999901    1    1    2    0    0  0.62318211309E-01  0.85349195227E-02  0.80357772463E-01  0.88589715876E+00  0.88000000000E+00 0.  1.
        -11    1    3    3    0    0 -0.30234981465E-01  0.42794539515E-02 -0.33362366563E-01  0.45230260380E-01  0.51100000000E-03 0.  1.
         11    1    3    3    0    0 -0.45553572540E-01  0.28820650829E-01 -0.42818910033E-01  0.68843867285E-01  0.51100000000E-03 0. -1.
</event>
<event>
 8    1  0.1123285E+005  0.1043930E+01  0.7957747E-01            NaN
         13   -1    0    0    0    0  0.00000000000E+00  0.00000000000E+00  0.74505805969E-08  0.10566000000E+00  0.10566000000E+00 0. -1.
     999900   -1    0    0    0    0 -0.00000000000E+00 -0.00000000000E+00 -0.74505805969E-08  0.93827000000E+00  0.93827000000E+00 0. -1.
     999902    2    1    2    0    0  0.22338361164E-02 -0.20693554169E-01  0.19490747563E-01  0.10154150487E+01  0.10150145904E+01 0.  0.
     999903    2    3    3    0    0  0.10758036808E+00 -0.65332124867E-01  0.10410131404E-01  0.12796197873E+00  0.20593082060E-01 0.  0.
         14    1    1    2    0    0 -0.22338361164E-02  0.20693554169E-01 -0.19490747563E-01  0.28514951316E-01  0.00000000000E+00 0.  1.
     999901    1    3    3    0    0 -0.10534653196E+00  0.44638570698E-01  0.90806161590E-02  0.88745306996E+00  0.88000000000E+00 0.  1.
        -11    1    4    4    0    0  0.64348098249E-01 -0.45681721060E-01 -0.17610629451E-02  0.78935795752E-01  0.51100000000E-03 0.  1.
         11    1    4    4    0    0  0.43232269826E-01 -0.19650403806E-01  0.12171194350E-01  0.49026182973E-01  0.51100000000E-03 0. -1.
</event>
<event>
 8    1  0.1123285E+005  0.1043930E+01  0.7957747E-01            NaN
         13   -1    0    0    0    0  0.00000000000E+00  0.00000000000E+00  0.74505805969E-08  0.10566000000E+00  0.10566000000E+00 0.  1.
     999900   -1    0    0    0    0 -0.00000000000E+00 -0.00000000000E+00 -0.74505805969E-08  0.93827000000E+00  0.93827000000E+00 0. -1.
     999902    2    1    2    0    0  0.11459570306E-01 -0.14358742856E-01  0.14526187438E-01  0.10205098085E+01  0.10202410323E+01 0.  0.
     999903    2    3    3    0    0 -0.32410731920E-01 -0.11736303972E+00  0.47850584806E-01  0.13279081916E+00  0.22785621605E-01 0.  0.
         14    1    1    2    0    0 -0.11459570306E-01  0.14358742856E-01 -0.14526187438E-01  0.23420191491E-01  0.00000000000E+00 0. -1.
     999901    1    3    3    0    0  0.43870302226E-01  0.10300429686E+00 -0.33324397368E-01  0.88771898935E+00  0.88000000000E+00 0.  1.
        -11    1    4    4    0    0  0.31057393260E-02 -0.19236697821E-01  0.66689522692E-02  0.20601752479E-01  0.51100000000E-03 0. -1.
         11    1    4    4    0    0 -0.35516471246E-01 -0.98126341895E-01  0.41181632537E-01  0.11218906668E+00  0.51100000000E-03 0.  1.
</event>
<event>
 8    1  0.1123285E+005  0.1043930E+01  0.7957747E-01            NaN
         13   -1    0    0    0    0  0.00000000000E+00  0.00000000000E+00  0.74505805969E-08  0.10566000000E+00  0.10566000000E+00 0. -1.
     999900   -1    0    0    0    0 -0.00000000000E+00 -0.00000000000E+00 -0.74505805969E-08  0.93827000000E+00  0.93827000000E+00 0.  1.
     999902    2    1    2    0    0  0.14075039421E-01  0.12441228426E-02  0.18394037209E-01  0.10207352769E+01  0.10204717097E+01 0.  0.
     999903    2    3    3    0    0  0.10319693416E+00  0.71035009281E-01 -0.35760086030E-01  0.13183362369E+00  0.20143009181E-01 0.  0.
         14    1    1    2    0    0 -0.14075039421E-01 -0.12441228426E-02 -0.18394037209E-01  0.23194723132E-01  0.00000000000E+00 0.  1.
     999901    1    3    3    0    0 -0.89121894743E-01 -0.69790886438E-01  0.54154123239E-01  0.88890165317E+00  0.88000000000E+00 0.  1.
        -11    1    4    4    0    0  0.68893109747E-01  0.39345188058E-01 -0.15092534773E-01  0.80761068100E-01  0.51100000000E-03 0.  1.
         11    1    4    4    0    0  0.34303824417E-01  0.31689821223E-01 -0.20667551257E-01  0.51072555593E-01  0.51100000000E-03 0. -1.
</event>
<event>
 8    1  0.1123285E+005  0.1043930E+01  0.7957747E-01            NaN
         13   -1    0    0    0    0  0.00000000000E+00  0.00000000000E+00  0.74505805969E-08  0.10566000000E+00  0.10566000000E+00 0.  1.
     999900   -1    0    0    0    0 -0.00000000000E+00 -0.00000000000E+00 -0.74505805969E-08  0.93827000000E+00  0.93827000000E+00 0. -1.
     999902    2    1    2    0    0  0.13575694091E-01 -0.14635895067E-01 -0.10746320663E-01  0.10212586017E+01  0.10210069242E+01 0.  0.
     999903    2    3    3    0    0  0.92223004432E-01 -0.67214909649E-01  0.64512340088E-01  0.13299410378E+00  0.22420146971E-01 0.  0.
         14    1    1    2    0    0 -0.13575694091E-01  0.14635895067E-01  0.10746320663E-01  0.22671398330E-01  0.00000000000E+00 0. -1.
     999901    1    3    3    0    0 -0.78647310341E-01  0.52579014583E-01 -0.75258660751E-01  0.88826449789E+00  0.88000000000E+00 0. -1.
        -11    1    4    4    0    0  0.43532504525E-01 -0.38280531773E-01  0.21337201997E-01  0.61773905276E-01  0.51100000000E-03 0. -1.
         11    1    4    4    0    0  0.48690499907E-01 -0.28934377877E-01  0.43175138091E-01  0.71220198501E-01  0.51100000000E-03 0.  1.
</event>
<event>
 8    1  0.1123285E+005  0.1043930E+01  0.7957747E-01            NaN
         13   -1    0    0    0    0  0.00000000000E+00  0.00000000000E+00  0.74505805969E-08  0.10566000000E+00  0.10566000000E+00 0.  1.
     999900   -1    0    0    0    0 -0.00000000000E+00 -0.00000000000E+00 -0.74505805969E-08  0.93827000000E+00  0.93827000000E+00 0. -1.
     999902    2    1    2    0    0 -0.99478321387E-03  0.20851460304E-01 -0.23702280515E-01  0.10123456512E+01  0.10118528284E+01 0.  0.
     999903    2    3    3    0    0 -0.84990891951E-02  0.12157233742E+00 -0.27989648144E-01  0.12655820982E+00  0.19531828615E-01 0.  0.
         14    1    1    2    0    0  0.99478321387E-03 -0.20851460304E-01  0.23702280515E-01  0.31584348847E-01  0.00000000000E+00 0.  1.
     999901    1    3    3    0    0  0.75043059812E-02 -0.10072087711E+00  0.42873676286E-02  0.88578744133E+00  0.88000000000E+00 0.  1.
        -11    1    4    4    0    0 -0.12633328298E-01  0.51041138503E-01 -0.85103336702E-02  0.53268055191E-01  0.51100000000E-03 0.  1.
         11    1    4    4    0    0  0.41342391031E-02  0.70531198912E-01 -0.19479314474E-01  0.73290154634E-01  0.51100000000E-03 0. -1.
</event>
<event>
 8    1  0.1123285E+005  0.1043930E+01  0.7957747E-01            NaN
         13   -1    0    0    0    0  0.00000000000E+00  0.00000000000E+00  0.74505805969E-08  0.10566000000E+00  0.10566000000E+00 0.  1.
     999900   -1    0    0    0    0 -0.00000000000E+00 -0.00000000000E+00 -0.74505805969E-08  0.93827000000E+00  0.93827000000E+00 0.  1.
     999902    2    1    2    0    0  0.15616357412E-01  0.15813507872E-02 -0.17835248346E-01  0.10201714779E+01  0.10198947872E+01 0.  0.
     999903    2    3    3    0    0 -0.11390548093E+00  0.51979661810E-01 -0.25401619594E-01  0.12923200389E+00  0.19476260513E-01 0.  0.
         14    1    1    2    0    0 -0.15616357412E-01 -0.15813507872E-02  0.17835248346E-01  0.23758522107E-01  0.00000000000E+00 0.  1.
     999901    1    3    3    0    0  0.12952183834E+00 -0.50398311023E-01  0.75663712482E-02  0.89093947400E+00  0.88000000000E+00 0. -1.
        -11    1    4    4    0    0 -0.57834535285E-01  0.33743131345E-01 -0.20670435060E-01  0.70078244778E-01  0.51100000000E-03 0. -1.
         11    1    4    4    0    0 -0.56070945647E-01  0.18236530465E-01 -0.47311845337E-02  0.59153759113E-01  0.51100000000E-03 0.  1.
</event>
<event>
 8    1  0.1123285E+005  0.1043930E+01  0.7957747E-01            NaN
         13   -1    0    0    0    0  0.00000000000E+00  0.00000000000E+00  0.74505805969E-08  0.10566000000E+00  0.10566000000E+00 0. -1.
     999900   -1    0    0    0    0 -0.00000000000E+00 -0.00000000000E+00 -0.74505805969E-08  0.93827000000E+00  0.93827000000E+00 0.  1.
     999902    2    1    2    0    0 -0.78167555795E-02  0.10575444195E-03 -0.21860358765E-01  0.10207138820E+01  0.10204498227E+01 0.  0.
     999903    2    3    3    0    0 -0.10450027331E+00 -0.54625236513E-01  0.52198589340E-01  0.13064202431E+00  0.20938533873E-01 0.  0.
         14    1    1    2    0    0  0.78167555795E-02 -0.10575444195E-03  0.21860358765E-01  0.23216118046E-01  0.00000000000E+00 0. -1.
     999901    1    3    3    0    0  0.96683517733E-01  0.54730990955E-01 -0.74058948105E-01  0.89007185764E+00  0.88000000000E+00 0.  1.
        -11    1    4    4    0    0 -0.20712063435E-01 -0.20925718497E-01  0.13054579983E-01  0.32211154060E-01  0.51100000000E-03 0.  1.
         11    1    4    4    0    0 -0.83788209877E-01 -0.33699518016E-01  0.39144009356E-01  0.98430870251E-01  0.51100000000E-03 0. -1.
</event>
<event>
 8    1  0.1123285E+005  0.1043930E+01  0.7957747E-01            NaN
         13   -1    0    0    0    0  0.00000000000E+00  0.00000000000E+00  0.74505805969E-08  0.10566000000E+00  0.10566000000E+00 0. -1.
     999900   -1    0    0    0    0 -0.00000000000E+00 -0.00000000000E+00 -0.74505805969E-08  0.93827000000E+00  0.93827000000E+00 0.  1.
     999902    2    1    2    0    0 -0.95718110844E-02  0.90115745111E-02  0.20559973910E-01  0.10195263001E+01  0.10192341909E+01 0.  0.
     999903    2    3    3    0    0 -0.91646004648E-01 -0.89739775823E-01 -0.31898738242E-02  0.12989038707E+00  0.20226710723E-01 0.  0.
         14    1    1    2    0    0  0.95718110844E-02 -0.90115745111E-02 -0.20559973910E-01  0.24403699920E-01  0.00000000000E+00 0.  1.
     999901    1    3    3    0    0  0.82074193563E-01  0.98751350334E-01  0.23749847734E-01  0.88963591301E+00  0.88000000000E+00 0.  1.
        -11    1    4    4    0    0 -0.47063760431E-01 -0.48884428774E-01 -0.11571224780E-01  0.68839227817E-01  0.51100000000E-03 0. -1.
         11    1    4    4    0    0 -0.44582244217E-01 -0.40855347049E-01  0.83813509557E-02  0.61051159258E-01  0.51100000000E-03 0.  1.
</event>
<event>
 8    1  0.1123285E+005  0.1043930E+01  0.7957747E-01            NaN
         13   -1    0    0    0    0  0.00000000000E+00  0.00000000000E+00  0.74505805969E-08  0.10566000000E+00  0.10566000000E+00 0. -1.
     999900   -1    0    0    0    0 -0.00000000000E+00 -0.00000000000E+00 -0.74505805969E-08  0.93827000000E+00  0.93827000000E+00 0.  1.
     999902    2    1    2    0    0  0.14830024376E-02  0.22464724272E-03 -0.23196545153E-01  0.10206850119E+01  0.10204202880E+01 0.  0.
     999903    2    3    3    0    0 -0.63024430345E-01  0.16642769057E-01 -0.11465996149E+00  0.13344416520E+00  0.20282452376E-01 0.  0.
         14    1    1    2    0    0 -0.14830024376E-02 -0.22464724272E-03  0.23196545153E-01  0.23244988054E-01  0.00000000000E+00 0. -1.
     999901    1    3    3    0    0  0.64507432783E-01 -0.16418121814E-01  0.91463416337E-01  0.88724084675E+00  0.88000000000E+00 0.  1.
        -11    1    4    4    0    0 -0.26718465000E-01  0.90847238033E-02 -0.30958217569E-01  0.41893686095E-01  0.51100000000E-03 0. -1.
         11    1    4    4    0    0 -0.36305965345E-01  0.75580452535E-02 -0.83701743921E-01  0.91550479104E-01  0.51100000000E-03 0.  1.
</event>
<event>
 8    1  0.1123285E+005  0.1043930E+01  0.7957747E-01            NaN
         13   -1    0    0    0    0  0.00000000000E+00  0.00000000000E+00  0.74505805969E-08  0.10566000000E+00  0.10566000000E+00 0. -1.
     999900   -1    0    0    0    0 -0.00000000000E+00 -0.00000000000E+00 -0.74505805969E-08  0.93827000000E+00  0.93827000000E+00 0. -1.
     999902    2    1    2    0    0  0.19909106398E-01 -0.35773401558E-02  0.26819618491E-02  0.10235250300E+01  0.10233216133E+01 0.  0.
     999903    2    3    3    0    0  0.12754642070E+00 -0.43029964098E-01 -0.26278890444E-02  0.13607334375E+00  0.19732760413E-01 0.  0.
         14    1    1    2    0    0 -0.19909106398E-01  0.35773401558E-02 -0.26819618491E-02  0.20404969971E-01  0.00000000000E+00 0. -1.
     999901    1    3    3    0    0 -0.10763731430E+00  0.39452623942E-01  0.53098508935E-02  0.88745168628E+00  0.88000000000E+00 0.  1.
        -11    1    4    4    0    0  0.10920165434E+00 -0.35999615970E-01 -0.92000998447E-02  0.11535110151E+00  0.51100000000E-03 0.  1.
         11    1    4    4    0    0  0.18344766363E-01 -0.70303481283E-02  0.65722108003E-02  0.20722242241E-01  0.51100000000E-03 0. -1.
</event>
<event>
 8    1  0.1123285E+005  0.1043930E+01  0.7957747E-01            NaN
         13   -1    0    0    0    0  0.00000000000E+00  0.00000000000E+00  0.74505805969E-08  0.10566000000E+00  0.10566000000E+00 0.  1.
     999900   -1    0    0    0    0 -0.00000000000E+00 -0.00000000000E+00 -0.74505805969E-08  0.93827000000E+00  0.93827000000E+00 0. -1.
     999902    2    1    2    0    0  0.47326635696E-02 -0.89691354079E-02  0.21748129644E-01  0.10199336537E+01  0.10196513292E+01 0.  0.
     999903    2    3    3    0    0  0.45527019958E-01 -0.35065473291E-01  0.11856902137E+00  0.13329986035E+00  0.20197598318E-01 0.  0.
         14    1    1    2    0    0 -0.47326635696E-02  0.89691354079E-02 -0.21748129644E-01  0.23996346335E-01  0.00000000000E+00 0. -1.
     999901    1    3    3    0    0 -0.40794356388E-01  0.26096337884E-01 -0.96820891729E-01  0.88663379331E+00  0.88000000000E+00 0. -1.
        -11    1    4    4    0    0  0.34515562917E-01 -0.27644237006E-01  0.68803233152E-01  0.81790426924E-01  0.51100000000E-03 0.  1.
         11    1    4    4    0    0  0.11011457041E-01 -0.74212362849E-02  0.49765788221E-01  0.51509433431E-01  0.51100000000E-03 0. -1.
</event>
<event>
 8    1  0.1123285E+005  0.1043930E+01  0.7957747E-01            NaN
         13   -1    0    0    0    0  0.00000000000E+00  0.00000000000E+00  0.74505805969E-08  0.10566000000E+00  0.10566000000E+00 0. -1.
     999900   -1    0    0    0    0 -0.00000000000E+00 -0.00000000000E+00 -0.74505805969E-08  0.93827000000E+00  0.93827000000E+00 0. -1.
     999902    2    1    2    0    0  0.16260390060E-01 -0.16120193986E-01 -0.39857866841E-02  0.10206889279E+01  0.10204242941E+01 0.  0.
     999903    2    3    3    0    0  0.11292625281E+00 -0.48328514186E-01 -0.49064693636E-01  0.13366368990E+00  0.19252375953E-01 0.  0.
         14    1    1    2    0    0 -0.16260390060E-01  0.16120193986E-01  0.39857866841E-02  0.23241072147E-01  0.00000000000E+00 0. -1.
     999901    1    3    3    0    0 -0.96665862748E-01  0.32208320199E-01  0.45078906952E-01  0.88702523795E+00  0.88000000000E+00 0.  1.
        -11    1    4    4    0    0  0.86876246217E-01 -0.27979950946E-01 -0.36263765062E-01  0.98212430930E-01  0.51100000000E-03 0. -1.
         11    1    4    4    0    0  0.26050006591E-01 -0.20348563240E-01 -0.12800928574E-01  0.35451258972E-01  0.51100000000E-03 0.  1.
</event>
<event>
 8    1  0.1123285E+005  0.1043930E+01  0.7957747E-01            NaN
         13   -1    0    0    0    0  0.00000000000E+00  0.00000000000E+00  0.74505805969E-08  0.10566000000E+00  0.10566000000E+00 0.  1.
     999900   -1    0    0    0    0 -0.00000000000E+00 -0.00000000000E+00 -0.74505805969E-08  0.93827000000E+00  0.93827000000E+00 0. -1.
     999902    2    1    2    0    0  0.19668006206E-02  0.11192975117E-01  0.21236822388E-01  0.10198436217E+01  0.10195591493E+01 0.  0.
     999903    2    3    3    0    0 -0.96549120037E-01 -0.51447292083E-01  0.68719540633E-01  0.13086454528E+00  0.20847002281E-01 0.  0.
         14    1    1    2    0    0 -0.19668006206E-02 -0.11192975117E-01 -0.21236822388E-01  0.24086378346E-01  0.00000000000E+00 0. -1.
     999901    1    3    3    0    0  0.98515920658E-01  0.62640267200E-01 -0.47482718245E-01  0.88897907637E+00  0.88000000000E+00 0.  1.
        -11    1    4    4    0    0 -0.38168098530E-01 -0.29399876430E-01  0.37672914078E-01  0.61160984750E-01  0.51100000000E-03 0.  1.
         11    1    4    4    0    0 -0.58381021507E-01 -0.22047415653E-01  0.31046626555E-01  0.69703560530E-01  0.51100000000E-03 0. -1.
</event>
<event>
 7    1  0.1123285E+005  0.1043930E+01  0.7957747E-01            NaN
         13   -1    0    0    0    0  0.00000000000E+00  0.00000000000E+00  0.74505805969E-08  0.10566000000E+00  0.10566000000E+00 0.  1.
     999900   -1    0    0    0    0 -0.00000000000E+00 -0.00000000000E+00 -0.74505805969E-08  0.93827000000E+00  0.93827000000E+00 0. -1.
     999903    2    1    2    0    0 -0.75606185196E-01 -0.31724381677E-01  0.84744436048E-01  0.11961231767E+00  0.20068768367E-01 0.  0.
         14    1    1    2    0    0  0.29579390181E-01  0.39466521854E-02 -0.27890281318E-01  0.40845858774E-01  0.00000000000E+00 0. -1.
     999901    1    1    2    0    0  0.46026795015E-01  0.27777729491E-01 -0.56854154729E-01  0.88347182356E+00  0.88000000000E+00 0. -1.
        -11    1    3    3    0    0 -0.49304858287E-01 -0.13306345636E-01  0.61655457003E-01  0.80060504521E-01  0.51100000000E-03 0. -1.
         11    1    3    3    0    0 -0.26301326909E-01 -0.18418036040E-01  0.23088979045E-01  0.39551813145E-01  0.51100000000E-03 0.  1.
</event>
<event>
 8    1  0.1123285E+005  0.1043930E+01  0.7957747E-01            NaN
         13   -1    0    0    0    0  0.00000000000E+00  0.00000000000E+00  0.74505805969E-08  0.10566000000E+00  0.10566000000E+00 0. -1.
     999900   -1    0    0    0    0 -0.00000000000E+00 -0.00000000000E+00 -0.74505805969E-08  0.93827000000E+00  0.93827000000E+00 0. -1.
     999902    2    1    2    0    0  0.19371086042E-01  0.12582902697E-01 -0.36479324795E-02  0.10205446237E+01  0.10202766552E+01 0.  0.
     999903    2    3    3    0    0  0.28671130885E-01 -0.11214131339E+00 -0.56372964344E-01  0.13013878929E+00  0.18986454505E-01 0.  0.
         14    1    1    2    0    0 -0.19371086042E-01 -0.12582902697E-01  0.36479324795E-02  0.23385376330E-01  0.00000000000E+00 0. -1.
     999901    1    3    3    0    0 -0.93000448435E-02  0.12472421608E+00  0.52725031865E-01  0.89040583438E+00  0.88000000000E+00 0. -1.
        -11    1    4    4    0    0  0.25522699082E-01 -0.69252541671E-01 -0.29881203715E-01  0.79627069222E-01  0.51100000000E-03 0. -1.
         11    1    4    4    0    0  0.31484318035E-02 -0.42888771715E-01 -0.26491760629E-01  0.50511720069E-01  0.51100000000E-03 0.  1.
</event>
<event>
 8    1  0.1123285E+005  0.1043930E+01  0.7957747E-01            NaN
         13   -1    0    0    0    0  0.00000000000E+00  0.00000000000E+00  0.74505805969E-08  0.10566000000E+00  0.10566000000E+00 0.  1.
     999900   -1    0    0    0    0 -0.00000000000E+00 -0.00000000000E+00 -0.74505805969E-08  0.93827000000E+00  0.93827000000E+00 0.  1.
     999902    2    1    2    0    0 -0.62714414675E-02  0.96795658907E-02 -0.21146174602E-01  0.10198429563E+01  0.10195584681E+01 0.  0.
     999903    2    3    3    0    0  0.12264643336E+00 -0.15667042284E-01  0.28630757517E-01  0.12869761913E+00  0.21348373774E-01 0.  0.
         14    1    1    2    0    0  0.62714414675E-02 -0.96795658907E-02  0.21146174602E-01  0.24087043700E-01  0.00000000000E+00 0.  1.
     999901    1    3    3    0    0 -0.12891787483E+00  0.25346608175E-01 -0.49776932119E-01  0.89114533717E+00  0.88000000000E+00 0.  1.
        -11    1    4    4    0    0  0.69357350285E-01 -0.18213909152E-01  0.21540571727E-01  0.74876203673E-01  0.51100000000E-03 0.  1.
         11    1    4    4    0    0  0.53289083074E-01  0.25468668681E-02  0.70901857901E-02  0.53821415452E-01  0.51100000000E-03 0. -1.
</event>
<event>
 8    1  0.1123285E+005  0.1043930E+01  0.7957747E-01            NaN
         13   -1    0    0    0    0  0.00000000000E+00  0.00000000000E+00  0.74505805969E-08  0.10566000000E+00  0.10566000000E+00 0.  1.
     999900   -1    0    0    0    0 -0.00000000000E+00 -0.00000000000E+00 -0.74505805969E-08  0.93827000000E+00  0.93827000000E+00 0.  1.
     999902    2    1    2    0    0  0.14237837842E-01  0.19759919531E-01  0.14852094982E-02  0.10195296661E+01  0.10192376385E+01 0.  0.
     999903    2    3    3    0    0  0.69096463090E-01  0.90920817125E-01  0.64783149145E-01  0.13269260596E+00  0.19223815035E-01 0.  0.
         14    1    1    2    0    0 -0.14237837842E-01 -0.19759919531E-01 -0.14852094982E-02  0.24400333882E-01  0.00000000000E+00 0. -1.
     999901    1    3    3    0    0 -0.54858625248E-01 -0.71160897594E-01 -0.63297939647E-01  0.88683706016E+00  0.88000000000E+00 0.  1.
        -11    1    4    4    0    0  0.10672113489E-01  0.27760138152E-01  0.15625200671E-01  0.33599513294E-01  0.51100000000E-03 0.  1.
         11    1    4    4    0    0  0.58424349601E-01  0.63160678972E-01  0.49157948474E-01  0.99093092664E-01  0.51100000000E-03 0. -1.
</event>
<event>
 8    1  0.1123285E+005  0.1043930E+01  0.7957747E-01            NaN
         13   -1    0    0    0    0  0.00000000000E+00  0.00000000000E+00  0.74505805969E-08  0.10566000000E+00  0.10566000000E+00 0. -1.
     999900   -1    0    0    0    0 -0.00000000000E+00 -0.00000000000E+00 -0.74505805969E-08  0.93827000000E+00  0.93827000000E+00 0. -1.
     999902    2    1    2    0    0 -0.81799404279E-02 -0.91200591513E-02 -0.15605968524E-01  0.10240898095E+01  0.10238976047E+01 0.  0.
     999903    2    3    3    0    0  0.93291324553E-01  0.23584492926E-01  0.87752712648E-01  0.13164988308E+00  0.19278319306E-01 0.  0.
         14    1    1    2    0    0  0.81799404279E-02  0.91200591513E-02  0.15605968524E-01  0.19840190470E-01  0.00000000000E+00 0. -1.
     999901    1    3    3    0    0 -0.10147126498E+00 -0.32704552077E-01 -0.10335868117E+00  0.89243992645E+00  0.88000000000E+00 0. -1.
        -11    1    4    4    0    0  0.27071228719E-01 -0.18885193351E-02  0.26066758431E-01  0.37631834206E-01  0.51100000000E-03 0. -1.
         11    1    4    4    0    0  0.66220095834E-01  0.25473012261E-01  0.61685954218E-01  0.94018048877E-01  0.51100000000E-03 0.  1.
</event>
<event>
 8    1  0.1123285E+005  0.1043930E+01  0.7957747E-01            NaN
         13   -1    0    0    0    0  0.00000000000E+00  0.00000000000E+00  0.74505805969E-08  0.10566000000E+00  0.10566000000E+00 0.  1.
     999900   -1    0    0    0    0 -0.00000000000E+00 -0.00000000000E+00 -0.74505805969E-08  0.93827000000E+00  0.93827000000E+00 0. -1.
     999902    2    1    2    0    0 -0.15498575515E-01  0.23663810212E-02 -0.16752533442E-01  0.10209854368E+01  0.10207275882E+01 0.  0.
     999903    2    3    3    0    0  0.67216958378E-01  0.86147111904E-01 -0.70301068808E-01  0.13153138178E+00  0.20465085735E-01 0.  0.
         14    1    1    2    0    0  0.15498575515E-01 -0.23663810212E-02  0.16752533442E-01  0.22944563166E-01  0.00000000000E+00 0.  1.
     999901    1    3    3    0    0 -0.82715533893E-01 -0.83780730883E-01  0.53548535366E-01  0.88945405506E+00  0.88000000000E+00 0.  1.
        -11    1    4    4    0    0  0.54112306931E-01  0.57825301208E-01 -0.57143937408E-01  0.97660626276E-01  0.51100000000E-03 0. -1.
         11    1    4    4    0    0  0.13104651447E-01  0.28321810696E-01 -0.13157131400E-01  0.33870755503E-01  0.51100000000E-03 0.  1.
</event>
<event>
 8    1  0.1123285E+005  0.1043930E+01  0.7957747E-01            NaN
         13   -1    0    0    0    0  0.00000000000E+00  0.00000000000E+00  0.74505805969E-08  0.10566000000E+00  0.10566000000E+00 0. -1.
     999900   -1    0    0    0    0 -0.00000000000E+00 -0.00000000000E+00 -0.74505805969E-08  0.93827000000E+00  0.93827000000E+00 0.  1.
     999902    2    1    2    0    0  0.16767099664E-01 -0.15657872610E-01 -0.54151595541E-02  0.10203582254E+01  0.10200859177E+01 0.  0.
     999903    2    3    3    0    0 -0.11744375521E+00  0.42933408460E-01  0.18617515510E-01  0.12793284404E+00  0.19593047280E-01 0.  0.
         14    1    1    2    0    0 -0.16767099664E-01  0.15657872610E-01  0.54151595541E-02  0.23571774621E-01  0.00000000000E+00 0. -1.
     999901    1    3    3    0    0  0.13421085487E+00 -0.58591281070E-01 -0.24032675064E-01  0.89242538134E+00  0.88000000000E+00 0. -1.
        -11    1    4    4    0    0 -0.36827378053E-01  0.10596955686E-01  0.14491892725E-01  0.40973495333E-01  0.51100000000E-03 0.  1.
         11    1    4    4    0    0 -0.80616377155E-01  0.32336452774E-01  0.41256227849E-02  0.86959348709E-01  0.51100000000E-03 0. -1.
</event>
<event>
 8    1  0.1123285E+005  0.1043930E+01  0.7957747E-01            NaN
         13   -1    0    0    0    0  0.00000000000E+00  0.00000000000E+00  0.74505805969E-08  0.10566000000E+00  0.10566000000E+00 0.  1.
     999900   -1    0    0    0    0 -0.00000000000E+00 -0.00000000000E+00 -0.74505805969E-08  0.93827000000E+00  0.93827000000E+00 0. -1.
     999902    2    1    2    0    0 -0.17387072344E-02 -0.18009366337E-01  0.16594576106E-01  0.10193792294E+01  0.10190835457E+01 0.  0.
     999903    2    3    3    0    0  0.11269640161E+00  0.47386571004E-01 -0.32745876650E-01  0.12819658653E+00  0.20398684110E-01 0.  0.
         14    1    1    2    0    0  0.17387072344E-02  0.18009366337E-01 -0.16594576106E-01  0.24550770555E-01  0.00000000000E+00 0. -1.
     999901    1    3    3    0    0 -0.11443510884E+00 -0.65395937340E-01  0.49340452756E-01  0.89118264292E+00  0.88000000000E+00 0.  1.
        -11    1    4    4    0    0  0.60375462810E-01  0.24513996458E-01 -0.27903997923E-01  0.70887423094E-01  0.51100000000E-03 0. -1.
         11    1    4    4    0    0  0.52320938798E-01  0.22872574546E-01 -0.48418787271E-02  0.57309163435E-01  0.51100000000E-03 0.  1.
</event>
<event>
 8    1  0.1123285E+005  0.1043930E+01  0.7957747E-01            NaN
         13   -1    0    0    0    0  0.00000000000E+00  0.00000000000E+00  0.74505805969E-08  0.10566000000E+00  0.10566000000E+00 0.  1.
     999900   -1    0    0    0    0 -0.00000000000E+00 -0.00000000000E+00 -0.74505805969E-08  0.93827000000E+00  0.93827000000E+00 0. -1.
     999902    2    1    2    0    0 -0.11240300375E-02 -0.20570154692E-01  0.10362794537E-01  0.10208695963E+01  0.10206091076E+01 0.  0.
     999903    2    3    3    0    0 -0.98323023739E-01  0.34031308886E-01  0.77567827219E-01  0.13129358460E+00  0.19891972135E-01 0.  0.
         14    1    1    2    0    0  0.11240300375E-02  0.20570154692E-01 -0.10362794537E-01  0.23060403687E-01  0.00000000000E+00 0. -1.
     999901    1    3    3    0    0  0.97198993701E-01 -0.54601463578E-01 -0.67205032682E-01  0.88957601172E+00  0.88000000000E+00 0. -1.
        -11    1    4    4    0    0 -0.62237444421E-01  0.17658445904E-01  0.58882411973E-01  0.87479824877E-01  0.51100000000E-03 0. -1.
         11    1    4    4    0    0 -0.36085579318E-01  0.16372862982E-01  0.18685415246E-01  0.43813759720E-01  0.51100000000E-03 0.  1.
</event>
<event>
 8    1  0.1123285E+005  0.1043930E+01  0.7957747E-01            NaN
         13   -1    0    0    0    0  0.00000000000E+00  0.00000000000E+00  0.74505805969E-08  0.10566000000E+00  0.10566000000E+00 0.  1.
     999900   -1    0    0    0    0 -0.00000000000E+00 -0.00000000000E+00 -0.74505805969E-08  0.93827000000E+00  0.93827000000E+00 0.  1.
     999902    2    1    2    0    0 -0.10556923760E-01 -0.15543618238E-02 -0.22772813183E-01  0.10187811292E+01  0.10184706788E+01 0.  0.
     999903    2    3    3    0    0 -0.18033979224E-01 -0.95859786815E-01 -0.85731450340E-01  0.13147441253E+00  0.20525994184E-01 0.  0.
         14    1    1    2    0    0  0.10556923760E-01  0.15543618238E-02  0.22772813183E-01  0.25148870754E-01  0.00000000000E+00 0.  1.
     999901    1    3    3    0    0  0.74770554644E-02  0.94305424991E-01  0.62958637157E-01  0.88730671672E+00  0.88000000000E+00 0. -1.
        -11    1    4    4    0    0  0.43966169144E-02 -0.23207885105E-01 -0.21268394867E-01  0.31789021887E-01  0.51100000000E-03 0. -1.
         11    1    4    4    0    0 -0.22430596139E-01 -0.72651901710E-01 -0.64463055473E-01  0.99685390640E-01  0.51100000000E-03 0.  1.
</event>
<event>
 8    1  0.1123285E+005  0.1043930E+01  0.7957747E-01            NaN
         13   -1    0    0    0    0  0.00000000000E+00  0.00000000000E+00  0.74505805969E-08  0.10566000000E+00  0.10566000000E+00 0. -1.
     999900   -1    0    0    0    0 -0.00000000000E+00 -0.00000000000E+00 -0.74505805969E-08  0.93827000000E+00  0.93827000000E+00 0.  1.
     999902    2    1    2    0    0  0.20115079178E-01 -0.52434913856E-02  0.11624157520E-01  0.10201133745E+01  0.10198353128E+01 0.  0.
     999903    2    3    3    0    0  0.32246681436E-01  0.32148576335E-01  0.12258321447E+00  0.13227484480E+00  0.19915086576E-01 0.  0.
         14    1    1    2    0    0 -0.20115079178E-01  0.52434913856E-02 -0.11624157520E-01  0.23816625502E-01  0.00000000000E+00 0.  1.
     999901    1    3    3    0    0 -0.12131602258E-01 -0.37392067721E-01 -0.11095905695E+00  0.88783852970E+00  0.88000000000E+00 0.  1.
        -11    1    4    4    0    0 -0.39257242885E-04  0.42251979623E-02  0.30284506612E-01  0.30582123875E-01  0.51100000000E-03 0.  1.
         11    1    4    4    0    0  0.32285938679E-01  0.27923378373E-01  0.92298707854E-01  0.10169272092E+00  0.51100000000E-03 0. -1.
</event>
<event>
 8    1  0.1123285E+005  0.1043930E+01  0.7957747E-01            NaN
         13   -1    0    0    0    0  0.00000000000E+00  0.00000000000E+00  0.74505805969E-08  0.10566000000E+00  0.10566000000E+00 0.  1.
     999900   -1    0    0    0    0 -0.00000000000E+00 -0.00000000000E+00 -0.74505805969E-08  0.93827000000E+00  0.93827000000E+00 0. -1.
     999902    2    1    2    0    0  0.23545376369E-02  0.20405084447E-01 -0.88398955953E-02  0.10215680888E+01  0.10213233107E+01 0.  0.
     999903    2    3    3    0    0  0.40352049070E-01 -0.37213797937E-01  0.11633924808E+00  0.13003370107E+00  0.18994424120E-01 0.  0.
         14    1    1    2    0    0 -0.23545376369E-02 -0.20405084447E-01  0.88398955953E-02  0.22361911209E-01  0.00000000000E+00 0.  1.
     999901    1    3    3    0    0 -0.37997511433E-01  0.57618882384E-01 -0.12517914368E+00  0.89153438772E+00  0.88000000000E+00 0. -1.
        -11    1    4    4    0    0  0.13352759890E-01 -0.11188458447E-01  0.19326808021E-01  0.26024304571E-01  0.51100000000E-03 0.  1.
         11    1    4    4    0    0  0.26999289180E-01 -0.26025339489E-01  0.97012440062E-01  0.10400939650E+00  0.51100000000E-03 0. -1.
</event>
<event>
 8    1  0.1123285E+005  0.1043930E+01  0.7957747E-01            NaN
         13   -1    0    0    0    0  0.00000000000E+00  0.00000000000E+00  0.74505805969E-08  0.10566000000E+00  0.10566000000E+00 0.  1.
     999900   -1    0    0    0    0 -0.00000000000E+00 -0.00000000000E+00 -0.74505805969E-08  0.93827000000E+00  0.93827000000E+00 0. -1.
     999902    2    1    2    0    0  0.17287633529E-01 -0.18107975561E-02 -0.15894521706E-01  0.10203762937E+01  0.10201044082E+01 0.  0.
     999903    2    3    3    0    0 -0.20884234769E-01 -0.11784128990E+00 -0.49846252557E-01  0.13129087220E+00  0.20734593343E-01 0.  0.
         14    1    1    2    0    0 -0.17287633529E-01  0.18107975561E-02  0.15894521706E-01  0.23553706313E-01  0.00000000000E+00 0. -1.
     999901    1    3    3    0    0  0.38171868297E-01  0.11603049234E+00  0.33951730851E-01  0.88908542149E+00  0.88000000000E+00 0.  1.
        -11    1    4    4    0    0 -0.20561595131E-01 -0.59957626754E-01 -0.29680697488E-01  0.69992150451E-01  0.51100000000E-03 0. -1.
         11    1    4    4    0    0 -0.32263963780E-03 -0.57883663144E-01 -0.20165555068E-01  0.61298721744E-01  0.51100000000E-03 0.  1.
</event>
<event>
 8    1  0.1123285E+005  0.1043930E+01  0.7957747E-01            NaN
         13   -1    0    0    0    0  0.00000000000E+00  0.00000000000E+00  0.74505805969E-08  0.10566000000E+00  0.10566000000E+00 0.  1.
     999900   -1    0    0    0    0 -0.00000000000E+00 -0.00000000000E+00 -0.74505805969E-08  0.93827000000E+00  0.93827000000E+00 0. -1.
     999902    2    1    2    0    0  0.22228715945E-01 -0.79788264082E-02  0.46904687907E-02  0.10198514207E+01  0.10195671348E+01 0.  0.
     999903    2    3    3    0    0  0.11307995422E+00  0.21635894181E-02 -0.65924668918E-01  0.13230237205E+00  0.19133700979E-01 0.  0.
         14    1    1    2    0    0 -0.22228715945E-01  0.79788264082E-02 -0.46904687907E-02  0.24078579295E-01  0.00000000000E+00 0.  1.
     999901    1    3    3    0    0 -0.90851238272E-01 -0.10142415826E-01  0.70615137708E-01  0.88754904865E+00  0.88000000000E+00 0. -1.
        -11    1    4    4    0    0  0.39678412395E-01 -0.21002778914E-02 -0.13377743044E-01  0.41928662123E-01  0.51100000000E-03 0.  1.
         11    1    4    4    0    0  0.73401541822E-01  0.42638673095E-02 -0.52546925873E-01  0.90373709927E-01  0.51100000000E-03 0. -1.
</event>
<event>
 8    1  0.1123285E+005  0.1043930E+01  0.7957747E-01            NaN
         13   -1    0    0    0    0  0.00000000000E+00  0.00000000000E+00  0.74505805969E-08  0.10566000000E+00  0.10566000000E+00 0.  1.
     999900   -1    0    0    0    0 -0.00000000000E+00 -0.00000000000E+00 -0.74505805969E-08  0.93827000000E+00  0.93827000000E+00 0. -1.
     999902    2    1    2    0    0  0.63135576832E-02 -0.62362861715E-03 -0.21542611912E-01  0.10214726170E+01  0.10212257210E+01 0.  0.
     999903    2    3    3    0    0  0.10570863095E+00  0.24017851327E-01 -0.77025901106E-01  0.13379870249E+00  0.14762503391E-01 0.  0.
         14    1    1    2    0    0 -0.63135576832E-02  0.62362861715E-03  0.21542611912E-01  0.22457383001E-01  0.00000000000E+00 0.  1.
     999901    1    3    3    0    0 -0.99395073267E-01 -0.24641479944E-01  0.55483289194E-01  0.88767391451E+00  0.88000000000E+00 0.  1.
        -11    1    4    4    0    0  0.71883098818E-01  0.97267428478E-02 -0.54293383674E-01  0.90608068371E-01  0.51100000000E-03 0.  1.
         11    1    4    4    0    0  0.33825532132E-01  0.14291108479E-01 -0.22732517432E-01  0.43190634116E-01  0.51100000000E-03 0. -1.
</event>
<event>
 8    1  0.1123285E+005  0.1043930E+01  0.7957747E-01            NaN
         13   -1    0    0    0    0  0.00000000000E+00  0.00000000000E+00  0.74505805969E-08  0.10566000000E+00  0.10566000000E+00 0. -1.
     999900   -1    0    0    0    0 -0.00000000000E+00 -0.00000000000E+00 -0.74505805969E-08  0.93827000000E+00  0.93827000000E+00 0. -1.
     999902    2    1    2    0    0  0.17190960756E-01 -0.12114353781E-01  0.26207422421E-02  0.10227367230E+01  0.10225171146E+01 0.  0.
     999903    2    3    3    0    0 -0.10212136071E+00  0.69404711200E-01 -0.35997424010E-01  0.13011577840E+00  0.19710783931E-01 0.  0.
         14    1    1    2    0    0 -0.17190960756E-01  0.12114353781E-01 -0.26207422421E-02  0.21193276980E-01  0.00000000000E+00 0. -1.
     999901    1    3    3    0    0  0.11931232147E+00 -0.81519064981E-01  0.38618166252E-01  0.89262094462E+00  0.88000000000E+00 0.  1.
        -11    1    4    4    0    0 -0.49406096832E-01  0.22705118003E-01 -0.19636861178E-01  0.57813080057E-01  0.51100000000E-03 0.  1.
         11    1    4    4    0    0 -0.52715263878E-01  0.46699593197E-01 -0.16360562832E-01  0.72302698343E-01  0.51100000000E-03 0. -1.
</event>
<event>
 8    1  0.1123285E+005  0.1043930E+01  0.7957747E-01            NaN
         13   -1    0    0    0    0  0.00000000000E+00  0.00000000000E+00  0.74505805969E-08  0.10566000000E+00  0.10566000000E+00 0. -1.
     999900   -1    0    0    0    0 -0.00000000000E+00 -0.00000000000E+00 -0.74505805969E-08  0.93827000000E+00  0.93827000000E+00 0.  1.
     999902    2    1    2    0    0  0.14321737386E-01 -0.18229337074E-01  0.12258573433E-01  0.10177060889E+01  0.10173681683E+01 0.  0.
     999903    2    3    3    0    0 -0.66987154288E-01 -0.41350367472E-01 -0.97568821304E-01  0.12685942724E+00  0.19403805304E-01 0.  0.
         14    1    1    2    0    0 -0.14321737386E-01  0.18229337074E-01 -0.12258573433E-01  0.26223911122E-01  0.00000000000E+00 0.  1.
     999901    1    3    3    0    0  0.81308891674E-01  0.23121030398E-01  0.10982739474E+00  0.89084666164E+00  0.88000000000E+00 0. -1.
        -11    1    4    4    0    0 -0.32645562436E-01 -0.18116824607E-01 -0.61266064556E-01  0.71747779532E-01  0.51100000000E-03 0.  1.
         11    1    4    4    0    0 -0.34341591852E-01 -0.23233542865E-01 -0.36302756747E-01  0.55111647711E-01  0.51100000000E-03 0. -1.
</event>
<event>
 8    1  0.1123285E+005  0.1043930E+01  0.7957747E-01            NaN
         13   -1    0    0    0    0  0.00000000000E+00  0.00000000000E+00  0.74505805969E-08  0.10566000000E+00  0.10566000000E+00 0. -1.
     999900   -1    0    0    0    0 -0.00000000000E+00 -0.00000000000E+00 -0.74505805969E-08  0.93827000000E+00  0.93827000000E+00 0.  1.
     999902    2    1    2    0    0  0.13164078569E-01 -0.15790526331E-01 -0.17364452297E-01  0.10170198181E+01  0.10166637362E+01 0.  0.
     999903    2    3    3    0    0 -0.49199185839E-01  0.10797695422E+00 -0.37363863197E-01  0.12594880947E+00  0.19684049476E-01 0.  0.
         14    1    1    2    0    0 -0.13164078569E-01  0.15790526331E-01  0.17364452297E-01  0.26910181901E-01  0.00000000000E+00 0. -1.
     999901    1    3    3    0    0  0.62363264408E-01 -0.12376748055E+00  0.19999410901E-01  0.89107100863E+00  0.88000000000E+00 0. -1.
        -11    1    4    4    0    0 -0.23718108269E-01  0.74617793657E-01 -0.24298866954E-01  0.81982070274E-01  0.51100000000E-03 0.  1.
         11    1    4    4    0    0 -0.25481077570E-01  0.33359160560E-01 -0.13064996243E-01  0.43966739192E-01  0.51100000000E-03 0. -1.
</event>
<event>
 8    1  0.1123285E+005  0.1043930E+01  0.7957747E-01            NaN
         13   -1    0    0    0    0  0.00000000000E+00  0.00000000000E+00  0.74505805969E-08  0.10566000000E+00  0.10566000000E+00 0.  1.
     999900   -1    0    0    0    0 -0.00000000000E+00 -0.00000000000E+00 -0.74505805969E-08  0.93827000000E+00  0.93827000000E+00 0. -1.
     999902    2    1    2    0    0 -0.14728187451E-01 -0.17769010287E-01  0.10923197470E-02  0.10208247972E+01  0.10205632838E+01 0.  0.
     999903    2    3    3    0    0  0.13956959694E-01  0.73969369365E-02  0.12838305966E+00  0.13084777785E+00  0.19733716341E-01 0.  0.
         14    1    1    2    0    0  0.14728187451E-01  0.17769010287E-01 -0.10923197470E-02  0.23105202761E-01  0.00000000000E+00 0. -1.
     999901    1    3    3    0    0 -0.28685147146E-01 -0.25165947223E-01 -0.12729073992E+00  0.88997701939E+00  0.88000000000E+00 0. -1.
        -11    1    4    4    0    0  0.10165270584E-01 -0.37730612405E-02  0.90983014890E-01  0.91628264398E-01  0.51100000000E-03 0.  1.
         11    1    4    4    0    0  0.37916891101E-02  0.11169998177E-01  0.37400044774E-01  0.39219513455E-01  0.51100000000E-03 0. -1.
</event>
<event>
 8    1  0.1123285E+005  0.1043930E+01  0.7957747E-01            NaN
         13   -1    0    0    0    0  0.00000000000E+00  0.00000000000E+00  0.74505805969E-08  0.10566000000E+00  0.10566000000E+00 0. -1.
     999900   -1    0    0    0    0 -0.00000000000E+00 -0.00000000000E+00 -0.74505805969E-08  0.93827000000E+00  0.93827000000E+00 0.  1.
     999902    2    1    2    0    0 -0.11302347975E-02 -0.11628787563E-01 -0.19408061948E-01  0.10212765455E+01  0.10210252707E+01 0.  0.
     999903    2    3    3    0    0  0.10323548005E+00 -0.55137962112E-01 -0.58780731918E-01  0.13316874923E+00  0.24103570685E-01 0.  0.
         14    1    1    2    0    0  0.11302347975E-02  0.11628787563E-01  0.19408061948E-01  0.22653454471E-01  0.00000000000E+00 0. -1.
     999901    1    3    3    0    0 -0.10436571485E+00  0.43509174549E-01  0.39372669970E-01  0.88810779630E+00  0.88000000000E+00 0. -1.
        -11    1    4    4    0    0  0.83174552847E-01 -0.37551674355E-01 -0.36071154542E-01  0.98130137059E-01  0.51100000000E-03 0. -1.
         11    1    4    4    0    0  0.20060927202E-01 -0.17586287757E-01 -0.22709577376E-01  0.35038612171E-01  0.51100000000E-03 0.  1.
</event>
<event>
 7    1  0.1123285E+005  0.1043930E+01  0.7957747E-01            NaN
         13   -1    0    0    0    0  0.00000000000E+00  0.00000000000E+00  0.74505805969E-08  0.10566000000E+00  0.10566000000E+00 0.  1.
     999900   -1    0    0    0    0 -0.00000000000E+00 -0.00000000000E+00 -0.74505805969E-08  0.93827000000E+00  0.93827000000E+00 0.  1.
     999903    2    1    2    0    0 -0.20212289506E-01  0.67192618904E-01 -0.35067708649E-01  0.81386468808E-01  0.21693972271E-01 0.  0.
         14    1    1    2    0    0 -0.42954452669E-01  0.16084405977E-01 -0.55203458146E-01  0.71771964659E-01  0.00000000000E+00 0. -1.
     999901    1    1    2    0    0  0.63166742175E-01 -0.83277024880E-01  0.90271166795E-01  0.89077156653E+00  0.88000000000E+00 0.  1.
        -11    1    3    3    0    0 -0.15782465188E-01  0.18392382091E-01 -0.88171722907E-02  0.25794758665E-01  0.51100000000E-03 0.  1.
         11    1    3    3    0    0 -0.44298243182E-02  0.48800236813E-01 -0.26250536358E-01  0.55591710143E-01  0.51100000000E-03 0. -1.
</event>
<event>
 8    1  0.1123285E+005  0.1043930E+01  0.7957747E-01            NaN
         13   -1    0    0    0    0  0.00000000000E+00  0.00000000000E+00  0.74505805969E-08  0.10566000000E+00  0.10566000000E+00 0. -1.
     999900   -1    0    0    0    0 -0.00000000000E+00 -0.00000000000E+00 -0.74505805969E-08  0.93827000000E+00  0.93827000000E+00 0. -1.
     999902    2    1    2    0    0  0.99570180205E-02 -0.16889694689E-01  0.81771738732E-02  0.10226868795E+01  0.10224662260E+01 0.  0.
     999903    2    3    3    0    0  0.87615688548E-01 -0.10053040098E+00  0.13719354415E-01  0.13529894147E+00  0.18295148960E-01 0.  0.
         14    1    1    2    0    0 -0.99570180205E-02  0.16889694689E-01 -0.81771738732E-02  0.21243120466E-01  0.00000000000E+00 0. -1.
     999901    1    3    3    0    0 -0.77658670528E-01  0.83640706295E-01 -0.55421805420E-02  0.88738793806E+00  0.88000000000E+00 0. -1.
        -11    1    4    4    0    0  0.55283466886E-01 -0.49635587954E-01  0.81455010938E-02  0.74743318173E-01  0.51100000000E-03 0.  1.
         11    1    4    4    0    0  0.32332221662E-01 -0.50894813030E-01  0.55738533213E-02  0.60555623297E-01  0.51100000000E-03 0. -1.
</event>
<event>
 8    1  0.1123285E+005  0.1043930E+01  0.7957747E-01            NaN
         13   -1    0    0    0    0  0.00000000000E+00  0.00000000000E+00  0.74505805969E-08  0.10566000000E+00  0.10566000000E+00 0.  1.
     999900   -1    0    0    0    0 -0.00000000000E+00 -0.00000000000E+00 -0.74505805969E-08  0.93827000000E+00  0.93827000000E+00 0. -1.
     999902    2    1    2    0    0 -0.15459406481E-01  0.18009724829E-01  0.12337486191E-01  0.10171801028E+01  0.10168283063E+01 0.  0.
     999903    2    3    3    0    0 -0.44146531010E-01  0.34340924147E-01 -0.11215935663E+00  0.12780440989E+00  0.25020604222E-01 0.  0.
         14    1    1    2    0    0  0.15459406481E-01 -0.18009724829E-01 -0.12337486191E-01  0.26749897247E-01  0.00000000000E+00 0. -1.
     999901    1    3    3    0    0  0.28687124529E-01 -0.16331199318E-01  0.12449684282E+00  0.88937569286E+00  0.88000000000E+00 0.  1.
        -11    1    4    4    0    0 -0.58246636449E-02  0.63168414959E-03 -0.33664800182E-01  0.34174634215E-01  0.51100000000E-03 0. -1.
         11    1    4    4    0    0 -0.38321867365E-01  0.33709239997E-01 -0.78494556449E-01  0.93629775674E-01  0.51100000000E-03 0.  1.
</event>
<event>
 8    1  0.1123285E+005  0.1043930E+01  0.7957747E-01            NaN
         13   -1    0    0    0    0  0.00000000000E+00  0.00000000000E+00  0.74505805969E-08  0.10566000000E+00  0.10566000000E+00 0.  1.
     999900   -1    0    0    0    0 -0.00000000000E+00 -0.00000000000E+00 -0.74505805969E-08  0.93827000000E+00  0.93827000000E+00 0. -1.
     999902    2    1    2    0    0  0.36632830473E-02 -0.32057328565E-02 -0.22259698195E-01  0.10211442472E+01  0.10208899956E+01 0.  0.
     999903    2    3    3    0    0  0.53706398458E-01 -0.10175322386E+00  0.58395832064E-01  0.13057070397E+00  0.20013488744E-01 0.  0.
         14    1    1    2    0    0 -0.36632830473E-02  0.32057328565E-02  0.22259698195E-01  0.22785752776E-01  0.00000000000E+00 0.  1.
     999901    1    3    3    0    0 -0.50043115410E-01  0.98547491003E-01 -0.80655530259E-01  0.89057354325E+00  0.88000000000E+00 0. -1.
        -11    1    4    4    0    0  0.15152649598E-01 -0.49268896981E-01  0.22983740305E-01  0.56440592121E-01  0.51100000000E-03 0. -1.
         11    1    4    4    0    0  0.38553748860E-01 -0.52484326878E-01  0.35412091759E-01  0.74130111849E-01  0.51100000000E-03 0.  1.
</event>
<event>
 8    1  0.1123285E+005  0.1043930E+01  0.7957747E-01            NaN
         13   -1    0    0    0    0  0.00000000000E+00  0.00000000000E+00  0.74505805969E-08  0.10566000000E+00  0.10566000000E+00 0. -1.
     999900   -1    0    0    0    0 -0.00000000000E+00 -0.00000000000E+00 -0.74505805969E-08  0.93827000000E+00  0.93827000000E+00 0.  1.
     999902    2    1    2    0    0 -0.22931093094E-01 -0.39265394240E-02  0.34012595609E-02  0.10204178476E+01  0.10201469318E+01 0.  0.
     999903    2    3    3    0    0  0.23106314072E-01  0.12506119427E+00 -0.15465908367E-01  0.12962424172E+00  0.19724240421E-01 0.  0.
         14    1    1    2    0    0  0.22931093094E-01  0.39265394240E-02 -0.34012595609E-02  0.23512152367E-01  0.00000000000E+00 0. -1.
     999901    1    3    3    0    0 -0.46037407166E-01 -0.12898773369E+00  0.18867167928E-01  0.89079360591E+00  0.88000000000E+00 0.  1.
        -11    1    4    4    0    0  0.85895788240E-02  0.61432941187E-01 -0.17072990834E-01  0.64339220264E-01  0.51100000000E-03 0.  1.
         11    1    4    4    0    0  0.14516735248E-01  0.63628253078E-01  0.16070824665E-02  0.65285021461E-01  0.51100000000E-03 0. -1.
</event>
<event>
 8    1  0.1123285E+005  0.1043930E+01  0.7957747E-01            NaN
         13   -1    0    0    0    0  0.00000000000E+00  0.00000000000E+00  0.74505805969E-08  0.10566000000E+00  0.10566000000E+00 0. -1.
     999900   -1    0    0    0    0 -0.00000000000E+00 -0.00000000000E+00 -0.74505805969E-08  0.93827000000E+00  0.93827000000E+00 0.  1.
     999902    2    1    2    0    0  0.88646825447E-02  0.84328070532E-02  0.21107911843E-01  0.10195324843E+01  0.10192405250E+01 0.  0.
     999903    2    3    3    0    0  0.63686351825E-01  0.48173467335E-01 -0.99077787272E-01  0.12878597837E+00  0.19818827666E-01 0.  0.
         14    1    1    2    0    0 -0.88646825447E-02 -0.84328070532E-02 -0.21107911843E-01  0.24397515730E-01  0.00000000000E+00 0. -1.
     999901    1    3    3    0    0 -0.54821669280E-01 -0.39740660282E-01  0.12018569912E+00  0.89074650590E+00  0.88000000000E+00 0. -1.
        -11    1    4    4    0    0  0.56261382812E-01  0.32701030113E-01 -0.76947366691E-01  0.10077628158E+00  0.51100000000E-03 0.  1.
         11    1    4    4    0    0  0.74249690126E-02  0.15472437222E-01 -0.22130420581E-01  0.28009696795E-01  0.51100000000E-03 0. -1.
</event>
<event>
 8    1  0.1123285E+005  0.1043930E+01  0.7957747E-01            NaN
         13   -1    0    0    0    0  0.00000000000E+00  0.00000000000E+00  0.74505805969E-08  0.10566000000E+00  0.10566000000E+00 0. -1.
     999900   -1    0    0    0    0 -0.00000000000E+00 -0.00000000000E+00 -0.74505805969E-08  0.93827000000E+00  0.93827000000E+00 0. -1.
     999902    2    1    2    0    0  0.25794624987E-02  0.42008639258E-02 -0.22824226288E-01  0.10205794927E+01  0.10203123320E+01 0.  0.
     999903    2    3    3    0    0 -0.11848153885E+00  0.33283262007E-02  0.48036457803E-01  0.12946908210E+00  0.20144208559E-01 0.  0.
         14    1    1    2    0    0 -0.25794624987E-02 -0.42008639258E-02  0.22824226288E-01  0.23350507278E-01  0.00000000000E+00 0. -1.
     999901    1    3    3    0    0  0.12106100135E+00  0.87253772509E-03 -0.70860684091E-01  0.89111041062E+00  0.88000000000E+00 0. -1.
        -11    1    4    4    0    0 -0.61609000062E-01  0.81801647451E-02  0.33325153846E-01  0.70522414762E-01  0.51100000000E-03 0.  1.
         11    1    4    4    0    0 -0.56872538785E-01 -0.48518385444E-02  0.14711303956E-01  0.58946667338E-01  0.51100000000E-03 0. -1.
</event>
<event>
 8    1  0.1123285E+005  0.1043930E+01  0.7957747E-01            NaN
         13   -1    0    0    0    0  0.00000000000E+00  0.00000000000E+00  0.74505805969E-08  0.10566000000E+00  0.10566000000E+00 0.  1.
     999900   -1    0    0    0    0 -0.00000000000E+00 -0.00000000000E+00 -0.74505805969E-08  0.93827000000E+00  0.93827000000E+00 0.  1.
     999902    2    1    2    0    0 -0.17722831382E-01 -0.80273782518E-02 -0.17197607840E-01  0.10179628040E+01  0.10176315517E+01 0.  0.
     999903    2    3    3    0    0  0.84423453950E-01 -0.54229298042E-01  0.74412673667E-01  0.12613270543E+00  0.17437804728E-01 0.  0.
         14    1    1    2    0    0  0.17722831382E-01  0.80273782518E-02  0.17197607840E-01  0.25967196022E-01  0.00000000000E+00 0.  1.
     999901    1    3    3    0    0 -0.10214628533E+00  0.46201919790E-01 -0.91610281507E-01  0.89183009855E+00  0.88000000000E+00 0.  1.
        -11    1    4    4    0    0  0.49886102973E-01 -0.26376192646E-01  0.32641560023E-01  0.65192479397E-01  0.51100000000E-03 0.  1.
         11    1    4    4    0    0  0.34537350978E-01 -0.27853105396E-01  0.41771113644E-01  0.60940226032E-01  0.51100000000E-03 0. -1.
</event>
<event>
 8    1  0.1123285E+005  0.1043930E+01  0.7957747E-01            NaN
         13   -1    0    0    0    0  0.00000000000E+00  0.00000000000E+00  0.74505805969E-08  0.10566000000E+00  0.10566000000E+00 0.  1.
     999900   -1    0    0    0    0 -0.00000000000E+00 -0.00000000000E+00 -0.74505805969E-08  0.93827000000E+00  0.93827000000E+00 0.  1.
     999902    2    1    2    0    0 -0.39190930576E-05  0.16415642572E-01 -0.16568089182E-01  0.10206067302E+01  0.10203401995E+01 0.  0.
     999903    2    3    3    0    0  0.99433246644E-01  0.81163258999E-01  0.22487128230E-01  0.13178429921E+00  0.19671945348E-01 0.  0.
         14    1    1    2    0    0  0.39190930576E-05 -0.16415642572E-01  0.16568089182E-01  0.23323269830E-01  0.00000000000E+00 0.  1.
     999901    1    3    3    0    0 -0.99437165737E-01 -0.64747616427E-01 -0.39055217411E-01  0.88882243096E+00  0.88000000000E+00 0.  1.
        -11    1    4    4    0    0  0.75847676159E-01  0.67945868090E-01  0.11072044262E-01  0.10243223250E+00  0.51100000000E-03 0.  1.
         11    1    4    4    0    0  0.23585570486E-01  0.13217390909E-01  0.11415083968E-01  0.29352066717E-01  0.51100000000E-03 0. -1.
</event>
<event>
 8    1  0.1123285E+005  0.1043930E+01  0.7957747E-01            NaN
         13   -1    0    0    0    0  0.00000000000E+00  0.00000000000E+00  0.74505805969E-08  0.10566000000E+00  0.10566000000E+00 0. -1.
     999900   -1    0    0    0    0 -0.00000000000E+00 -0.00000000000E+00 -0.74505805969E-08  0.93827000000E+00  0.93827000000E+00 0.  1.
     999902    2    1    2    0    0  0.25933261759E-02 -0.10604971698E-01 -0.19318411152E-01  0.10217400975E+01  0.10214991116E+01 0.  0.
     999903    2    3    3    0    0 -0.83539939777E-02  0.11780497089E+00 -0.53496753141E-01  0.13169677479E+00  0.23115741630E-01 0.  0.
         14    1    1    2    0    0 -0.25933261759E-02  0.10604971698E-01  0.19318411152E-01  0.22189902542E-01  0.00000000000E+00 0. -1.
     999901    1    3    3    0    0  0.10947320154E-01 -0.12840994259E+00  0.34178341990E-01  0.89004332267E+00  0.88000000000E+00 0. -1.
        -11    1    4    4    0    0  0.24449917297E-02  0.90433621642E-01 -0.35391914577E-01  0.97144565706E-01  0.51100000000E-03 0.  1.
         11    1    4    4    0    0 -0.10798985707E-01  0.27371349245E-01 -0.18104838564E-01  0.34552209079E-01  0.51100000000E-03 0. -1.
</event>
<event>
 8    1  0.1123285E+005  0.1043930E+01  0.7957747E-01            NaN
         13   -1    0    0    0    0  0.00000000000E+00  0.00000000000E+00  0.74505805969E-08  0.10566000000E+00  0.10566000000E+00 0. -1.
     999900   -1    0    0    0    0 -0.00000000000E+00 -0.00000000000E+00 -0.74505805969E-08  0.93827000000E+00  0.93827000000E+00 0. -1.
     999902    2    1    2    0    0  0.17700255943E-01  0.14283325025E-01  0.68899115904E-02  0.10201648298E+01  0.10198879824E+01 0.  0.
     999903    2    3    3    0    0  0.21703566272E-01  0.18332781240E-01 -0.12528540971E+00  0.13027565681E+00  0.21637403122E-01 0.  0.
         14    1    1    2    0    0 -0.17700255943E-01 -0.14283325025E-01 -0.68899115904E-02  0.23765170227E-01  0.00000000000E+00 0.  1.
     999901    1    3    3    0    0 -0.40033103293E-02 -0.40494562156E-02  0.13217532130E+00  0.88988917296E+00  0.88000000000E+00 0.  1.
        -11    1    4    4    0    0  0.98357982809E-02 -0.31917705557E-02 -0.25853430369E-01  0.27849440030E-01  0.51100000000E-03 0.  1.
         11    1    4    4    0    0  0.11867767991E-01  0.21524551796E-01 -0.99431979344E-01  0.10242621678E+00  0.51100000000E-03 0. -1.
</event>
<event>
 8    1  0.1123285E+005  0.1043930E+01  0.7957747E-01            NaN
         13   -1    0    0    0    0  0.00000000000E+00  0.00000000000E+00  0.74505805969E-08  0.10566000000E+00  0.10566000000E+00 0. -1.
     999900   -1    0    0    0    0 -0.00000000000E+00 -0.00000000000E+00 -0.74505805969E-08  0.93827000000E+00  0.93827000000E+00 0. -1.
     999902    2    1    2    0    0  0.10403071727E-01 -0.14400644516E-01  0.14917507858E-01  0.10207322737E+01  0.10204686375E+01 0.  0.
     999903    2    3    3    0    0 -0.87234398241E-01 -0.96334532151E-01 -0.26036107142E-02  0.13137676152E+00  0.19049733796E-01 0.  0.
         14    1    1    2    0    0 -0.10403071727E-01  0.14400644516E-01 -0.14917507858E-01  0.23197726279E-01  0.00000000000E+00 0.  1.
     999901    1    3    3    0    0  0.97637469968E-01  0.81933887635E-01  0.17521118573E-01  0.88935551220E+00  0.88000000000E+00 0.  1.
        -11    1    4    4    0    0 -0.33799478104E-01 -0.39195494272E-01 -0.10274277061E-01  0.52768488527E-01  0.51100000000E-03 0.  1.
         11    1    4    4    0    0 -0.53434920137E-01 -0.57139037879E-01  0.76706663472E-02  0.78608272993E-01  0.51100000000E-03 0. -1.
</event>
<event>
 8    1  0.1123285E+005  0.1043930E+01  0.7957747E-01            NaN
         13   -1    0    0    0    0  0.00000000000E+00  0.00000000000E+00  0.74505805969E-08  0.10566000000E+00  0.10566000000E+00 0.  1.
     999900   -1    0    0    0    0 -0.00000000000E+00 -0.00000000000E+00 -0.74505805969E-08  0.93827000000E+00  0.93827000000E+00 0.  1.
     999902    2    1    2    0    0 -0.15002896487E-01 -0.17191942767E-01  0.52997143382E-02  0.10205048688E+01  0.10202359778E+01 0.  0.
     999903    2    3    3    0    0 -0.29573179511E-01 -0.26049857414E-01 -0.12302997181E+00  0.13103352911E+00  0.21914464874E-01 0.  0.
         14    1    1    2    0    0  0.15002896487E-01  0.17191942767E-01 -0.52997143382E-02  0.23425131188E-01  0.00000000000E+00 0.  1.
     999901    1    3    3    0    0  0.14570283024E-01  0.88579146473E-02  0.12832968615E+00  0.88947133970E+00  0.88000000000E+00 0. -1.
        -11    1    4    4    0    0 -0.19887369070E-01 -0.28806600038E-01 -0.95964265955E-01  0.10215052186E+00  0.51100000000E-03 0. -1.
         11    1    4    4    0    0 -0.96858104411E-02  0.27567426236E-02 -0.27065705855E-01  0.28883007257E-01  0.51100000000E-03 0.  1.
</event>
<event>
 8    1  0.1123285E+005  0.1043930E+01  0.7957747E-01            NaN
         13   -1    0    0    0    0  0.00000000000E+00  0.00000000000E+00  0.74505805969E-08  0.10566000000E+00  0.10566000000E+00 0.  1.
     999900   -1    0    0    0    0 -0.00000000000E+00 -0.00000000000E+00 -0.74505805969E-08  0.93827000000E+00  0.93827000000E+00 0. -1.
     999902    2    1    2    0    0 -0.19040306020E-01 -0.95373082865E-02  0.11226396995E-01  0.10198566643E+01  0.10195725037E+01 0.  0.
     999903    2    3    3    0    0 -0.24018075674E-02 -0.10811359821E+00 -0.70429537065E-01  0.13044010489E+00  0.18973204116E-01 0.  0.
         14    1    1    2    0    0  0.19040306020E-01  0.95373082865E-02 -0.11226396995E-01  0.24073335710E-01  0.00000000000E+00 0.  1.
     999901    1    3    3    0    0 -0.16638498453E-01  0.98576289927E-01  0.81655934060E-01  0.88941655940E+00  0.88000000000E+00 0.  1.
        -11    1    4    4    0    0  0.57587908207E-02 -0.18411254426E-01 -0.82426535351E-02  0.20984289827E-01  0.51100000000E-03 0.  1.
         11    1    4    4    0    0 -0.81605983881E-02 -0.89702343788E-01 -0.62186883530E-01  0.10945581506E+00  0.51100000000E-03 0. -1.
</event>
<event>
 8    1  0.1123285E+005  0.1043930E+01  0.7957747E-01            NaN
         13   -1    0    0    0    0  0.00000000000E+00  0.00000000000E+00  0.74505805969E-08  0.10566000000E+00  0.10566000000E+00 0.  1.
     999900   -1    0    0    0    0 -0.00000000000E+00 -0.00000000000E+00 -0.74505805969E-08  0.93827000000E+00  0.93827000000E+00 0. -1.
     999902    2    1    2    0    0 -0.17738272098E-01 -0.42512643298E-02 -0.14902015062E-01  0.10203760280E+01  0.10201041363E+01 0.  0.
     999903    2    3    3    0    0  0.11231144352E+00  0.52319519103E-01  0.26298464018E-01  0.12806965595E+00  0.18948222660E-01 0.  0.
         14    1    1    2    0    0  0.17738272098E-01  0.42512643298E-02  0.14902015062E-01  0.23553972029E-01  0.00000000000E+00 0.  1.
     999901    1    3    3    0    0 -0.13004971561E+00 -0.56570783432E-01 -0.41200479080E-01  0.89230637202E+00  0.88000000000E+00 0. -1.
        -11    1    4    4    0    0  0.82818131050E-01  0.35485821127E-01  0.27125752289E-01  0.94096513697E-01  0.51100000000E-03 0. -1.
         11    1    4    4    0    0  0.29493312466E-01  0.16833697976E-01 -0.82728827075E-03  0.33973142255E-01  0.51100000000E-03 0.  1.
</event>
<event>
 8    1  0.1123285E+005  0.1043930E+01  0.7957747E-01            NaN
         13   -1    0    0    0    0  0.00000000000E+00  0.00000000000E+00  0.74505805969E-08  0.10566000000E+00  0.10566000000E+00 0.  1.
     999900   -1    0    0    0    0 -0.00000000000E+00 -0.00000000000E+00 -0.74505805969E-08  0.93827000000E+00  0.93827000000E+00 0.  1.
     999902    2    1    2    0    0 -0.17971526755E-01  0.14629440105E-01  0.32945180994E-02  0.10205238012E+01  0.10202553498E+01 0.  0.
     999903    2    3    3    0    0  0.72436760513E-01  0.10010362389E+00  0.38982003079E-01  0.13105593160E+00  0.19703828428E-01 0.  0.
         14    1    1    2    0    0  0.17971526755E-01 -0.14629440105E-01 -0.32945180994E-02  0.23406198777E-01  0.00000000000E+00 0. -1.
     999901    1    3    3    0    0 -0.90408287268E-01 -0.85474183786E-01 -0.35687484980E-01  0.88946786962E+00  0.88000000000E+00 0.  1.
        -11    1    4    4    0    0  0.12346784041E-01  0.97276217387E-02  0.10299439937E-01  0.18799183090E-01  0.51100000000E-03 0. -1.
         11    1    4    4    0    0  0.60089976473E-01  0.90376002152E-01  0.28682563142E-01  0.11225674851E+00  0.51100000000E-03 0.  1.
</event>
<event>
 8    1  0.1123285E+005  0.1043930E+01  0.7957747E-01            NaN
         13   -1    0    0    0    0  0.00000000000E+00  0.00000000000E+00  0.74505805969E-08  0.10566000000E+00  0.10566000000E+00 0.  1.
     999900   -1    0    0    0    0 -0.00000000000E+00 -0.00000000000E+00 -0.74505805969E-08  0.93827000000E+00  0.93827000000E+00 0. -1.
     999902    2    1    2    0    0  0.45994273061E-02  0.18224270723E-01  0.13820977391E-01  0.10205998009E+01  0.10203331100E+01 0.  0.
     999903    2    3    3    0    0 -0.64822538086E-01 -0.81610958415E-01  0.75133285721E-01  0.13012482571E+00  0.20619157711E-01 0.  0.
         14    1    1    2    0    0 -0.45994273061E-02 -0.18224270723E-01 -0.13820977391E-01  0.23330199120E-01  0.00000000000E+00 0. -1.
     999901    1    3    3    0    0  0.69421965392E-01  0.99835229139E-01 -0.61312308330E-01  0.89047497517E+00  0.88000000000E+00 0. -1.
        -11    1    4    4    0    0 -0.25657707596E-01 -0.46893890250E-01  0.43917137660E-01  0.69183314485E-01  0.51100000000E-03 0. -1.
         11    1    4    4    0    0 -0.39164830490E-01 -0.34717068165E-01  0.31216148061E-01  0.60941511222E-01  0.51100000000E-03 0.  1.
</event>
<event>
 8    1  0.1123285E+005  0.1043930E+01  0.7957747E-01            NaN
         13   -1    0    0    0    0  0.00000000000E+00  0.00000000000E+00  0.74505805969E-08  0.10566000000E+00  0.10566000000E+00 0.  1.
     999900   -1    0    0    0    0 -0.00000000000E+00 -0.00000000000E+00 -0.74505805969E-08  0.93827000000E+00  0.93827000000E+00 0. -1.
     999902    2    1    2    0    0  0.17595432888E-01  0.21709528655E-03 -0.15471894303E-01  0.10204986982E+01  0.10202296640E+01 0.  0.
     999903    2    3    3    0    0 -0.12494499203E+00  0.21239251962E-01  0.69160035521E-02  0.12850042370E+00  0.20054199805E-01 0.  0.
         14    1    1    2    0    0 -0.17595432888E-01 -0.21709528655E-03  0.15471894303E-01  0.23431301761E-01  0.00000000000E+00 0.  1.
     999901    1    3    3    0    0  0.14254042492E+00 -0.21022156676E-01 -0.22387897856E-01  0.89199827454E+00  0.88000000000E+00 0.  1.
        -11    1    4    4    0    0 -0.94119396718E-01  0.19064719274E-01 -0.28899453907E-02  0.96075685087E-01  0.51100000000E-03 0.  1.
         11    1    4    4    0    0 -0.30825595309E-01  0.21745326887E-02  0.98059489428E-02  0.32424738615E-01  0.51100000000E-03 0. -1.
</event>
<event>
 8    1  0.1123285E+005  0.1043930E+01  0.7957747E-01            NaN
         13   -1    0    0    0    0  0.00000000000E+00  0.00000000000E+00  0.74505805969E-08  0.10566000000E+00  0.10566000000E+00 0.  1.
     999900   -1    0    0    0    0 -0.00000000000E+00 -0.00000000000E+00 -0.74505805969E-08  0.93827000000E+00  0.93827000000E+00 0.  1.
     999902    2    1    2    0    0  0.16122954744E-01 -0.40575537912E-02 -0.13431904044E-01  0.10225564308E+01  0.10223330303E+01 0.  0.
     999903    2    3    3    0    0  0.13238366541E+00  0.19248636004E-03 -0.17661171209E-01  0.13488954378E+00  0.18915605554E-01 0.  0.
         14    1    1    2    0    0 -0.16122954744E-01  0.40575537912E-02  0.13431904044E-01  0.21373569162E-01  0.00000000000E+00 0.  1.
     999901    1    3    3    0    0 -0.11626071067E+00 -0.42500401512E-02  0.42292671650E-02  0.88766688706E+00  0.88000000000E+00 0.  1.
        -11    1    4    4    0    0  0.10172541063E+00  0.43833651935E-02 -0.66373951892E-02  0.10203719515E+00  0.51100000000E-03 0.  1.
         11    1    4    4    0    0  0.30658254782E-01 -0.41908788335E-02 -0.11023776020E-01  0.32852348629E-01  0.51100000000E-03 0. -1.
</event>
<event>
 8    1  0.1123285E+005  0.1043930E+01  0.7957747E-01            NaN
         13   -1    0    0    0    0  0.00000000000E+00  0.00000000000E+00  0.74505805969E-08  0.10566000000E+00  0.10566000000E+00 0. -1.
     999900   -1    0    0    0    0 -0.00000000000E+00 -0.00000000000E+00 -0.74505805969E-08  0.93827000000E+00  0.93827000000E+00 0. -1.
     999902    2    1    2    0    0  0.15838133489E-01  0.13074071487E-02  0.16940509358E-01  0.10207020719E+01  0.10204377409E+01 0.  0.
     999903    2    3    3    0    0 -0.85889756966E-01  0.32287730053E-02  0.95582670345E-01  0.13135576994E+00  0.27033610571E-01 0.  0.
         14    1    1    2    0    0 -0.15838133489E-01 -0.13074071487E-02 -0.16940509358E-01  0.23227928086E-01  0.00000000000E+00 0.  1.
     999901    1    3    3    0    0  0.10172789045E+00 -0.19213658566E-02 -0.78642160988E-01  0.88934630197E+00  0.88000000000E+00 0.  1.
        -11    1    4    4    0    0 -0.38014144815E-02 -0.74827839961E-03  0.17709705752E-01  0.18135751197E-01  0.51100000000E-03 0.  1.
         11    1    4    4    0    0 -0.82088342485E-01  0.39770514049E-02  0.77872964593E-01  0.11322001875E+00  0.51100000000E-03 0. -1.
</event>
<event>
 8    1  0.1123285E+005  0.1043930E+01  0.7957747E-01            NaN
         13   -1    0    0    0    0  0.00000000000E+00  0.00000000000E+00  0.74505805969E-08  0.10566000000E+00  0.10566000000E+00 0.  1.
     999900   -1    0    0    0    0 -0.00000000000E+00 -0.00000000000E+00 -0.74505805969E-08  0.93827000000E+00  0.93827000000E+00 0. -1.
     999902    2    1    2    0    0 -0.89061219026E-02 -0.17199235199E-01 -0.37429126132E-02  0.10242033152E+01  0.10240133245E+01 0.  0.
     999903    2    3    3    0    0  0.25496087150E-01 -0.11942026335E+00 -0.55883032389E-01  0.13608663216E+00  0.22031985533E-01 0.  0.
         14    1    1    2    0    0  0.89061219026E-02  0.17199235199E-01  0.37429126132E-02  0.19726684810E-01  0.00000000000E+00 0. -1.
     999901    1    3    3    0    0 -0.34402209053E-01  0.10222102815E+00  0.52140119776E-01  0.88811668303E+00  0.88000000000E+00 0.  1.
        -11    1    4    4    0    0  0.96029558150E-02 -0.74968670562E-01 -0.24736643763E-01  0.79527862991E-01  0.51100000000E-03 0.  1.
         11    1    4    4    0    0  0.15893131335E-01 -0.44451592783E-01 -0.31146388626E-01  0.56558769170E-01  0.51100000000E-03 0. -1.
</event>
<event>
 8    1  0.1123285E+005  0.1043930E+01  0.7957747E-01            NaN
         13   -1    0    0    0    0  0.00000000000E+00  0.00000000000E+00  0.74505805969E-08  0.10566000000E+00  0.10566000000E+00 0. -1.
     999900   -1    0    0    0    0 -0.00000000000E+00 -0.00000000000E+00 -0.74505805969E-08  0.93827000000E+00  0.93827000000E+00 0.  1.
     999902    2    1    2    0    0 -0.20978346361E-01  0.25446732573E-02  0.10847519628E-01  0.10201763674E+01  0.10198997919E+01 0.  0.
     999903    2    3    3    0    0  0.11869483388E+00 -0.30994847764E-01  0.31443945406E-01  0.12829200862E+00  0.20517641074E-01 0.  0.
         14    1    1    2    0    0  0.20978346361E-01 -0.25446732573E-02 -0.10847519628E-01  0.23753632566E-01  0.00000000000E+00 0. -1.
     999901    1    3    3    0    0 -0.13967318024E+00  0.33539521022E-01 -0.20596425779E-01  0.89188435882E+00  0.88000000000E+00 0.  1.
        -11    1    4    4    0    0  0.74733719976E-01 -0.15474861019E-01  0.28867659362E-01  0.81597813102E-01  0.51100000000E-03 0.  1.
         11    1    4    4    0    0  0.43961113901E-01 -0.15519986746E-01  0.25762860446E-02  0.46694195515E-01  0.51100000000E-03 0. -1.
</event>
<event>
 8    1  0.1123285E+005  0.1043930E+01  0.7957747E-01            NaN
         13   -1    0    0    0    0  0.00000000000E+00  0.00000000000E+00  0.74505805969E-08  0.10566000000E+00  0.10566000000E+00 0. -1.
     999900   -1    0    0    0    0 -0.00000000000E+00 -0.00000000000E+00 -0.74505805969E-08  0.93827000000E+00  0.93827000000E+00 0.  1.
     999902    2    1    2    0    0 -0.20638377620E-01  0.38695349160E-03 -0.10149818235E-01  0.10209275833E+01  0.10206684178E+01 0.  0.
     999903    2    3    3    0    0 -0.17013720727E-01 -0.18799709459E-01 -0.12875460350E+00  0.13275622525E+00  0.20089092873E-01 0.  0.
         14    1    1    2    0    0  0.20638377620E-01 -0.38695349160E-03  0.10149818235E-01  0.23002416699E-01  0.00000000000E+00 0. -1.
     999901    1    3    3    0    0 -0.36246568929E-02  0.19186662950E-01  0.11860478526E+00  0.88817135805E+00  0.88000000000E+00 0. -1.
        -11    1    4    4    0    0 -0.13247497580E-02 -0.21120436582E-02 -0.64310969836E-01  0.64361305554E-01  0.51100000000E-03 0.  1.
         11    1    4    4    0    0 -0.15688970970E-01 -0.16687665800E-01 -0.64443633661E-01  0.68394919697E-01  0.51100000000E-03 0. -1.
</event>
<event>
 8    1  0.1123285E+005  0.1043930E+01  0.7957747E-01            NaN
         13   -1    0    0    0    0  0.00000000000E+00  0.00000000000E+00  0.74505805969E-08  0.10566000000E+00  0.10566000000E+00 0.  1.
     999900   -1    0    0    0    0 -0.00000000000E+00 -0.00000000000E+00 -0.74505805969E-08  0.93827000000E+00  0.93827000000E+00 0. -1.
     999902    2    1    2    0    0 -0.11491284816E-01  0.25071320756E-01  0.83570724504E-02  0.10151122726E+01  0.10147031411E+01 0.  0.
     999903    2    3    3    0    0  0.32057677558E-01  0.93960139180E-01  0.79073395187E-01  0.12852162315E+00  0.20223831151E-01 0.  0.
         14    1    1    2    0    0  0.11491284816E-01 -0.25071320756E-01 -0.83570724504E-02  0.28817727376E-01  0.00000000000E+00 0. -1.
     999901    1    3    3    0    0 -0.43548962374E-01 -0.68888818424E-01 -0.70716322737E-01  0.88659064947E+00  0.88000000000E+00 0. -1.
        -11    1    4    4    0    0  0.18213930833E-01  0.76930845683E-01  0.65874520934E-01  0.10290683128E+00  0.51100000000E-03 0.  1.
         11    1    4    4    0    0  0.13843746725E-01  0.17029293497E-01  0.13198874253E-01  0.25614791878E-01  0.51100000000E-03 0. -1.
</event>
<event>
 8    1  0.1123285E+005  0.1043930E+01  0.7957747E-01            NaN
         13   -1    0    0    0    0  0.00000000000E+00  0.00000000000E+00  0.74505805969E-08  0.10566000000E+00  0.10566000000E+00 0. -1.
     999900   -1    0    0    0    0 -0.00000000000E+00 -0.00000000000E+00 -0.74505805969E-08  0.93827000000E+00  0.93827000000E+00 0.  1.
     999902    2    1    2    0    0 -0.17732865912E-01 -0.35049693901E-02  0.15242521883E-01  0.10202852581E+01  0.10200112422E+01 0.  0.
     999903    2    3    3    0    0 -0.17100817004E-01  0.10555420304E+00  0.73899312129E-01  0.13161494717E+00  0.20670226513E-01 0.  0.
         14    1    1    2    0    0  0.17732865912E-01  0.35049693901E-02 -0.15242521883E-01  0.23644741852E-01  0.00000000000E+00 0. -1.
     999901    1    3    3    0    0 -0.63204890733E-03 -0.10905917243E+00 -0.58656790246E-01  0.88867031098E+00  0.88000000000E+00 0. -1.
        -11    1    4    4    0    0 -0.16362801803E-01  0.39583312329E-01  0.31832018425E-01  0.53367765700E-01  0.51100000000E-03 0. -1.
         11    1    4    4    0    0 -0.73801520086E-03  0.65970890707E-01  0.42067293704E-01  0.78247181468E-01  0.51100000000E-03 0.  1.
</event>
<event>
 8    1  0.1123285E+005  0.1043930E+01  0.7957747E-01            NaN
         13   -1    0    0    0    0  0.00000000000E+00  0.00000000000E+00  0.74505805969E-08  0.10566000000E+00  0.10566000000E+00 0. -1.
     999900   -1    0    0    0    0 -0.00000000000E+00 -0.00000000000E+00 -0.74505805969E-08  0.93827000000E+00  0.93827000000E+00 0.  1.
     999902    2    1    2    0    0 -0.21323541326E-01 -0.11170556266E-01 -0.13382452384E-02  0.10198205487E+01  0.10195355246E+01 0.  0.
     999903    2    3    3    0    0  0.55551156044E-01  0.70629219240E-01  0.89260325756E-01  0.12807561687E+00  0.19014213998E-01 0.  0.
         14    1    1    2    0    0  0.21323541326E-01  0.11170556266E-01  0.13382452384E-02  0.24109451306E-01  0.00000000000E+00 0.  1.
     999901    1    3    3    0    0 -0.76874697370E-01 -0.81799775507E-01 -0.90598570995E-01  0.89174493182E+00  0.88000000000E+00 0.  1.
        -11    1    4    4    0    0  0.32966242132E-01  0.36119319734E-01  0.36073612293E-01  0.60769605916E-01  0.51100000000E-03 0.  1.
         11    1    4    4    0    0  0.22584913912E-01  0.34509899507E-01  0.53186713464E-01  0.67306010953E-01  0.51100000000E-03 0. -1.
</event>
<event>
 8    1  0.1123285E+005  0.1043930E+01  0.7957747E-01            NaN
         13   -1    0    0    0    0  0.00000000000E+00  0.00000000000E+00  0.74505805969E-08  0.10566000000E+00  0.10566000000E+00 0.  1.
     999900   -1    0    0    0    0 -0.00000000000E+00 -0.00000000000E+00 -0.74505805969E-08  0.93827000000E+00  0.93827000000E+00 0. -1.
     999902    2    1    2    0    0  0.55629190649E-02 -0.26066822967E-01 -0.12958065310E-01  0.10142932528E+01  0.10138601806E+01 0.  0.
     999903    2    3    3    0    0  0.75408475508E-01  0.15887107775E-01 -0.98216375406E-01  0.12642641960E+00  0.19958577156E-01 0.  0.
         14    1    1    2    0    0 -0.55629190649E-02  0.26066822967E-01  0.12958065310E-01  0.29636747202E-01  0.00000000000E+00 0.  1.
     999901    1    3    3    0    0 -0.69845556443E-01 -0.41953930742E-01  0.85258310097E-01  0.88786683320E+00  0.88000000000E+00 0.  1.
        -11    1    4    4    0    0  0.20548429711E-01 -0.37650807621E-02 -0.20357522240E-01  0.29173680424E-01  0.51100000000E-03 0. -1.
         11    1    4    4    0    0  0.54860045798E-01  0.19652188537E-01 -0.77858853166E-01  0.97252739173E-01  0.51100000000E-03 0.  1.
</event>
<event>
 8    1  0.1123285E+005  0.1043930E+01  0.7957747E-01            NaN
         13   -1    0    0    0    0  0.00000000000E+00  0.00000000000E+00  0.74505805969E-08  0.10566000000E+00  0.10566000000E+00 0.  1.
     999900   -1    0    0    0    0 -0.00000000000E+00 -0.00000000000E+00 -0.74505805969E-08  0.93827000000E+00  0.93827000000E+00 0.  1.
     999902    2    1    2    0    0 -0.19924770671E-01  0.39944889478E-02  0.11704328920E-01  0.10204791206E+01  0.10202096313E+01 0.  0.
     999903    2    3    3    0    0  0.52570643295E-01 -0.10427361385E+00  0.53358787411E-01  0.12991039164E+00  0.19821467642E-01 0.  0.
         14    1    1    2    0    0  0.19924770671E-01 -0.39944889478E-02 -0.11704328920E-01  0.23450879380E-01  0.00000000000E+00 0. -1.
     999901    1    3    3    0    0 -0.72495413966E-01  0.10826810280E+00 -0.41654458490E-01  0.89056872898E+00  0.88000000000E+00 0.  1.
        -11    1    4    4    0    0  0.31337873443E-01 -0.42930095807E-01  0.29187370716E-01  0.60640078894E-01  0.51100000000E-03 0. -1.
         11    1    4    4    0    0  0.21232769852E-01 -0.61343518043E-01  0.24171416694E-01  0.69270312743E-01  0.51100000000E-03 0.  1.
</event>
<event>
 8    1  0.1123285E+005  0.1043930E+01  0.7957747E-01            NaN
         13   -1    0    0    0    0  0.00000000000E+00  0.00000000000E+00  0.74505805969E-08  0.10566000000E+00  0.10566000000E+00 0. -1.
     999900   -1    0    0    0    0 -0.00000000000E+00 -0.00000000000E+00 -0.74505805969E-08  0.93827000000E+00  0.93827000000E+00 0. -1.
     999902    2    1    2    0    0 -0.13964759314E-01 -0.13738996934E-01 -0.96159298769E-02  0.10221070615E+01  0.10218740649E+01 0.  0.
     999903    2    3    3    0    0  0.94181234678E-01  0.83581286158E-01  0.23735962295E-01  0.12953821692E+00  0.18995193483E-01 0.  0.
         14    1    1    2    0    0  0.13964759314E-01  0.13738996934E-01  0.96159298769E-02  0.21822938548E-01  0.00000000000E+00 0.  1.
     999901    1    3    3    0    0 -0.10814599399E+00 -0.97320283092E-01 -0.33351892171E-01  0.89256884453E+00  0.88000000000E+00 0. -1.
        -11    1    4    4    0    0  0.40924343278E-01  0.27775741460E-01  0.16112823995E-01  0.52020937174E-01  0.51100000000E-03 0. -1.
         11    1    4    4    0    0  0.53256891400E-01  0.55805544698E-01  0.76231382994E-02  0.77517279746E-01  0.51100000000E-03 0.  1.
</event>
<event>
 8    1  0.1123285E+005  0.1043930E+01  0.7957747E-01            NaN
         13   -1    0    0    0    0  0.00000000000E+00  0.00000000000E+00  0.74505805969E-08  0.10566000000E+00  0.10566000000E+00 0. -1.
     999900   -1    0    0    0    0 -0.00000000000E+00 -0.00000000000E+00 -0.74505805969E-08  0.93827000000E+00  0.93827000000E+00 0.  1.
     999902    2    1    2    0    0  0.19795781128E-01  0.27365057539E-02 -0.13807950176E-01  0.10196396541E+01  0.10193502849E+01 0.  0.
     999903    2    3    3    0    0  0.11629162642E-02  0.48091647784E-02 -0.12952317936E+00  0.13186631942E+00  0.24248541503E-01 0.  0.
         14    1    1    2    0    0 -0.19795781128E-01 -0.27365057539E-02  0.13807950176E-01  0.24290345866E-01  0.00000000000E+00 0. -1.
     999901    1    3    3    0    0  0.18632864864E-01 -0.20726590245E-02  0.11571522918E+00  0.88777333472E+00  0.88000000000E+00 0. -1.
        -11    1    4    4    0    0  0.10889985438E-01 -0.25370418034E-02 -0.83768601506E-01  0.84513123734E-01  0.51100000000E-03 0. -1.
         11    1    4    4    0    0 -0.97270691737E-02  0.73462065818E-02 -0.45754577854E-01  0.47353195684E-01  0.51100000000E-03 0.  1.
</event>
<event>
 8    1  0.1123285E+005  0.1043930E+01  0.7957747E-01            NaN
         13   -1    0    0    0    0  0.00000000000E+00  0.00000000000E+00  0.74505805969E-08  0.10566000000E+00  0.10566000000E+00 0.  1.
     999900   -1    0    0    0    0 -0.00000000000E+00 -0.00000000000E+00 -0.74505805969E-08  0.93827000000E+00  0.93827000000E+00 0. -1.
     999902    2    1    2    0    0  0.28297334099E-02 -0.17253545015E-01  0.10671070041E-01  0.10234467399E+01  0.10232417435E+01 0.  0.
     999903    2    3    3    0    0 -0.41063287661E-01 -0.12413696185E+00  0.30952660626E-01  0.13566185327E+00  0.18705409371E-01 0.  0.
         14    1    1    2    0    0 -0.28297334099E-02  0.17253545015E-01 -0.10671070041E-01  0.20483260058E-01  0.00000000000E+00 0. -1.
     999901    1    3    3    0    0  0.43893021071E-01  0.10688341684E+00 -0.20281590585E-01  0.88778488668E+00  0.88000000000E+00 0. -1.
        -11    1    4    4    0    0 -0.34482514740E-01 -0.89622122854E-01  0.29634074723E-01  0.10049680708E+00  0.51100000000E-03 0. -1.
         11    1    4    4    0    0 -0.65807729213E-02 -0.34514839001E-01  0.13185859034E-02  0.35165046186E-01  0.51100000000E-03 0.  1.
</event>
<event>
 8    1  0.1123285E+005  0.1043930E+01  0.7957747E-01            NaN
         13   -1    0    0    0    0  0.00000000000E+00  0.00000000000E+00  0.74505805969E-08  0.10566000000E+00  0.10566000000E+00 0.  1.
     999900   -1    0    0    0    0 -0.00000000000E+00 -0.00000000000E+00 -0.74505805969E-08  0.93827000000E+00  0.93827000000E+00 0.  1.
     999902    2    1    2    0    0 -0.35218587634E-02 -0.51261890966E-02  0.22715134712E-01  0.10203788079E+01  0.10201069811E+01 0.  0.
     999903    2    3    3    0    0 -0.18270797923E-01 -0.43520175755E-01  0.12308596008E+00  0.13371882122E+00  0.22421905052E-01 0.  0.
         14    1    1    2    0    0  0.35218587634E-02  0.51261890966E-02 -0.22715134712E-01  0.23551192088E-01  0.00000000000E+00 0. -1.
     999901    1    3    3    0    0  0.14748939160E-01  0.38393986658E-01 -0.10037082536E+00  0.88665998669E+00  0.88000000000E+00 0.  1.
        -11    1    4    4    0    0 -0.21633036561E-02 -0.29626543845E-01  0.85676068146E-01  0.90681099226E-01  0.51100000000E-03 0.  1.
         11    1    4    4    0    0 -0.16107494267E-01 -0.13893631910E-01  0.37409891929E-01  0.43037721993E-01  0.51100000000E-03 0. -1.
</event>
<event>
 8    1  0.1123285E+005  0.1043930E+01  0.7957747E-01            NaN
         13   -1    0    0    0    0  0.00000000000E+00  0.00000000000E+00  0.74505805969E-08  0.10566000000E+00  0.10566000000E+00 0. -1.
     999900   -1    0    0    0    0 -0.00000000000E+00 -0.00000000000E+00 -0.74505805969E-08  0.93827000000E+00  0.93827000000E+00 0.  1.
     999902    2    1    2    0    0 -0.22073392617E-03 -0.22514063666E-01  0.34408661834E-02  0.10211534474E+01  0.10208994034E+01 0.  0.
     999903    2    3    3    0    0 -0.11022411489E+00 -0.16113935668E-02 -0.68151615751E-01  0.13117415054E+00  0.20250011107E-01 0.  0.
         14    1    1    2    0    0  0.22073392617E-03  0.22514063666E-01 -0.34408661834E-02  0.22776552556E-01  0.00000000000E+00 0.  1.
     999901    1    3    3    0    0  0.11000338096E+00 -0.20902670099E-01  0.71592481934E-01  0.88997929690E+00  0.88000000000E+00 0.  1.
        -11    1    4    4    0    0 -0.44389929203E-01 -0.10006526734E-01 -0.31635079415E-01  0.55422339923E-01  0.51100000000E-03 0.  1.
         11    1    4    4    0    0 -0.65834185683E-01  0.83951331669E-02 -0.36516536336E-01  0.75751810622E-01  0.51100000000E-03 0. -1.
</event>
<event>
 8    1  0.1123285E+005  0.1043930E+01  0.7957747E-01            NaN
         13   -1    0    0    0    0  0.00000000000E+00  0.00000000000E+00  0.74505805969E-08  0.10566000000E+00  0.10566000000E+00 0. -1.
     999900   -1    0    0    0    0 -0.00000000000E+00 -0.00000000000E+00 -0.74505805969E-08  0.93827000000E+00  0.93827000000E+00 0.  1.
     999902    2    1    2    0    0  0.22258562808E-01  0.38144500358E-02 -0.13151268455E-03  0.10213465781E+01  0.10210968719E+01 0.  0.
     999903    2    3    3    0    0 -0.87565311712E-01  0.93631165017E-01  0.91349879642E-02  0.12993522880E+00  0.19111169496E-01 0.  0.
         14    1    1    2    0    0 -0.22258562808E-01 -0.38144500358E-02  0.13151268455E-03  0.22583421861E-01  0.00000000000E+00 0.  1.
     999901    1    3    3    0    0  0.10982387452E+00 -0.89816714981E-01 -0.92665006488E-02  0.89141134934E+00  0.88000000000E+00 0. -1.
        -11    1    4    4    0    0  0.68547147287E-03  0.29665124142E-02  0.11950005491E-03  0.30895741303E-02  0.51100000000E-03 0. -1.
         11    1    4    4    0    0 -0.88250783185E-01  0.90664652602E-01  0.90154879093E-02  0.12684565467E+00  0.51100000000E-03 0.  1.
</event>
<event>
 8    1  0.1123285E+005  0.1043930E+01  0.7957747E-01            NaN
         13   -1    0    0    0    0  0.00000000000E+00  0.00000000000E+00  0.74505805969E-08  0.10566000000E+00  0.10566000000E+00 0.  1.
     999900   -1    0    0    0    0 -0.00000000000E+00 -0.00000000000E+00 -0.74505805969E-08  0.93827000000E+00  0.93827000000E+00 0. -1.
     999902    2    1    2    0    0 -0.33717062436E-02 -0.20278064025E-01 -0.10653817962E-01  0.10207767687E+01  0.10205141544E+01 0.  0.
     999903    2    3    3    0    0  0.89449984112E-02  0.28173078620E-01 -0.12680936248E+00  0.13173721671E+00  0.20008610580E-01 0.  0.
         14    1    1    2    0    0  0.33717062436E-02  0.20278064025E-01  0.10653817962E-01  0.23153231324E-01  0.00000000000E+00 0.  1.
     999901    1    3    3    0    0 -0.12316704655E-01 -0.48451142645E-01  0.11615554452E+00  0.88903955197E+00  0.88000000000E+00 0.  1.
        -11    1    4    4    0    0  0.10934749826E-01  0.14810315289E-01 -0.42047327344E-01  0.45903736781E-01  0.51100000000E-03 0. -1.
         11    1    4    4    0    0 -0.19897514150E-02  0.13362763331E-01 -0.84762035140E-01  0.85833479928E-01  0.51100000000E-03 0.  1.
</event>
<event>
 8    1  0.1123285E+005  0.1043930E+01  0.7957747E-01            NaN
         13   -1    0    0    0    0  0.00000000000E+00  0.00000000000E+00  0.74505805969E-08  0.10566000000E+00  0.10566000000E+00 0. -1.
     999900   -1    0    0    0    0 -0.00000000000E+00 -0.00000000000E+00 -0.74505805969E-08  0.93827000000E+00  0.93827000000E+00 0.  1.
     999902    2    1    2    0    0  0.19091550612E-01 -0.31583303218E-02  0.13719520881E-01  0.10202089627E+01  0.10199331547E+01 0.  0.
     999903    2    3    3    0    0  0.14014773748E-02 -0.12604649443E+00  0.30575217404E-01  0.13133408174E+00  0.20594033396E-01 0.  0.
         14    1    1    2    0    0 -0.19091550612E-01  0.31583303218E-02 -0.13719520881E-01  0.23721037254E-01  0.00000000000E+00 0. -1.
     999901    1    3    3    0    0  0.17690073238E-01  0.12288816411E+00 -0.16855696522E-01  0.88887488100E+00  0.88000000000E+00 0. -1.
        -11    1    4    4    0    0  0.55634917434E-02 -0.94382645682E-01  0.14760918517E-01  0.95693166333E-01  0.51100000000E-03 0.  1.
         11    1    4    4    0    0 -0.41620143685E-02 -0.31663848748E-01  0.15814298886E-01  0.35640915412E-01  0.51100000000E-03 0. -1.
</event>
<event>
 8    1  0.1123285E+005  0.1043930E+01  0.7957747E-01            NaN
         13   -1    0    0    0    0  0.00000000000E+00  0.00000000000E+00  0.74505805969E-08  0.10566000000E+00  0.10566000000E+00 0. -1.
     999900   -1    0    0    0    0 -0.00000000000E+00 -0.00000000000E+00 -0.74505805969E-08  0.93827000000E+00  0.93827000000E+00 0. -1.
     999902    2    1    2    0    0 -0.54727347415E-02 -0.55179516982E-02 -0.23523180614E-01  0.10191562509E+01  0.10188551051E+01 0.  0.
     999903    2    3    3    0    0 -0.19027897155E-01  0.37053821382E-01 -0.12397262780E+00  0.13231568481E+00  0.20079378783E-01 0.  0.
         14    1    1    2    0    0  0.54727347415E-02  0.55179516982E-02  0.23523180614E-01  0.24773749065E-01  0.00000000000E+00 0. -1.
     999901    1    3    3    0    0  0.13555162413E-01 -0.42571773080E-01  0.10044944719E+00  0.88684056613E+00  0.88000000000E+00 0.  1.
        -11    1    4    4    0    0 -0.12075566385E-01  0.37316449203E-01 -0.10715010826E+00  0.11410409066E+00  0.51100000000E-03 0. -1.
         11    1    4    4    0    0 -0.69523307698E-02 -0.26262782179E-03 -0.16822519540E-01  0.18211594142E-01  0.51100000000E-03 0.  1.
</event>
<event>
 8    1  0.1123285E+005  0.1043930E+01  0.7957747E-01            NaN
         13   -1    0    0    0    0  0.00000000000E+00  0.00000000000E+00  0.74505805969E-08  0.10566000000E+00  0.10566000000E+00 0. -1.
     999900   -1    0    0    0    0 -0.00000000000E+00 -0.00000000000E+00 -0.74505805969E-08  0.93827000000E+00  0.93827000000E+00 0.  1.
     999902    2    1    2    0    0 -0.70101168724E-02 -0.16386801311E-01 -0.90456823273E-02  0.10239426699E+01  0.10237475753E+01 0.  0.
     999903    2    3    3    0    0  0.18327052475E-01 -0.37579309775E-01 -0.12709600163E+00  0.13544563982E+00  0.21072312210E-01 0.  0.
         14    1    1    2    0    0  0.70101168724E-02  0.16386801311E-01  0.90456823273E-02  0.19987330100E-01  0.00000000000E+00 0. -1.
     999901    1    3    3    0    0 -0.25337169347E-01  0.21192508464E-01  0.11805031930E+00  0.88849703008E+00  0.88000000000E+00 0.  1.
        -11    1    4    4    0    0  0.10104631442E-01 -0.10873388333E-01 -0.20941111159E-01  0.25673437791E-01  0.51100000000E-03 0.  1.
         11    1    4    4    0    0  0.82224210331E-02 -0.26705921442E-01 -0.10615489047E+00  0.10977220203E+00  0.51100000000E-03 0. -1.
</event>
<event>
 8    1  0.1123285E+005  0.1043930E+01  0.7957747E-01            NaN
         13   -1    0    0    0    0  0.00000000000E+00  0.00000000000E+00  0.74505805969E-08  0.10566000000E+00  0.10566000000E+00 0. -1.
     999900   -1    0    0    0    0 -0.00000000000E+00 -0.00000000000E+00 -0.74505805969E-08  0.93827000000E+00  0.93827000000E+00 0. -1.
     999902    2    1    2    0    0  0.54733079598E-02  0.20733470952E-01  0.98389981389E-02  0.10203367848E+01  0.10200639758E+01 0.  0.
     999903    2    3    3    0    0 -0.11610370470E+00  0.14187432186E-01 -0.52770336885E-01  0.12975060177E+00  0.19213451694E-01 0.  0.
         14    1    1    2    0    0 -0.54733079598E-02 -0.20733470952E-01 -0.98389981389E-02  0.23593215171E-01  0.00000000000E+00 0.  1.
     999901    1    3    3    0    0  0.12157701266E+00  0.65460387655E-02  0.62609335024E-01  0.89058618306E+00  0.88000000000E+00 0.  1.
        -11    1    4    4    0    0 -0.37887828244E-01  0.11788045724E-01 -0.11688789157E-01  0.41368278475E-01  0.51100000000E-03 0.  1.
         11    1    4    4    0    0 -0.78215876458E-01  0.23993864622E-02 -0.41081547728E-01  0.88382323290E-01  0.51100000000E-03 0. -1.
</event>
<event>
 8    1  0.1123285E+005  0.1043930E+01  0.7957747E-01            NaN
         13   -1    0    0    0    0  0.00000000000E+00  0.00000000000E+00  0.74505805969E-08  0.10566000000E+00  0.10566000000E+00 0.  1.
     999900   -1    0    0    0    0 -0.00000000000E+00 -0.00000000000E+00 -0.74505805969E-08  0.93827000000E+00  0.93827000000E+00 0. -1.
     999902    2    1    2    0    0 -0.21765978953E-01  0.79259011587E-02  0.36429132291E-02  0.10204811500E+01  0.10202117079E+01 0.  0.
     999903    2    3    3    0    0  0.80013480156E-01 -0.77868551113E-01 -0.59502880923E-01  0.12823278904E+00  0.20913801373E-01 0.  0.
         14    1    1    2    0    0  0.21765978953E-01 -0.79259011587E-02 -0.36429132291E-02  0.23448849988E-01  0.00000000000E+00 0. -1.
     999901    1    3    3    0    0 -0.10177945911E+00  0.85794452272E-01  0.63145794152E-01  0.89224836097E+00  0.88000000000E+00 0. -1.
        -11    1    4    4    0    0  0.13041530300E-01 -0.14826485855E-01 -0.20067701207E-01  0.28158124016E-01  0.51100000000E-03 0.  1.
         11    1    4    4    0    0  0.66971949856E-01 -0.63042065258E-01 -0.39435179716E-01  0.10007466502E+00  0.51100000000E-03 0. -1.
</event>
<event>
 8    1  0.1123285E+005  0.1043930E+01  0.7957747E-01            NaN
         13   -1    0    0    0    0  0.00000000000E+00  0.00000000000E+00  0.74505805969E-08  0.10566000000E+00  0.10566000000E+00 0. -1.
     999900   -1    0    0    0    0 -0.00000000000E+00 -0.00000000000E+00 -0.74505805969E-08  0.93827000000E+00  0.93827000000E+00 0. -1.
     999902    2    1    2    0    0  0.17347455963E-01  0.16429226192E-01  0.32030381120E-02  0.10198237113E+01  0.10195387629E+01 0.  0.
     999903    2    3    3    0    0 -0.75241168052E-01 -0.85514492535E-01  0.54372418724E-01  0.12764464822E+00  0.19048215097E-01 0.  0.
         14    1    1    2    0    0 -0.17347455963E-01 -0.16429226192E-01 -0.32030381120E-02  0.24106288699E-01  0.00000000000E+00 0. -1.
     999901    1    3    3    0    0  0.92588624015E-01  0.10194371873E+00 -0.51169380612E-01  0.89217906308E+00  0.88000000000E+00 0. -1.
        -11    1    4    4    0    0 -0.71463850982E-01 -0.76953130594E-01  0.44578471735E-01  0.11408929647E+00  0.51100000000E-03 0.  1.
         11    1    4    4    0    0 -0.37773170703E-02 -0.85613619409E-02  0.97939469895E-02  0.13555351754E-01  0.51100000000E-03 0. -1.
</event>
<event>
 8    1  0.1123285E+005  0.1043930E+01  0.7957747E-01            NaN
         13   -1    0    0    0    0  0.00000000000E+00  0.00000000000E+00  0.74505805969E-08  0.10566000000E+00  0.10566000000E+00 0.  1.
     999900   -1    0    0    0    0 -0.00000000000E+00 -0.00000000000E+00 -0.74505805969E-08  0.93827000000E+00  0.93827000000E+00 0. -1.
     999902    2    1    2    0    0 -0.86676435429E-02  0.21944757567E-01 -0.21931529215E-03  0.10203344808E+01  0.10200616178E+01 0.  0.
     999903    2    3    3    0    0 -0.50807801377E-01 -0.10340182095E+00 -0.54230421388E-01  0.12881624918E+00  0.19476092866E-01 0.  0.
         14    1    1    2    0    0  0.86676435429E-02 -0.21944757567E-01  0.21931529215E-03  0.23595519245E-01  0.00000000000E+00 0.  1.
     999901    1    3    3    0    0  0.42140157834E-01  0.12534657851E+00  0.54011106096E-01  0.89151823157E+00  0.88000000000E+00 0. -1.
        -11    1    4    4    0    0 -0.99309217727E-02 -0.41404677581E-01 -0.19536842860E-01  0.46849972068E-01  0.51100000000E-03 0.  1.
         11    1    4    4    0    0 -0.40876879604E-01 -0.61997143365E-01 -0.34693578528E-01  0.81966277113E-01  0.51100000000E-03 0. -1.
</event>
<event>
 8    1  0.1123285E+005  0.1043930E+01  0.7957747E-01            NaN
         13   -1    0    0    0    0  0.00000000000E+00  0.00000000000E+00  0.74505805969E-08  0.10566000000E+00  0.10566000000E+00 0.  1.
     999900   -1    0    0    0    0 -0.00000000000E+00 -0.00000000000E+00 -0.74505805969E-08  0.93827000000E+00  0.93827000000E+00 0.  1.
     999902    2    1    2    0    0  0.16676305345E-01  0.16802359283E-02 -0.13584788250E-01  0.10223552735E+01  0.10221276028E+01 0.  0.
     999903    2    3    3    0    0  0.10735467102E+00  0.45313127511E-01 -0.66912353807E-01  0.13501642925E+00  0.13185907642E-01 0.  0.
         14    1    1    2    0    0 -0.16676305345E-01 -0.16802359283E-02  0.13584788250E-01  0.21574726523E-01  0.00000000000E+00 0.  1.
     999901    1    3    3    0    0 -0.90678365675E-01 -0.43632891582E-01  0.53327565557E-01  0.88733884423E+00  0.88000000000E+00 0.  1.
        -11    1    4    4    0    0  0.93685126933E-01  0.38983684190E-01 -0.52890905046E-01  0.11443050117E+00  0.51100000000E-03 0. -1.
         11    1    4    4    0    0  0.13669544087E-01  0.63294433208E-02 -0.14021448761E-01  0.20585928074E-01  0.51100000000E-03 0.  1.
</event>
<event>
 8    1  0.1307354E+005  0.1043930E+01  0.7957747E-01            NaN
         13   -1    0    0    0    0  0.00000000000E+00  0.00000000000E+00  0.74505805969E-08  0.10566000000E+00  0.10566000000E+00 0.  1.
     999900   -1    0    0    0    0 -0.00000000000E+00 -0.00000000000E+00 -0.74505805969E-08  0.93827000000E+00  0.93827000000E+00 0.  1.
     999902    2    1    2    0    0  0.21897857097E-01 -0.31586870277E-02 -0.63390518241E-02  0.10209152867E+01  0.10206558409E+01 0.  0.
     999903    2    3    3    0    0  0.59403849257E-01 -0.84775614866E-01  0.79606911909E-01  0.13217756892E+00  0.20443265897E-01 0.  0.
         14    1    1    2    0    0 -0.21897857097E-01  0.31586870277E-02  0.63390518241E-02  0.23014713276E-01  0.00000000000E+00 0.  1.
     999901    1    3    3    0    0 -0.37505992160E-01  0.81616927838E-01 -0.85945963733E-01  0.88873771780E+00  0.88000000000E+00 0.  1.
        -11    1    4    4    0    0  0.39206010925E-01 -0.38285988789E-01  0.39930339991E-01  0.67805762315E-01  0.51100000000E-03 0. -1.
         11    1    4    4    0    0  0.20197838332E-01 -0.46489626077E-01  0.39676571917E-01  0.64371806609E-01  0.51100000000E-03 0.  1.
</event>
<event>
 8    1  0.1123285E+005  0.1043930E+01  0.7957747E-01            NaN
         13   -1    0    0    0    0  0.00000000000E+00  0.00000000000E+00  0.74505805969E-08  0.10566000000E+00  0.10566000000E+00 0. -1.
     999900   -1    0    0    0    0 -0.00000000000E+00 -0.00000000000E+00 -0.74505805969E-08  0.93827000000E+00  0.93827000000E+00 0.  1.
     999902    2    1    2    0    0  0.16317223000E-01  0.97467815981E-02  0.11435644266E-01  0.10217483527E+01  0.10215075481E+01 0.  0.
     999903    2    3    3    0    0  0.95253182741E-02  0.12976607445E+00 -0.19065713452E-01  0.13305206404E+00  0.20233253527E-01 0.  0.
         14    1    1    2    0    0 -0.16317223000E-01 -0.97467815981E-02 -0.11435644266E-01  0.22181647318E-01  0.00000000000E+00 0.  1.
     999901    1    3    3    0    0  0.67919047256E-02 -0.12001929285E+00  0.30501357718E-01  0.88869628864E+00  0.88000000000E+00 0. -1.
        -11    1    4    4    0    0  0.94731124014E-02  0.92526991863E-01 -0.46868503299E-02  0.93130079828E-01  0.51100000000E-03 0. -1.
         11    1    4    4    0    0  0.52205872709E-04  0.37239082590E-01 -0.14378863122E-01  0.39921984210E-01  0.51100000000E-03 0.  1.
</event>
<event>
 7    1  0.1123285E+005  0.1043930E+01  0.7957747E-01            NaN
         13   -1    0    0    0    0  0.00000000000E+00  0.00000000000E+00  0.74505805969E-08  0.10566000000E+00  0.10566000000E+00 0.  1.
     999900   -1    0    0    0    0 -0.00000000000E+00 -0.00000000000E+00 -0.74505805969E-08  0.93827000000E+00  0.93827000000E+00 0.  1.
     999902    2    1    2    0    0 -0.21560555718E-01  0.41827965002E-02 -0.14221073085E-02  0.10219214621E+01  0.10216844420E+01 0.  0.
         14    1    1    2    0    0  0.21560555718E-01 -0.41827965002E-02  0.14221073085E-02  0.22008537857E-01  0.00000000000E+00 0.  1.
     999901    1    3    3    0    0  0.55020117547E-01 -0.76827087902E-01  0.61054494922E-01  0.88716248011E+00  0.88000000000E+00 0. -1.
        -11    1    3    3    0    0 -0.41861691368E-01  0.35444495613E-01 -0.75091812504E-02  0.55365715000E-01  0.51100000000E-03 0.  1.
         11    1    3    3    0    0 -0.34718981897E-01  0.45565388789E-01 -0.54967420980E-01  0.79393267030E-01  0.51100000000E-03 0. -1.
</event>
<event>
 8    1  0.1123285E+005  0.1043930E+01  0.7957747E-01            NaN
         13   -1    0    0    0    0  0.00000000000E+00  0.00000000000E+00  0.74505805969E-08  0.10566000000E+00  0.10566000000E+00 0.  1.
     999900   -1    0    0    0    0 -0.00000000000E+00 -0.00000000000E+00 -0.74505805969E-08  0.93827000000E+00  0.93827000000E+00 0. -1.
     999902    2    1    2    0    0 -0.28468275466E-02  0.25359465210E-01  0.10016261840E-01  0.10165159087E+01  0.10161461805E+01 0.  0.
     999903    2    3    3    0    0  0.12460543474E+00  0.17420019641E-01  0.11511571357E-03  0.12724365189E+00  0.18999006431E-01 0.  0.
         14    1    1    2    0    0  0.28468275466E-02 -0.25359465210E-01 -0.10016261840E-01  0.27414091341E-01  0.00000000000E+00 0. -1.
     999901    1    3    3    0    0 -0.12745226228E+00  0.79394455691E-02  0.99011461267E-02  0.88927225676E+00  0.88000000000E+00 0. -1.
        -11    1    4    4    0    0  0.34527434812E-01  0.11256488630E-01 -0.57107418387E-02  0.36765826310E-01  0.51100000000E-03 0. -1.
         11    1    4    4    0    0  0.90077999926E-01  0.61635310109E-02  0.58258575523E-02  0.90477825584E-01  0.51100000000E-03 0.  1.
</event>
<event>
 8    1  0.1123285E+005  0.1043930E+01  0.7957747E-01            NaN
         13   -1    0    0    0    0  0.00000000000E+00  0.00000000000E+00  0.74505805969E-08  0.10566000000E+00  0.10566000000E+00 0. -1.
     999900   -1    0    0    0    0 -0.00000000000E+00 -0.00000000000E+00 -0.74505805969E-08  0.93827000000E+00  0.93827000000E+00 0.  1.
     999902    2    1    2    0    0 -0.22136934975E-01  0.83078087664E-02 -0.56204459033E-02  0.10196266466E+01  0.10193369636E+01 0.  0.
     999903    2    3    3    0    0  0.26914779375E-01 -0.72552658355E-01  0.10034910778E+00  0.12823782447E+00  0.19664755538E-01 0.  0.
         14    1    1    2    0    0  0.22136934975E-01 -0.83078087664E-02  0.56204459033E-02  0.24303353446E-01  0.00000000000E+00 0.  1.
     999901    1    3    3    0    0 -0.49051714350E-01  0.80860467122E-01 -0.10596955368E+00  0.89138882208E+00  0.88000000000E+00 0.  1.
        -11    1    4    4    0    0  0.14495624523E-01 -0.50909865153E-01  0.80516797083E-01  0.96359499966E-01  0.51100000000E-03 0. -1.
         11    1    4    4    0    0  0.12419154852E-01 -0.21642793203E-01  0.19832310695E-01  0.31878324507E-01  0.51100000000E-03 0.  1.
</event>
<event>
 8    1  0.1123285E+005  0.1043930E+01  0.7957747E-01            NaN
         13   -1    0    0    0    0  0.00000000000E+00  0.00000000000E+00  0.74505805969E-08  0.10566000000E+00  0.10566000000E+00 0. -1.
     999900   -1    0    0    0    0 -0.00000000000E+00 -0.00000000000E+00 -0.74505805969E-08  0.93827000000E+00  0.93827000000E+00 0. -1.
     999902    2    1    2    0    0  0.18975508580E-01 -0.35950768597E-03 -0.13432451286E-01  0.10206785502E+01  0.10204136773E+01 0.  0.
     999903    2    3    3    0    0 -0.41022440707E-01 -0.98619772241E-01  0.70049076481E-01  0.12926170100E+00  0.19824583493E-01 0.  0.
         14    1    1    2    0    0 -0.18975508580E-01  0.35950768597E-03  0.13432451286E-01  0.23251449830E-01  0.00000000000E+00 0.  1.
     999901    1    3    3    0    0  0.59997949287E-01  0.98260264555E-01 -0.83481527767E-01  0.89141684917E+00  0.88000000000E+00 0.  1.
        -11    1    4    4    0    0 -0.15063735948E-01 -0.59173984083E-01  0.34341402108E-01  0.70057615951E-01  0.51100000000E-03 0.  1.
         11    1    4    4    0    0 -0.25958704759E-01 -0.39445788158E-01  0.35707674373E-01  0.59204085047E-01  0.51100000000E-03 0. -1.
</event>
<event>
 7    1  0.1123285E+005  0.1043930E+01  0.7957747E-01            NaN
         13   -1    0    0    0    0  0.00000000000E+00  0.00000000000E+00  0.74505805969E-08  0.10566000000E+00  0.10566000000E+00 0.  1.
     999900   -1    0    0    0    0 -0.00000000000E+00 -0.00000000000E+00 -0.74505805969E-08  0.93827000000E+00  0.93827000000E+00 0. -1.
     999903    2    1    2    0    0  0.32336995211E-01  0.37660703922E-01 -0.82180662006E-01  0.98009039871E-01  0.19700274350E-01 0.  0.
         14    1    1    2    0    0  0.52398606872E-01 -0.44895488904E-02 -0.17974584669E-01  0.55577475162E-01  0.00000000000E+00 0. -1.
     999901    1    1    2    0    0 -0.84735602083E-01 -0.33171155031E-01  0.10015524668E+00  0.89034348497E+00  0.88000000000E+00 0.  1.
        -11    1    3    3    0    0 -0.27988776117E-03  0.50273567373E-02 -0.18864242629E-02  0.54011452881E-02  0.51100000000E-03 0.  1.
         11    1    3    3    0    0  0.32616882972E-01  0.32633347185E-01 -0.80294237744E-01  0.92607894583E-01  0.51100000000E-03 0. -1.
</event>
<event>
 8    1  0.1123285E+005  0.1043930E+01  0.7957747E-01            NaN
         13   -1    0    0    0    0  0.00000000000E+00  0.00000000000E+00  0.74505805969E-08  0.10566000000E+00  0.10566000000E+00 0. -1.
     999900   -1    0    0    0    0 -0.00000000000E+00 -0.00000000000E+00 -0.74505805969E-08  0.93827000000E+00  0.93827000000E+00 0.  1.
     999902    2    1    2    0    0 -0.21290113059E-01  0.69263772735E-02  0.80724999609E-02  0.10201306540E+01  0.10198530003E+01 0.  0.
     999903    2    3    3    0    0 -0.13057324820E+00 -0.15017501404E-01  0.61324629251E-02  0.13309733938E+00  0.20059814401E-01 0.  0.
         14    1    1    2    0    0  0.21290113059E-01 -0.69263772735E-02 -0.80724999609E-02  0.23799346038E-01  0.00000000000E+00 0.  1.
     999901    1    3    3    0    0  0.10928313514E+00  0.21943878677E-01  0.19400370358E-02  0.88703331458E+00  0.88000000000E+00 0. -1.
        -11    1    4    4    0    0 -0.98878797880E-01 -0.84785657957E-02  0.12759625083E-01  0.10005984160E+00  0.51100000000E-03 0.  1.
         11    1    4    4    0    0 -0.31694450321E-01 -0.65389356080E-02 -0.66271621578E-02  0.33037497776E-01  0.51100000000E-03 0. -1.
</event>
<event>
 8    1  0.1123285E+005  0.1043930E+01  0.7957747E-01            NaN
         13   -1    0    0    0    0  0.00000000000E+00  0.00000000000E+00  0.74505805969E-08  0.10566000000E+00  0.10566000000E+00 0.  1.
     999900   -1    0    0    0    0 -0.00000000000E+00 -0.00000000000E+00 -0.74505805969E-08  0.93827000000E+00  0.93827000000E+00 0.  1.
     999902    2    1    2    0    0  0.94651219629E-02  0.10013977784E-01 -0.15582268702E-01  0.10231291495E+01  0.10229176805E+01 0.  0.
     999903    2    3    3    0    0 -0.26038343189E-01  0.12187690097E+00  0.43929784499E-01  0.13334519024E+00  0.17864475613E-01 0.  0.
         14    1    1    2    0    0 -0.94651219629E-02 -0.10013977784E-01  0.15582268702E-01  0.20800850529E-01  0.00000000000E+00 0.  1.
     999901    1    3    3    0    0  0.35503465152E-01 -0.11186292319E+00 -0.59512053201E-01  0.88978395923E+00  0.88000000000E+00 0. -1.
        -11    1    4    4    0    0 -0.11828374165E-01  0.36473403802E-01  0.59647626832E-02  0.38807977726E-01  0.51100000000E-03 0.  1.
         11    1    4    4    0    0 -0.14209969024E-01  0.85403497169E-01  0.37965021816E-01  0.94537212518E-01  0.51100000000E-03 0. -1.
</event>
<event>
 8    1  0.1123285E+005  0.1043930E+01  0.7957747E-01            NaN
         13   -1    0    0    0    0  0.00000000000E+00  0.00000000000E+00  0.74505805969E-08  0.10566000000E+00  0.10566000000E+00 0. -1.
     999900   -1    0    0    0    0 -0.00000000000E+00 -0.00000000000E+00 -0.74505805969E-08  0.93827000000E+00  0.93827000000E+00 0. -1.
     999902    2    1    2    0    0  0.14700803967E-01  0.44134930851E-02 -0.21633770819E-01  0.10174043031E+01  0.10170584562E+01 0.  0.
     999903    2    3    3    0    0 -0.97694183903E-02 -0.89666756111E-01 -0.90690503104E-01  0.12936223348E+00  0.19345578556E-01 0.  0.
         14    1    1    2    0    0 -0.14700803967E-01 -0.44134930851E-02  0.21633770819E-01  0.26525696943E-01  0.00000000000E+00 0. -1.
     999901    1    3    3    0    0  0.24470222357E-01  0.94080249196E-01  0.69056732285E-01  0.88804206958E+00  0.88000000000E+00 0.  1.
        -11    1    4    4    0    0 -0.22776215410E-02 -0.69893480943E-01 -0.60323541382E-01  0.92355167717E-01  0.51100000000E-03 0. -1.
         11    1    4    4    0    0 -0.74917968493E-02 -0.19773275168E-01 -0.30366961722E-01  0.37007065760E-01  0.51100000000E-03 0.  1.
</event>
<event>
 8    1  0.1123285E+005  0.1043930E+01  0.7957747E-01            NaN
         13   -1    0    0    0    0  0.00000000000E+00  0.00000000000E+00  0.74505805969E-08  0.10566000000E+00  0.10566000000E+00 0. -1.
     999900   -1    0    0    0    0 -0.00000000000E+00 -0.00000000000E+00 -0.74505805969E-08  0.93827000000E+00  0.93827000000E+00 0. -1.
     999902    2    1    2    0    0  0.14973365792E-01  0.91736326441E-02  0.15449003685E-01  0.10205413503E+01  0.10202733059E+01 0.  0.
     999903    2    3    3    0    0 -0.29833322354E-01  0.70627588157E-01 -0.10272030106E+00  0.12939141202E+00  0.17674668979E-01 0.  0.
         14    1    1    2    0    0 -0.14973365792E-01 -0.91736326441E-02 -0.15449003685E-01  0.23388649681E-01  0.00000000000E+00 0. -1.
     999901    1    3    3    0    0  0.44806688146E-01 -0.61453955513E-01  0.11816930474E+00  0.89114993830E+00  0.88000000000E+00 0.  1.
        -11    1    4    4    0    0 -0.21472137280E-01  0.35728564366E-01 -0.65857357159E-01  0.77942514740E-01  0.51100000000E-03 0. -1.
         11    1    4    4    0    0 -0.83611850743E-02  0.34899023791E-01 -0.36862943897E-01  0.51448897279E-01  0.51100000000E-03 0.  1.
</event>
<event>
 8    1  0.1123285E+005  0.1043930E+01  0.7957747E-01            NaN
         13   -1    0    0    0    0  0.00000000000E+00  0.00000000000E+00  0.74505805969E-08  0.10566000000E+00  0.10566000000E+00 0.  1.
     999900   -1    0    0    0    0 -0.00000000000E+00 -0.00000000000E+00 -0.74505805969E-08  0.93827000000E+00  0.93827000000E+00 0.  1.
     999902    2    1    2    0    0  0.78070155253E-02 -0.14814624820E-01 -0.19433609366E-01  0.10182767785E+01  0.10179535893E+01 0.  0.
     999903    2    3    3    0    0  0.55003162449E-01  0.62805250761E-02 -0.11758958631E+00  0.13131168481E+00  0.18725781232E-01 0.  0.
         14    1    1    2    0    0 -0.78070155253E-02  0.14814624820E-01  0.19433609366E-01  0.25653221493E-01  0.00000000000E+00 0.  1.
     999901    1    3    3    0    0 -0.47196146924E-01 -0.21095149896E-01  0.98155976947E-01  0.88696509370E+00  0.88000000000E+00 0. -1.
        -11    1    4    4    0    0  0.21785217621E-01 -0.62543428393E-02 -0.39869958408E-01  0.45864879980E-01  0.51100000000E-03 0.  1.
         11    1    4    4    0    0  0.33217944828E-01  0.12534867915E-01 -0.77719627905E-01  0.85446804826E-01  0.51100000000E-03 0. -1.
</event>
<event>
 8    1  0.1123285E+005  0.1043930E+01  0.7957747E-01            NaN
         13   -1    0    0    0    0  0.00000000000E+00  0.00000000000E+00  0.74505805969E-08  0.10566000000E+00  0.10566000000E+00 0. -1.
     999900   -1    0    0    0    0 -0.00000000000E+00 -0.00000000000E+00 -0.74505805969E-08  0.93827000000E+00  0.93827000000E+00 0. -1.
     999902    2    1    2    0    0  0.13962680478E-01 -0.15610259810E-01  0.99933564354E-02  0.10207243147E+01  0.10204604955E+01 0.  0.
     999903    2    3    3    0    0  0.98971008367E-01  0.34399563894E-01 -0.76045156869E-01  0.13104458353E+00  0.20278720288E-01 0.  0.
         14    1    1    2    0    0 -0.13962680478E-01  0.15610259810E-01 -0.99933564354E-02  0.23205685302E-01  0.00000000000E+00 0. -1.
     999901    1    3    3    0    0 -0.85008327889E-01 -0.50009823705E-01  0.86038513304E-01  0.88967973117E+00  0.88000000000E+00 0.  1.
        -11    1    4    4    0    0  0.19920820802E-01  0.15629303640E-01 -0.15188072557E-01  0.29530541862E-01  0.51100000000E-03 0. -1.
         11    1    4    4    0    0  0.79050187565E-01  0.18770260254E-01 -0.60857084312E-01  0.10151404167E+00  0.51100000000E-03 0.  1.
</event>
<event>
 8    1  0.1123285E+005  0.1043930E+01  0.7957747E-01            NaN
         13   -1    0    0    0    0  0.00000000000E+00  0.00000000000E+00  0.74505805969E-08  0.10566000000E+00  0.10566000000E+00 0. -1.
     999900   -1    0    0    0    0 -0.00000000000E+00 -0.00000000000E+00 -0.74505805969E-08  0.93827000000E+00  0.93827000000E+00 0. -1.
     999902    2    1    2    0    0 -0.20368232844E-01  0.47194450096E-03  0.14235262896E-01  0.10190758182E+01  0.10187726896E+01 0.  0.
     999903    2    3    3    0    0 -0.11712421612E+00 -0.42788549068E-01  0.42112683124E-01  0.13227801651E+00  0.13230783837E-01 0.  0.
         14    1    1    2    0    0  0.20368232844E-01 -0.47194450096E-03 -0.14235262896E-01  0.24854181751E-01  0.00000000000E+00 0.  1.
     999901    1    3    3    0    0  0.96755983272E-01  0.43260493569E-01 -0.27877420229E-01  0.88679780173E+00  0.88000000000E+00 0. -1.
        -11    1    4    4    0    0 -0.26513700735E-01 -0.49160095966E-02  0.59163309967E-02  0.27611728857E-01  0.51100000000E-03 0.  1.
         11    1    4    4    0    0 -0.90610515381E-01 -0.37872539471E-01  0.36196352127E-01  0.10466628766E+00  0.51100000000E-03 0. -1.
</event>
<event>
 8    1  0.1141730E+005  0.1043930E+01  0.7957747E-01            NaN
         13   -1    0    0    0    0  0.00000000000E+00  0.00000000000E+00  0.74505805969E-08  0.10566000000E+00  0.10566000000E+00 0.  1.
     999900   -1    0    0    0    0 -0.00000000000E+00 -0.00000000000E+00 -0.74505805969E-08  0.93827000000E+00  0.93827000000E+00 0. -1.
     999902    2    1    2    0    0  0.18281178522E-01 -0.17975307618E-02 -0.14809777591E-01  0.10203341928E+01  0.10200613231E+01 0.  0.
     999903    2    3    3    0    0  0.62879483102E-01  0.11381177930E+00 -0.26054953905E-02  0.13156905743E+00  0.19916770941E-01 0.  0.
         14    1    1    2    0    0 -0.18281178522E-01  0.17975307618E-02  0.14809777591E-01  0.23595807198E-01  0.00000000000E+00 0. -1.
     999901    1    3    3    0    0 -0.44598304580E-01 -0.11560931006E+00 -0.12204282201E-01  0.88876513537E+00  0.88000000000E+00 0.  1.
        -11    1    4    4    0    0  0.14734980453E-01  0.31457780498E-01  0.78036583290E-02  0.35607159493E-01  0.51100000000E-03 0. -1.
         11    1    4    4    0    0  0.48144502649E-01  0.82353998803E-01 -0.10409153719E-01  0.95961897940E-01  0.51100000000E-03 0.  1.
</event>
<event>
 8    1  0.1123285E+005  0.1043930E+01  0.7957747E-01            NaN
         13   -1    0    0    0    0  0.00000000000E+00  0.00000000000E+00  0.74505805969E-08  0.10566000000E+00  0.10566000000E+00 0.  1.
     999900   -1    0    0    0    0 -0.00000000000E+00 -0.00000000000E+00 -0.74505805969E-08  0.93827000000E+00  0.93827000000E+00 0. -1.
     999902    2    1    2    0    0  0.25044759562E-02 -0.24367107712E-01 -0.51150866066E-02  0.10189061624E+01  0.10185988294E+01 0.  0.
     999903    2    3    3    0    0 -0.55322848530E-01  0.11219471172E+00 -0.12111990582E-02  0.12648901199E+00  0.18701129431E-01 0.  0.
         14    1    1    2    0    0 -0.25044759562E-02  0.24367107712E-01  0.51150866066E-02  0.25023837616E-01  0.00000000000E+00 0.  1.
     999901    1    3    3    0    0  0.57827324486E-01 -0.13656181944E+00 -0.39038875484E-02  0.89241715040E+00  0.88000000000E+00 0. -1.
        -11    1    4    4    0    0 -0.45026486666E-01  0.10316603370E+00 -0.33744424748E-02  0.11261555396E+00  0.51100000000E-03 0.  1.
         11    1    4    4    0    0 -0.10296361864E-01  0.90286780196E-02  0.21632434166E-02  0.13873458022E-01  0.51100000000E-03 0. -1.
</event>
<event>
 8    1  0.1123285E+005  0.1043930E+01  0.7957747E-01            NaN
         13   -1    0    0    0    0  0.00000000000E+00  0.00000000000E+00  0.74505805969E-08  0.10566000000E+00  0.10566000000E+00 0.  1.
     999900   -1    0    0    0    0 -0.00000000000E+00 -0.00000000000E+00 -0.74505805969E-08  0.93827000000E+00  0.93827000000E+00 0. -1.
     999902    2    1    2    0    0 -0.22044678466E-01  0.71081071495E-02 -0.34519313278E-02  0.10205118689E+01  0.10202431404E+01 0.  0.
     999903    2    3    3    0    0  0.51811512194E-03  0.31312366610E-01 -0.12578876773E+00  0.13143300433E+00  0.21704556978E-01 0.  0.
         14    1    1    2    0    0  0.22044678466E-01 -0.71081071495E-02  0.34519313278E-02  0.23418131134E-01  0.00000000000E+00 0. -1.
     999901    1    3    3    0    0 -0.22562793588E-01 -0.24204259461E-01  0.12233683640E+00  0.88907886454E+00  0.88000000000E+00 0.  1.
        -11    1    4    4    0    0  0.48463266171E-03  0.27505604268E-01 -0.65795656124E-01  0.71317057011E-01  0.51100000000E-03 0.  1.
         11    1    4    4    0    0  0.33482460233E-04  0.38067623419E-02 -0.59993111604E-01  0.60115947315E-01  0.51100000000E-03 0. -1.
</event>
<event>
 8    1  0.1123285E+005  0.1043930E+01  0.7957747E-01            NaN
         13   -1    0    0    0    0  0.00000000000E+00  0.00000000000E+00  0.74505805969E-08  0.10566000000E+00  0.10566000000E+00 0.  1.
     999900   -1    0    0    0    0 -0.00000000000E+00 -0.00000000000E+00 -0.74505805969E-08  0.93827000000E+00  0.93827000000E+00 0. -1.
     999902    2    1    2    0    0  0.12809130358E-02  0.23543103087E-01  0.70023624709E-02  0.10193342377E+01  0.10190374560E+01 0.  0.
     999903    2    3    3    0    0  0.51575731131E-01  0.69415012202E-01 -0.95944644137E-01  0.13072189991E+00  0.20108217621E-01 0.  0.
         14    1    1    2    0    0 -0.12809130358E-02 -0.23543103087E-01 -0.70023624709E-02  0.24595762264E-01  0.00000000000E+00 0. -1.
     999901    1    3    3    0    0 -0.50294818096E-01 -0.45871909115E-01  0.10294700661E+00  0.88861233783E+00  0.88000000000E+00 0. -1.
        -11    1    4    4    0    0  0.29589062656E-01  0.34546075217E-01 -0.64242839812E-01  0.78716882115E-01  0.51100000000E-03 0. -1.
         11    1    4    4    0    0  0.21986668475E-01  0.34868936984E-01 -0.31701804326E-01  0.52005017792E-01  0.51100000000E-03 0.  1.
</event>
<event>
 8    1  0.1123285E+005  0.1043930E+01  0.7957747E-01            NaN
         13   -1    0    0    0    0  0.00000000000E+00  0.00000000000E+00  0.74505805969E-08  0.10566000000E+00  0.10566000000E+00 0.  1.
     999900   -1    0    0    0    0 -0.00000000000E+00 -0.00000000000E+00 -0.74505805969E-08  0.93827000000E+00  0.93827000000E+00 0.  1.
     999902    2    1    2    0    0 -0.19100923928E-01  0.13095856651E-01 -0.79198139260E-02  0.10194540892E+01  0.10191602277E+01 0.  0.
     999903    2    3    3    0    0  0.10338009309E+00  0.74122507839E-01 -0.21508241841E-02  0.12885926948E+00  0.20457161846E-01 0.  0.
         14    1    1    2    0    0  0.19100923928E-01 -0.13095856651E-01  0.79198139260E-02  0.24475910789E-01  0.00000000000E+00 0. -1.
     999901    1    3    3    0    0 -0.12248101702E+00 -0.61026651188E-01 -0.57689897419E-02  0.89059481973E+00  0.88000000000E+00 0. -1.
        -11    1    4    4    0    0  0.36586610391E-01  0.38081901178E-01 -0.37441069734E-02  0.52944222681E-01  0.51100000000E-03 0. -1.
         11    1    4    4    0    0  0.66793482701E-01  0.36040606660E-01  0.15932827893E-02  0.75915046801E-01  0.51100000000E-03 0.  1.
</event>
<event>
 8    1  0.1123285E+005  0.1043930E+01  0.7957747E-01            NaN
         13   -1    0    0    0    0  0.00000000000E+00  0.00000000000E+00  0.74505805969E-08  0.10566000000E+00  0.10566000000E+00 0.  1.
     999900   -1    0    0    0    0 -0.00000000000E+00 -0.00000000000E+00 -0.74505805969E-08  0.93827000000E+00  0.93827000000E+00 0.  1.
     999902    2    1    2    0    0 -0.29701350774E-02  0.20483094969E-01  0.65179894055E-02  0.10222306206E+01  0.10220002831E+01 0.  0.
     999903    2    3    3    0    0  0.79905476186E-01 -0.85066751315E-01  0.55749803363E-01  0.13069660075E+00  0.18770284171E-01 0.  0.
         14    1    1    2    0    0  0.29701350774E-02 -0.20483094969E-01 -0.65179894055E-02  0.21699379433E-01  0.00000000000E+00 0. -1.
     999901    1    3    3    0    0 -0.82875611264E-01  0.10554984628E+00 -0.49231813957E-01  0.89153401982E+00  0.88000000000E+00 0.  1.
        -11    1    4    4    0    0  0.37345500503E-01 -0.52183582203E-01  0.26072608230E-01  0.69266548061E-01  0.51100000000E-03 0.  1.
         11    1    4    4    0    0  0.42559975683E-01 -0.32883169112E-01  0.29677195132E-01  0.61430052685E-01  0.51100000000E-03 0. -1.
</event>
<event>
 8    1  0.1123285E+005  0.1043930E+01  0.7957747E-01            NaN
         13   -1    0    0    0    0  0.00000000000E+00  0.00000000000E+00  0.74505805969E-08  0.10566000000E+00  0.10566000000E+00 0.  1.
     999900   -1    0    0    0    0 -0.00000000000E+00 -0.00000000000E+00 -0.74505805969E-08  0.93827000000E+00  0.93827000000E+00 0. -1.
     999902    2    1    2    0    0  0.12263145934E-01  0.10811314524E-01  0.16349210669E-01  0.10208093175E+01  0.10205474495E+01 0.  0.
     999903    2    3    3    0    0  0.98915213094E-01  0.82266041495E-01 -0.25530615624E-01  0.13268304348E+00  0.20026400775E-01 0.  0.
         14    1    1    2    0    0 -0.12263145934E-01 -0.10811314524E-01 -0.16349210669E-01  0.23120682503E-01  0.00000000000E+00 0. -1.
     999901    1    3    3    0    0 -0.86652067160E-01 -0.71454726971E-01  0.41879826293E-01  0.88812627402E+00  0.88000000000E+00 0.  1.
        -11    1    4    4    0    0  0.65219880989E-01  0.44694911493E-01 -0.90121678723E-02  0.79578566715E-01  0.51100000000E-03 0. -1.
         11    1    4    4    0    0  0.33695332106E-01  0.37571130002E-01 -0.16518447752E-01  0.53104476765E-01  0.51100000000E-03 0.  1.
</event>
<event>
 8    1  0.1123285E+005  0.1043930E+01  0.7957747E-01            NaN
         13   -1    0    0    0    0  0.00000000000E+00  0.00000000000E+00  0.74505805969E-08  0.10566000000E+00  0.10566000000E+00 0.  1.
     999900   -1    0    0    0    0 -0.00000000000E+00 -0.00000000000E+00 -0.74505805969E-08  0.93827000000E+00  0.93827000000E+00 0. -1.
     999902    2    1    2    0    0 -0.11513398275E-01 -0.14148132221E-01 -0.14742853106E-01  0.10204762220E+01  0.10202066653E+01 0.  0.
     999903    2    3    3    0    0  0.49310452824E-01 -0.11902469076E+00  0.17441869080E-01  0.13158112709E+00  0.20272553913E-01 0.  0.
         14    1    1    2    0    0  0.11513398275E-01  0.14148132221E-01  0.14742853106E-01  0.23453778009E-01  0.00000000000E+00 0.  1.
     999901    1    3    3    0    0 -0.60823851100E-01  0.10487655854E+00 -0.32184722186E-01  0.88889509490E+00  0.88000000000E+00 0. -1.
        -11    1    4    4    0    0  0.12446377828E-01 -0.55959541663E-01  0.60559319820E-02  0.57648226837E-01  0.51100000000E-03 0.  1.
         11    1    4    4    0    0  0.36864074996E-01 -0.63065149094E-01  0.11385937098E-01  0.73932900256E-01  0.51100000000E-03 0. -1.
</event>
<event>
 8    1  0.1123285E+005  0.1043930E+01  0.7957747E-01            NaN
         13   -1    0    0    0    0  0.00000000000E+00  0.00000000000E+00  0.74505805969E-08  0.10566000000E+00  0.10566000000E+00 0. -1.
     999900   -1    0    0    0    0 -0.00000000000E+00 -0.00000000000E+00 -0.74505805969E-08  0.93827000000E+00  0.93827000000E+00 0.  1.
     999902    2    1    2    0    0 -0.15449029657E-01 -0.61645391635E-02 -0.14074172766E-01  0.10221410946E+01  0.10219088320E+01 0.  0.
     999903    2    3    3    0    0  0.64251745677E-01 -0.64414965667E-01 -0.94806970511E-01  0.13294870234E+00  0.20234158568E-01 0.  0.
         14    1    1    2    0    0  0.15449029657E-01  0.61645391635E-02  0.14074172766E-01  0.21788905422E-01  0.00000000000E+00 0. -1.
     999901    1    3    3    0    0 -0.79700775334E-01  0.58250426503E-01  0.80732797745E-01  0.88919239223E+00  0.88000000000E+00 0. -1.
        -11    1    4    4    0    0  0.52052509837E-01 -0.52276385092E-01 -0.86931456396E-01  0.11401589122E+00  0.51100000000E-03 0.  1.
         11    1    4    4    0    0  0.12199235840E-01 -0.12138580575E-01 -0.78755141147E-02  0.18932811123E-01  0.51100000000E-03 0. -1.
</event>
<event>
 8    1  0.1123285E+005  0.1043930E+01  0.7957747E-01            NaN
         13   -1    0    0    0    0  0.00000000000E+00  0.00000000000E+00  0.74505805969E-08  0.10566000000E+00  0.10566000000E+00 0.  1.
     999900   -1    0    0    0    0 -0.00000000000E+00 -0.00000000000E+00 -0.74505805969E-08  0.93827000000E+00  0.93827000000E+00 0. -1.
     999902    2    1    2    0    0 -0.18777814885E-01 -0.21862033730E-02 -0.14243149004E-01  0.10202603335E+01  0.10199857328E+01 0.  0.
     999903    2    3    3    0    0 -0.14110263323E-01  0.12715918904E+00 -0.19021131149E-01  0.13078023500E+00  0.19315992042E-01 0.  0.
         14    1    1    2    0    0  0.18777814885E-01  0.21862033730E-02  0.14243149004E-01  0.23669666465E-01  0.00000000000E+00 0.  1.
     999901    1    3    3    0    0 -0.46675515614E-02 -0.12934539241E+00  0.47779821452E-02  0.88948009853E+00  0.88000000000E+00 0. -1.
        -11    1    4    4    0    0 -0.27568988643E-02  0.24897076997E-01  0.39274549091E-02  0.25360421081E-01  0.51100000000E-03 0.  1.
         11    1    4    4    0    0 -0.11353364459E-01  0.10226211204E+00 -0.22948586058E-01  0.10541981392E+00  0.51100000000E-03 0. -1.
</event>
<event>
 8    1  0.1123285E+005  0.1043930E+01  0.7957747E-01            NaN
         13   -1    0    0    0    0  0.00000000000E+00  0.00000000000E+00  0.74505805969E-08  0.10566000000E+00  0.10566000000E+00 0. -1.
     999900   -1    0    0    0    0 -0.00000000000E+00 -0.00000000000E+00 -0.74505805969E-08  0.93827000000E+00  0.93827000000E+00 0.  1.
     999902    2    1    2    0    0 -0.20245991659E-01 -0.65119593557E-02 -0.99090408540E-02  0.10204673726E+01  0.10201976101E+01 0.  0.
     999903    2    3    3    0    0  0.92751722704E-01  0.16531539423E-01  0.84321054065E-01  0.12795474130E+00  0.19652017733E-01 0.  0.
         14    1    1    2    0    0  0.20245991659E-01  0.65119593557E-02  0.99090408540E-02  0.23462627379E-01  0.00000000000E+00 0. -1.
     999901    1    3    3    0    0 -0.11299771436E+00 -0.23043498778E-01 -0.94230094919E-01  0.89251263133E+00  0.88000000000E+00 0.  1.
        -11    1    4    4    0    0  0.96990701474E-02  0.78580726056E-02  0.14190873164E-01  0.18906699049E-01  0.51100000000E-03 0.  1.
         11    1    4    4    0    0  0.83052652557E-01  0.86734668173E-02  0.70130180902E-01  0.10904804225E+00  0.51100000000E-03 0. -1.
</event>
<event>
 8    1  0.1123285E+005  0.1043930E+01  0.7957747E-01            NaN
         13   -1    0    0    0    0  0.00000000000E+00  0.00000000000E+00  0.74505805969E-08  0.10566000000E+00  0.10566000000E+00 0. -1.
     999900   -1    0    0    0    0 -0.00000000000E+00 -0.00000000000E+00 -0.74505805969E-08  0.93827000000E+00  0.93827000000E+00 0.  1.
     999902    2    1    2    0    0 -0.23543886728E-02  0.23087639294E-01  0.54674086758E-02  0.10200872906E+01  0.10198086123E+01 0.  0.
     999903    2    3    3    0    0  0.12684159858E+00 -0.68022921411E-02 -0.16978997737E-01  0.12986886106E+00  0.21037404773E-01 0.  0.
         14    1    1    2    0    0  0.23543886728E-02 -0.23087639294E-01 -0.54674086758E-02  0.23842709406E-01  0.00000000000E+00 0. -1.
     999901    1    3    3    0    0 -0.12919598725E+00  0.29889931435E-01  0.22446406412E-01  0.89021842954E+00  0.88000000000E+00 0. -1.
        -11    1    4    4    0    0  0.58830610485E-01  0.61210933385E-02 -0.28967241148E-02  0.59221285407E-01  0.51100000000E-03 0. -1.
         11    1    4    4    0    0  0.68010988096E-01 -0.12923385480E-01 -0.14082273622E-01  0.70647575651E-01  0.51100000000E-03 0.  1.
</event>
<event>
 8    1  0.1123285E+005  0.1043930E+01  0.7957747E-01            NaN
         13   -1    0    0    0    0  0.00000000000E+00  0.00000000000E+00  0.74505805969E-08  0.10566000000E+00  0.10566000000E+00 0. -1.
     999900   -1    0    0    0    0 -0.00000000000E+00 -0.00000000000E+00 -0.74505805969E-08  0.93827000000E+00  0.93827000000E+00 0.  1.
     999902    2    1    2    0    0  0.98230094583E-02 -0.39169169018E-02 -0.21304980034E-01  0.10201447960E+01  0.10198674762E+01 0.  0.
     999903    2    3    3    0    0 -0.62125290807E-01  0.20912134909E-01  0.10746029816E+00  0.12752307516E+00  0.20434037137E-01 0.  0.
         14    1    1    2    0    0 -0.98230094583E-02  0.39169169018E-02  0.21304980034E-01  0.23785203953E-01  0.00000000000E+00 0. -1.
     999901    1    3    3    0    0  0.71948300265E-01 -0.24829051810E-01 -0.12876527820E+00  0.89262172088E+00  0.88000000000E+00 0.  1.
        -11    1    4    4    0    0 -0.40676164081E-01  0.19416376560E-01  0.56990142271E-01  0.72661430209E-01  0.51100000000E-03 0.  1.
         11    1    4    4    0    0 -0.21449126726E-01  0.14957583491E-02  0.50470155891E-01  0.54861644953E-01  0.51100000000E-03 0. -1.
</event>
<event>
 8    1  0.1123285E+005  0.1043930E+01  0.7957747E-01            NaN
         13   -1    0    0    0    0  0.00000000000E+00  0.00000000000E+00  0.74505805969E-08  0.10566000000E+00  0.10566000000E+00 0.  1.
     999900   -1    0    0    0    0 -0.00000000000E+00 -0.00000000000E+00 -0.74505805969E-08  0.93827000000E+00  0.93827000000E+00 0.  1.
     999902    2    1    2    0    0  0.25975086407E-02 -0.73707313107E-02  0.22163077059E-01  0.10204294316E+01  0.10201587857E+01 0.  0.
     999903    2    3    3    0    0 -0.68248235936E-01 -0.94527203445E-01  0.59473134063E-01  0.13250634341E+00  0.20680025841E-01 0.  0.
         14    1    1    2    0    0 -0.25975086407E-02  0.73707313107E-02 -0.22163077059E-01  0.23500568417E-01  0.00000000000E+00 0. -1.
     999901    1    3    3    0    0  0.70845744577E-01  0.87156472134E-01 -0.37310057003E-01  0.88792308817E+00  0.88000000000E+00 0.  1.
        -11    1    4    4    0    0 -0.28770488218E-01 -0.29880081960E-01  0.30137599389E-01  0.51274714121E-01  0.51100000000E-03 0. -1.
         11    1    4    4    0    0 -0.39477747718E-01 -0.64647121484E-01  0.29335534673E-01  0.81231629288E-01  0.51100000000E-03 0.  1.
</event>
<event>
 8    1  0.1123285E+005  0.1043930E+01  0.7957747E-01            NaN
         13   -1    0    0    0    0  0.00000000000E+00  0.00000000000E+00  0.74505805969E-08  0.10566000000E+00  0.10566000000E+00 0.  1.
     999900   -1    0    0    0    0 -0.00000000000E+00 -0.00000000000E+00 -0.74505805969E-08  0.93827000000E+00  0.93827000000E+00 0. -1.
     999902    2    1    2    0    0 -0.48393195205E-02  0.14756225723E-01  0.17101070698E-01  0.10208299604E+01  0.10205685652E+01 0.  0.
     999903    2    3    3    0    0  0.19479614632E-01  0.85119996131E-01  0.99295789745E-01  0.13386973434E+00  0.20894563524E-01 0.  0.
         14    1    1    2    0    0  0.48393195205E-02 -0.14756225723E-01 -0.17101070698E-01  0.23100039612E-01  0.00000000000E+00 0. -1.
     999901    1    3    3    0    0 -0.24318934153E-01 -0.70363770408E-01 -0.82194719047E-01  0.88696022604E+00  0.88000000000E+00 0. -1.
        -11    1    4    4    0    0  0.21726338517E-01  0.49141806706E-01  0.59720314964E-01  0.80335098755E-01  0.51100000000E-03 0. -1.
         11    1    4    4    0    0 -0.22467238844E-02  0.35978189425E-01  0.39575474781E-01  0.53534635589E-01  0.51100000000E-03 0.  1.
</event>
<event>
 8    1  0.1123285E+005  0.1043930E+01  0.7957747E-01            NaN
         13   -1    0    0    0    0  0.00000000000E+00  0.00000000000E+00  0.74505805969E-08  0.10566000000E+00  0.10566000000E+00 0.  1.
     999900   -1    0    0    0    0 -0.00000000000E+00 -0.00000000000E+00 -0.74505805969E-08  0.93827000000E+00  0.93827000000E+00 0.  1.
     999902    2    1    2    0    0  0.26786902744E-03 -0.19408408725E-01 -0.14702416734E-01  0.10195800690E+01  0.10192892612E+01 0.  0.
     999903    2    3    3    0    0  0.52462408714E-01  0.11340083358E+00 -0.21739736024E-01  0.12805772563E+00  0.17723193461E-01 0.  0.
         14    1    1    2    0    0 -0.26786902744E-03  0.19408408725E-01  0.14702416734E-01  0.24349931024E-01  0.00000000000E+00 0. -1.
     999901    1    3    3    0    0 -0.52194539686E-01 -0.13280924231E+00  0.70373192902E-02  0.89152234334E+00  0.88000000000E+00 0. -1.
        -11    1    4    4    0    0  0.27887426156E-01  0.78047539743E-01 -0.10406098738E-01  0.83532478770E-01  0.51100000000E-03 0.  1.
         11    1    4    4    0    0  0.24574982558E-01  0.35353293841E-01 -0.11333637286E-01  0.44525246864E-01  0.51100000000E-03 0. -1.
</event>
<event>
 8    1  0.1123285E+005  0.1043930E+01  0.7957747E-01            NaN
         13   -1    0    0    0    0  0.00000000000E+00  0.00000000000E+00  0.74505805969E-08  0.10566000000E+00  0.10566000000E+00 0. -1.
     999900   -1    0    0    0    0 -0.00000000000E+00 -0.00000000000E+00 -0.74505805969E-08  0.93827000000E+00  0.93827000000E+00 0.  1.
     999902    2    1    2    0    0 -0.18249813265E-01 -0.10392517940E-02 -0.13047638836E-01  0.10214716695E+01  0.10212247525E+01 0.  0.
     999903    2    3    3    0    0 -0.57442326593E-02 -0.61787802870E-01 -0.11640982496E+00  0.13325406245E+00  0.18832658298E-01 0.  0.
         14    1    1    2    0    0  0.18249813265E-01  0.10392517940E-02  0.13047638836E-01  0.22458330474E-01  0.00000000000E+00 0. -1.
     999901    1    3    3    0    0 -0.12505580605E-01  0.60748551077E-01  0.10336218613E+00  0.88821760708E+00  0.88000000000E+00 0. -1.
        -11    1    4    4    0    0  0.65660926353E-02 -0.15682697377E-01 -0.27170864337E-01  0.32055850626E-01  0.51100000000E-03 0. -1.
         11    1    4    4    0    0 -0.12310325295E-01 -0.46105105493E-01 -0.89238960625E-01  0.10119821182E+00  0.51100000000E-03 0.  1.
</event>
<event>
 8    1  0.1123285E+005  0.1043930E+01  0.7957747E-01            NaN
         13   -1    0    0    0    0  0.00000000000E+00  0.00000000000E+00  0.74505805969E-08  0.10566000000E+00  0.10566000000E+00 0. -1.
     999900   -1    0    0    0    0 -0.00000000000E+00 -0.00000000000E+00 -0.74505805969E-08  0.93827000000E+00  0.93827000000E+00 0. -1.
     999902    2    1    2    0    0 -0.17254766607E-02  0.78706362086E-02 -0.22129288572E-01  0.10203794247E+01  0.10201076123E+01 0.  0.
     999903    2    3    3    0    0 -0.52876423749E-01  0.42497039858E-01  0.10757022439E+00  0.12873074340E+00  0.19958370070E-01 0.  0.
         14    1    1    2    0    0  0.17254766607E-02 -0.78706362086E-02  0.22129288572E-01  0.23550575295E-01  0.00000000000E+00 0. -1.
     999901    1    3    3    0    0  0.51150947089E-01 -0.34626403650E-01 -0.12969951296E+00  0.89164868131E+00  0.88000000000E+00 0. -1.
        -11    1    4    4    0    0 -0.47046078217E-01  0.33085979612E-01  0.99825531295E-01  0.11521030050E+00  0.51100000000E-03 0.  1.
         11    1    4    4    0    0 -0.58303455328E-02  0.94110602467E-02  0.77446930902E-02  0.13520442894E-01  0.51100000000E-03 0. -1.
</event>
<event>
 8    1  0.1123285E+005  0.1043930E+01  0.7957747E-01            NaN
         13   -1    0    0    0    0  0.00000000000E+00  0.00000000000E+00  0.74505805969E-08  0.10566000000E+00  0.10566000000E+00 0.  1.
     999900   -1    0    0    0    0 -0.00000000000E+00 -0.00000000000E+00 -0.74505805969E-08  0.93827000000E+00  0.93827000000E+00 0.  1.
     999902    2    1    2    0    0 -0.38006007521E-02 -0.22034228322E-01 -0.50928947547E-02  0.10209977223E+01  0.10207401528E+01 0.  0.
     999903    2    3    3    0    0  0.32953340048E-01  0.59092832133E-01 -0.10956196603E+00  0.13035400062E+00  0.20259705026E-01 0.  0.
         14    1    1    2    0    0  0.38006007521E-02  0.22034228322E-01  0.50928947547E-02  0.22932277706E-01  0.00000000000E+00 0.  1.
     999901    1    3    3    0    0 -0.36753940800E-01 -0.81127060455E-01  0.10446907127E+00  0.89064372167E+00  0.88000000000E+00 0. -1.
        -11    1    4    4    0    0  0.18923984782E-01  0.27272576355E-01 -0.35920346217E-01  0.48912605885E-01  0.51100000000E-03 0. -1.
         11    1    4    4    0    0  0.14029355266E-01  0.31820255779E-01 -0.73641619812E-01  0.81441394736E-01  0.51100000000E-03 0.  1.
</event>
<event>
 8    1  0.1123285E+005  0.1043930E+01  0.7957747E-01            NaN
         13   -1    0    0    0    0  0.00000000000E+00  0.00000000000E+00  0.74505805969E-08  0.10566000000E+00  0.10566000000E+00 0. -1.
     999900   -1    0    0    0    0 -0.00000000000E+00 -0.00000000000E+00 -0.74505805969E-08  0.93827000000E+00  0.93827000000E+00 0. -1.
     999902    2    1    2    0    0  0.15126339100E-01  0.90638175759E-02 -0.16659564551E-01  0.10196709808E+01  0.10193823664E+01 0.  0.
     999903    2    3    3    0    0 -0.94173464633E-02 -0.10403426486E+00  0.70930724052E-01  0.12778218309E+00  0.19629162489E-01 0.  0.
         14    1    1    2    0    0 -0.15126339100E-01 -0.90638175759E-02  0.16659564551E-01  0.24259019243E-01  0.00000000000E+00 0. -1.
     999901    1    3    3    0    0  0.24543685564E-01  0.11309808244E+00 -0.87590288603E-01  0.89188879767E+00  0.88000000000E+00 0. -1.
        -11    1    4    4    0    0 -0.12346443748E-01 -0.90004560764E-01  0.67087868382E-01  0.11293493187E+00  0.51100000000E-03 0. -1.
         11    1    4    4    0    0  0.29290972843E-02 -0.14029704097E-01  0.38428556702E-02  0.14847251215E-01  0.51100000000E-03 0.  1.
</event>
<event>
 8    1  0.1123285E+005  0.1043930E+01  0.7957747E-01            NaN
         13   -1    0    0    0    0  0.00000000000E+00  0.00000000000E+00  0.74505805969E-08  0.10566000000E+00  0.10566000000E+00 0.  1.
     999900   -1    0    0    0    0 -0.00000000000E+00 -0.00000000000E+00 -0.74505805969E-08  0.93827000000E+00  0.93827000000E+00 0.  1.
     999902    2    1    2    0    0 -0.21798737005E-01  0.16366261438E-02  0.95134120749E-02  0.10200895199E+01  0.10198108943E+01 0.  0.
     999903    2    3    3    0    0  0.97208455506E-01 -0.41675550922E-01  0.70086303253E-01  0.12896229463E+00  0.23083504173E-01 0.  0.
         14    1    1    2    0    0  0.21798737005E-01 -0.16366261438E-02 -0.95134120749E-02  0.23840480059E-01  0.00000000000E+00 0. -1.
     999901    1    3    3    0    0 -0.11900719251E+00  0.43312177066E-01 -0.60572891179E-01  0.89112722531E+00  0.88000000000E+00 0.  1.
        -11    1    4    4    0    0  0.75824337734E-01 -0.32183252538E-01  0.65203709296E-01  0.10505654079E+00  0.51100000000E-03 0. -1.
         11    1    4    4    0    0  0.21384117772E-01 -0.94922983842E-02  0.48825939576E-02  0.23905753832E-01  0.51100000000E-03 0.  1.
</event>
<event>
 8    1  0.1123285E+005  0.1043930E+01  0.7957747E-01            NaN
         13   -1    0    0    0    0  0.00000000000E+00  0.00000000000E+00  0.74505805969E-08  0.10566000000E+00  0.10566000000E+00 0.  1.
     999900   -1    0    0    0    0 -0.00000000000E+00 -0.00000000000E+00 -0.74505805969E-08  0.93827000000E+00  0.93827000000E+00 0.  1.
     999902    2    1    2    0    0  0.94219978405E-02  0.19485600486E-01  0.91318618540E-02  0.10204384362E+01  0.10201680001E+01 0.  0.
     999903    2    3    3    0    0  0.86323231931E-01 -0.94128809504E-01 -0.10046856120E-01  0.12960183097E+00  0.19589847466E-01 0.  0.
         14    1    1    2    0    0 -0.94219978405E-02 -0.19485600486E-01 -0.91318618540E-02  0.23491563817E-01  0.00000000000E+00 0. -1.
     999901    1    3    3    0    0 -0.76901234090E-01  0.11361440999E+00  0.19178717974E-01  0.89083660521E+00  0.88000000000E+00 0. -1.
        -11    1    4    4    0    0  0.27255880515E-01 -0.17271722731E-01 -0.19649080022E-02  0.32331368873E-01  0.51100000000E-03 0.  1.
         11    1    4    4    0    0  0.59067351415E-01 -0.76857086773E-01 -0.80819481176E-02  0.97270462099E-01  0.51100000000E-03 0. -1.
</event>
<event>
 8    1  0.1123285E+005  0.1043930E+01  0.7957747E-01            NaN
         13   -1    0    0    0    0  0.00000000000E+00  0.00000000000E+00  0.74505805969E-08  0.10566000000E+00  0.10566000000E+00 0.  1.
     999900   -1    0    0    0    0 -0.00000000000E+00 -0.00000000000E+00 -0.74505805969E-08  0.93827000000E+00  0.93827000000E+00 0.  1.
     999902    2    1    2    0    0  0.16402557398E-01  0.23381988128E-02 -0.16983551959E-01  0.10202033884E+01  0.10199274491E+01 0.  0.
     999903    2    3    3    0    0 -0.11187672008E-01  0.12856035889E+00 -0.90762108239E-03  0.13062388657E+00  0.20219942684E-01 0.  0.
         14    1    1    2    0    0 -0.16402557398E-01 -0.23381988128E-02  0.16983551959E-01  0.23726611642E-01  0.00000000000E+00 0.  1.
     999901    1    3    3    0    0  0.27590229406E-01 -0.12622216008E+00 -0.16075930876E-01  0.88957950179E+00  0.88000000000E+00 0. -1.
        -11    1    4    4    0    0 -0.20615608184E-02  0.13697441230E-02 -0.17988796806E-02  0.31021478166E-02  0.51100000000E-03 0. -1.
         11    1    4    4    0    0 -0.91261111894E-02  0.12719061477E+00  0.89125859822E-03  0.12752173875E+00  0.51100000000E-03 0.  1.
</event>
<event>
 8    1  0.1123285E+005  0.1043930E+01  0.7957747E-01            NaN
         13   -1    0    0    0    0  0.00000000000E+00  0.00000000000E+00  0.74505805969E-08  0.10566000000E+00  0.10566000000E+00 0. -1.
     999900   -1    0    0    0    0 -0.00000000000E+00 -0.00000000000E+00 -0.74505805969E-08  0.93827000000E+00  0.93827000000E+00 0.  1.
     999902    2    1    2    0    0 -0.16794032049E-01  0.73680110449E-02 -0.13933141933E-01  0.10208982927E+01  0.10206384592E+01 0.  0.
     999903    2    3    3    0    0 -0.13626520023E-01 -0.17255170889E-01  0.12648607175E+00  0.12941980733E+00  0.16350449881E-01 0.  0.
         14    1    1    2    0    0  0.16794032049E-01 -0.73680110449E-02  0.13933141933E-01  0.23031707348E-01  0.00000000000E+00 0. -1.
     999901    1    3    3    0    0 -0.31675120262E-02  0.24623181934E-01 -0.14041921369E+00  0.89147848532E+00  0.88000000000E+00 0.  1.
        -11    1    4    4    0    0 -0.92674965687E-02  0.24321610111E-03  0.47618245312E-01  0.48514987935E-01  0.51100000000E-03 0.  1.
         11    1    4    4    0    0 -0.43590234543E-02 -0.17498386990E-01  0.78867826442E-01  0.80904819395E-01  0.51100000000E-03 0. -1.
</event>
<event>
 8    1  0.1123285E+005  0.1043930E+01  0.7957747E-01            NaN
         13   -1    0    0    0    0  0.00000000000E+00  0.00000000000E+00  0.74505805969E-08  0.10566000000E+00  0.10566000000E+00 0. -1.
     999900   -1    0    0    0    0 -0.00000000000E+00 -0.00000000000E+00 -0.74505805969E-08  0.93827000000E+00  0.93827000000E+00 0. -1.
     999902    2    1    2    0    0  0.25293933481E-02  0.86242396567E-02 -0.21990614636E-01  0.10201736856E+01  0.10198970470E+01 0.  0.
     999903    2    3    3    0    0  0.89536335618E-01 -0.75901746629E-01 -0.55029695752E-01  0.13123812484E+00  0.20429083660E-01 0.  0.
         14    1    1    2    0    0 -0.25293933481E-02 -0.86242396567E-02  0.21990614636E-01  0.23756314369E-01  0.00000000000E+00 0. -1.
     999901    1    3    3    0    0 -0.87006942270E-01  0.84525986286E-01  0.33039081116E-01  0.88893556079E+00  0.88000000000E+00 0.  1.
        -11    1    4    4    0    0  0.28052047205E-01 -0.29805320298E-01 -0.98782596724E-02  0.42108379280E-01  0.51100000000E-03 0.  1.
         11    1    4    4    0    0  0.61484288412E-01 -0.46096426332E-01 -0.45151436079E-01  0.89129745558E-01  0.51100000000E-03 0. -1.
</event>
<event>
 8    1  0.1123285E+005  0.1043930E+01  0.7957747E-01            NaN
         13   -1    0    0    0    0  0.00000000000E+00  0.00000000000E+00  0.74505805969E-08  0.10566000000E+00  0.10566000000E+00 0.  1.
     999900   -1    0    0    0    0 -0.00000000000E+00 -0.00000000000E+00 -0.74505805969E-08  0.93827000000E+00  0.93827000000E+00 0. -1.
     999902    2    1    2    0    0 -0.21490638691E-01  0.35536704766E-02  0.11530142361E-01  0.10192841016E+01  0.10189860939E+01 0.  0.
     999903    2    3    3    0    0 -0.10770008259E+00 -0.19909979019E-01  0.72214430028E-01  0.13268092439E+00  0.19839070981E-01 0.  0.
         14    1    1    2    0    0  0.21490638691E-01 -0.35536704766E-02 -0.11530142361E-01  0.24645898402E-01  0.00000000000E+00 0.  1.
     999901    1    3    3    0    0  0.86209443902E-01  0.23463649495E-01 -0.60684287668E-01  0.88660317721E+00  0.88000000000E+00 0. -1.
        -11    1    4    4    0    0 -0.53728018417E-01 -0.18300642105E-01  0.30430961291E-01  0.64404332080E-01  0.51100000000E-03 0. -1.
         11    1    4    4    0    0 -0.53972064176E-01 -0.16093369135E-02  0.41783468738E-01  0.68276592310E-01  0.51100000000E-03 0.  1.
</event>
<event>
 8    1  0.1123285E+005  0.1043930E+01  0.7957747E-01            NaN
         13   -1    0    0    0    0  0.00000000000E+00  0.00000000000E+00  0.74505805969E-08  0.10566000000E+00  0.10566000000E+00 0.  1.
     999900   -1    0    0    0    0 -0.00000000000E+00 -0.00000000000E+00 -0.74505805969E-08  0.93827000000E+00  0.93827000000E+00 0.  1.
     999902    2    1    2    0    0 -0.13314294368E-01 -0.12252114775E-01  0.14934470391E-01  0.10204689012E+01  0.10201991743E+01 0.  0.
     999903    2    3    3    0    0 -0.71271962499E-01  0.35188543414E-01  0.10482542597E+00  0.13272451725E+00  0.17592649682E-01 0.  0.
         14    1    1    2    0    0  0.13314294368E-01  0.12252114775E-01 -0.14934470391E-01  0.23461098798E-01  0.00000000000E+00 0. -1.
     999901    1    3    3    0    0  0.57957668131E-01 -0.47440658189E-01 -0.89890955580E-01  0.88774438395E+00  0.88000000000E+00 0.  1.
        -11    1    4    4    0    0 -0.17983592051E-01  0.16879899420E-01  0.38099632310E-01  0.45389246421E-01  0.51100000000E-03 0. -1.
         11    1    4    4    0    0 -0.53288370448E-01  0.18308643994E-01  0.66725793661E-01  0.87335270828E-01  0.51100000000E-03 0.  1.
</event>
<event>
 8    1  0.1123285E+005  0.1043930E+01  0.7957747E-01            NaN
         13   -1    0    0    0    0  0.00000000000E+00  0.00000000000E+00  0.74505805969E-08  0.10566000000E+00  0.10566000000E+00 0.  1.
     999900   -1    0    0    0    0 -0.00000000000E+00 -0.00000000000E+00 -0.74505805969E-08  0.93827000000E+00  0.93827000000E+00 0. -1.
     999902    2    1    2    0    0  0.12853656469E-01 -0.49816664426E-02 -0.20262717577E-01  0.10194226295E+01  0.10191280029E+01 0.  0.
     999903    2    3    3    0    0 -0.83165271989E-01 -0.79353253666E-01  0.48924598562E-01  0.12839083864E+00  0.29617389655E-01 0.  0.
         14    1    1    2    0    0 -0.12853656469E-01  0.49816664426E-02  0.20262717577E-01  0.24507370499E-01  0.00000000000E+00 0.  1.
     999901    1    3    3    0    0  0.96018928458E-01  0.74371587223E-01 -0.69187316140E-01  0.89103179086E+00  0.88000000000E+00 0. -1.
        -11    1    4    4    0    0 -0.47160864890E-01 -0.30491485072E-01  0.12274137764E-01  0.57487332674E-01  0.51100000000E-03 0. -1.
         11    1    4    4    0    0 -0.36004407099E-01 -0.48861768594E-01  0.36650460798E-01  0.70903505967E-01  0.51100000000E-03 0.  1.
</event>
<event>
 8    1  0.1123285E+005  0.1043930E+01  0.7957747E-01            NaN
         13   -1    0    0    0    0  0.00000000000E+00  0.00000000000E+00  0.74505805969E-08  0.10566000000E+00  0.10566000000E+00 0. -1.
     999900   -1    0    0    0    0 -0.00000000000E+00 -0.00000000000E+00 -0.74505805969E-08  0.93827000000E+00  0.93827000000E+00 0.  1.
     999902    2    1    2    0    0 -0.93737590260E-02 -0.18300396555E-01 -0.94523277128E-02  0.10212999675E+01  0.10210492178E+01 0.  0.
     999903    2    3    3    0    0 -0.86887551288E-01 -0.90034298407E-01 -0.44169043987E-01  0.13430538405E+00  0.20770418355E-01 0.  0.
         14    1    1    2    0    0  0.93737590260E-02  0.18300396555E-01  0.94523277128E-02  0.22630032513E-01  0.00000000000E+00 0.  1.
     999901    1    3    3    0    0  0.77513792262E-01  0.71733901852E-01  0.34716716274E-01  0.88699458344E+00  0.88000000000E+00 0. -1.
        -11    1    4    4    0    0 -0.31783022977E-01 -0.29739849951E-01 -0.25732217258E-01  0.50567057960E-01  0.51100000000E-03 0. -1.
         11    1    4    4    0    0 -0.55104528310E-01 -0.60294448456E-01 -0.18436826729E-01  0.83738326086E-01  0.51100000000E-03 0.  1.
</event>
<event>
 8    1  0.1123285E+005  0.1043930E+01  0.7957747E-01            NaN
         13   -1    0    0    0    0  0.00000000000E+00  0.00000000000E+00  0.74505805969E-08  0.10566000000E+00  0.10566000000E+00 0. -1.
     999900   -1    0    0    0    0 -0.00000000000E+00 -0.00000000000E+00 -0.74505805969E-08  0.93827000000E+00  0.93827000000E+00 0.  1.
     999902    2    1    2    0    0 -0.82680983009E-02  0.21971541106E-01  0.49726167608E-02  0.10199333964E+01  0.10196510658E+01 0.  0.
     999903    2    3    3    0    0  0.40516738837E-01  0.10875688326E+00 -0.59828089375E-01  0.13195209733E+00  0.19033915210E-01 0.  0.
         14    1    1    2    0    0  0.82680983009E-02 -0.21971541106E-01 -0.49726167608E-02  0.23996603625E-01  0.00000000000E+00 0.  1.
     999901    1    3    3    0    0 -0.48784837138E-01 -0.86785342153E-01  0.64800706136E-01  0.88798129905E+00  0.88000000000E+00 0. -1.
        -11    1    4    4    0    0  0.39360379308E-01  0.85079489591E-01 -0.50413345644E-01  0.10644024403E+00  0.51100000000E-03 0. -1.
         11    1    4    4    0    0  0.11563595296E-02  0.23677393667E-01 -0.94147437312E-02  0.25511853299E-01  0.51100000000E-03 0.  1.
</event>
<event>
 8    1  0.1123285E+005  0.1043930E+01  0.7957747E-01            NaN
         13   -1    0    0    0    0  0.00000000000E+00  0.00000000000E+00  0.74505805969E-08  0.10566000000E+00  0.10566000000E+00 0. -1.
     999900   -1    0    0    0    0 -0.00000000000E+00 -0.00000000000E+00 -0.74505805969E-08  0.93827000000E+00  0.93827000000E+00 0.  1.
     999902    2    1    2    0    0  0.91895857513E-02  0.16529121166E-01  0.17576433521E-01  0.10181115696E+01  0.10177841504E+01 0.  0.
     999903    2    3    3    0    0  0.12279364649E+00  0.65810521756E-02 -0.34338357841E-01  0.12923587961E+00  0.20029974904E-01 0.  0.
         14    1    1    2    0    0 -0.91895857513E-02 -0.16529121166E-01 -0.17576433521E-01  0.25818430396E-01  0.00000000000E+00 0.  1.
     999901    1    3    3    0    0 -0.11360406074E+00  0.99480689906E-02  0.51914791362E-01  0.88887568999E+00  0.88000000000E+00 0. -1.
        -11    1    4    4    0    0  0.94193076992E-01 -0.34888151843E-02 -0.25452884004E-01  0.97635126926E-01  0.51100000000E-03 0.  1.
         11    1    4    4    0    0  0.28600569496E-01  0.10069867360E-01 -0.88854738370E-02  0.31600752688E-01  0.51100000000E-03 0. -1.
</event>
<event>
 8    1  0.1123285E+005  0.1043930E+01  0.7957747E-01            NaN
         13   -1    0    0    0    0  0.00000000000E+00  0.00000000000E+00  0.74505805969E-08  0.10566000000E+00  0.10566000000E+00 0. -1.
     999900   -1    0    0    0    0 -0.00000000000E+00 -0.00000000000E+00 -0.74505805969E-08  0.93827000000E+00  0.93827000000E+00 0.  1.
     999902    2    1    2    0    0  0.20707364150E-01  0.69732748407E-02 -0.94896363603E-02  0.10201082727E+01  0.10198300905E+01 0.  0.
     999903    2    3    3    0    0 -0.71784060168E-01  0.10377443784E+00  0.21238222003E-01  0.12945158802E+00  0.19610362675E-01 0.  0.
         14    1    1    2    0    0 -0.20707364150E-01 -0.69732748407E-02  0.94896363603E-02  0.23821727274E-01  0.00000000000E+00 0. -1.
     999901    1    3    3    0    0  0.92491424318E-01 -0.96801162999E-01 -0.30727858364E-01  0.89065668471E+00  0.88000000000E+00 0.  1.
        -11    1    4    4    0    0 -0.19905233162E-01  0.31502670814E-01 -0.25667687421E-02  0.37356204283E-01  0.51100000000E-03 0.  1.
         11    1    4    4    0    0 -0.51878827006E-01  0.72271767025E-01  0.23804990745E-01  0.92095383738E-01  0.51100000000E-03 0. -1.
</event>
<event>
 8    1  0.1123285E+005  0.1043930E+01  0.7957747E-01            NaN
         13   -1    0    0    0    0  0.00000000000E+00  0.00000000000E+00  0.74505805969E-08  0.10566000000E+00  0.10566000000E+00 0.  1.
     999900   -1    0    0    0    0 -0.00000000000E+00 -0.00000000000E+00 -0.74505805969E-08  0.93827000000E+00  0.93827000000E+00 0.  1.
     999902    2    1    2    0    0 -0.14450398233E-01  0.15204125881E-01 -0.99712459776E-02  0.10207049015E+01  0.10204406356E+01 0.  0.
     999903    2    3    3    0    0  0.23458524021E-01 -0.10159349801E-01  0.12508052620E+00  0.12923455796E+00  0.20072822387E-01 0.  0.
         14    1    1    2    0    0  0.14450398233E-01 -0.15204125881E-01  0.99712459776E-02  0.23225098476E-01  0.00000000000E+00 0.  1.
     999901    1    3    3    0    0 -0.37908922254E-01  0.25363475681E-01 -0.13505177218E+00  0.89147034356E+00  0.88000000000E+00 0.  1.
        -11    1    4    4    0    0  0.11868232328E-02 -0.71122584245E-02  0.12579349000E-01  0.14508408305E-01  0.51100000000E-03 0.  1.
         11    1    4    4    0    0  0.22271700788E-01 -0.30470913762E-02  0.11250117720E+00  0.11472614966E+00  0.51100000000E-03 0. -1.
</event>
<event>
 8    1  0.1123285E+005  0.1043930E+01  0.7957747E-01            NaN
         13   -1    0    0    0    0  0.00000000000E+00  0.00000000000E+00  0.74505805969E-08  0.10566000000E+00  0.10566000000E+00 0.  1.
     999900   -1    0    0    0    0 -0.00000000000E+00 -0.00000000000E+00 -0.74505805969E-08  0.93827000000E+00  0.93827000000E+00 0.  1.
     999902    2    1    2    0    0 -0.66872160137E-02 -0.21075428032E-01 -0.65269205994E-02  0.10208758633E+01  0.10206155178E+01 0.  0.
     999903    2    3    3    0    0 -0.18533296209E-01 -0.33449034345E-01 -0.12549660560E+00  0.13270514681E+00  0.19973407474E-01 0.  0.
         14    1    1    2    0    0  0.66872160137E-02  0.21075428032E-01  0.65269205994E-02  0.23054136663E-01  0.00000000000E+00 0.  1.
     999901    1    3    3    0    0  0.11846080195E-01  0.12373606312E-01  0.11896968500E+00  0.88817071653E+00  0.88000000000E+00 0. -1.
        -11    1    4    4    0    0 -0.21353478209E-01 -0.28971314951E-01 -0.92022504006E-01  0.98811489646E-01  0.51100000000E-03 0.  1.
         11    1    4    4    0    0  0.28201820002E-02 -0.44777193935E-02 -0.33474101592E-01  0.33893657163E-01  0.51100000000E-03 0. -1.
</event>
<event>
 8    1  0.1123285E+005  0.1043930E+01  0.7957747E-01            NaN
         13   -1    0    0    0    0  0.00000000000E+00  0.00000000000E+00  0.74505805969E-08  0.10566000000E+00  0.10566000000E+00 0.  1.
     999900   -1    0    0    0    0 -0.00000000000E+00 -0.00000000000E+00 -0.74505805969E-08  0.93827000000E+00  0.93827000000E+00 0. -1.
     999902    2    1    2    0    0  0.73614126610E-02 -0.22852629699E-01 -0.11001707196E-02  0.10198957857E+01  0.10196125589E+01 0.  0.
     999903    2    3    3    0    0  0.22006783567E-01 -0.20601410218E-01  0.12613162330E+00  0.13062221460E+00  0.15628817118E-01 0.  0.
         14    1    1    2    0    0 -0.73614126610E-02  0.22852629699E-01  0.11001707196E-02  0.24034214282E-01  0.00000000000E+00 0. -1.
     999901    1    3    3    0    0 -0.14645370906E-01 -0.22512194814E-02 -0.12723179402E+00  0.88927357112E+00  0.88000000000E+00 0. -1.
        -11    1    4    4    0    0  0.11830321298E-01 -0.10252892369E-02  0.43743199938E-01  0.45329200102E-01  0.51100000000E-03 0.  1.
         11    1    4    4    0    0  0.10176462269E-01 -0.19576120981E-01  0.82388423364E-01  0.85293014499E-01  0.51100000000E-03 0. -1.
</event>
<event>
 8    1  0.1123285E+005  0.1043930E+01  0.7957747E-01            NaN
         13   -1    0    0    0    0  0.00000000000E+00  0.00000000000E+00  0.74505805969E-08  0.10566000000E+00  0.10566000000E+00 0. -1.
     999900   -1    0    0    0    0 -0.00000000000E+00 -0.00000000000E+00 -0.74505805969E-08  0.93827000000E+00  0.93827000000E+00 0. -1.
     999902    2    1    2    0    0  0.69463422024E-02 -0.17024654120E-01  0.15844886538E-01  0.10196575682E+01  0.10193686308E+01 0.  0.
     999903    2    3    3    0    0  0.28387252689E-01  0.25732731999E-01 -0.12023164631E+00  0.12791504394E+00  0.20942781132E-01 0.  0.
         14    1    1    2    0    0 -0.69463422024E-02  0.17024654120E-01 -0.15844886538E-01  0.24272431837E-01  0.00000000000E+00 0.  1.
     999901    1    3    3    0    0 -0.21440910487E-01 -0.42757386119E-01  0.13607653285E+00  0.89174252422E+00  0.88000000000E+00 0.  1.
        -11    1    4    4    0    0  0.27290207075E-01  0.25724474321E-01 -0.87986738375E-01  0.95647431916E-01  0.51100000000E-03 0.  1.
         11    1    4    4    0    0  0.10970456139E-02  0.82576775957E-05 -0.32244907934E-01  0.32267612027E-01  0.51100000000E-03 0. -1.
</event>
<event>
 8    1  0.1123285E+005  0.1043930E+01  0.7957747E-01            NaN
         13   -1    0    0    0    0  0.00000000000E+00  0.00000000000E+00  0.74505805969E-08  0.10566000000E+00  0.10566000000E+00 0.  1.
     999900   -1    0    0    0    0 -0.00000000000E+00 -0.00000000000E+00 -0.74505805969E-08  0.93827000000E+00  0.93827000000E+00 0.  1.
     999902    2    1    2    0    0  0.17484862550E-01 -0.39229990972E-02  0.15744245394E-01  0.10200764551E+01  0.10197975204E+01 0.  0.
     999903    2    3    3    0    0  0.74971586733E-01  0.10594904186E+00 -0.99679282593E-02  0.13101081934E+00  0.14782993703E-01 0.  0.
         14    1    1    2    0    0 -0.17484862550E-01  0.39229990972E-02 -0.15744245394E-01  0.23853544880E-01  0.00000000000E+00 0. -1.
     999901    1    3    3    0    0 -0.57486724183E-01 -0.10987204096E+00  0.25712173654E-01  0.88906563577E+00  0.88000000000E+00 0. -1.
        -11    1    4    4    0    0  0.22691930951E-01  0.21805699277E-01 -0.45203551979E-02  0.31797908475E-01  0.51100000000E-03 0. -1.
         11    1    4    4    0    0  0.52279655782E-01  0.84143342585E-01 -0.54475730614E-02  0.99212910870E-01  0.51100000000E-03 0.  1.
</event>
<event>
 8    1  0.1123285E+005  0.1043930E+01  0.7957747E-01            NaN
         13   -1    0    0    0    0  0.00000000000E+00  0.00000000000E+00  0.74505805969E-08  0.10566000000E+00  0.10566000000E+00 0.  1.
     999900   -1    0    0    0    0 -0.00000000000E+00 -0.00000000000E+00 -0.74505805969E-08  0.93827000000E+00  0.93827000000E+00 0.  1.
     999902    2    1    2    0    0 -0.16200902875E-01 -0.10694061312E-01  0.12718398380E-01  0.10207224612E+01  0.10204585993E+01 0.  0.
     999903    2    3    3    0    0  0.25978903946E-01  0.52542950930E-01  0.11589918782E+00  0.13143941785E+00  0.20199843698E-01 0.  0.
         14    1    1    2    0    0  0.16200902875E-01  0.10694061312E-01 -0.12718398380E-01  0.23207538832E-01  0.00000000000E+00 0. -1.
     999901    1    3    3    0    0 -0.42179806820E-01 -0.63237012242E-01 -0.10318078944E+00  0.88928304332E+00  0.88000000000E+00 0. -1.
        -11    1    4    4    0    0  0.10952140561E-02  0.87889343555E-02  0.35421538209E-01  0.36515631598E-01  0.51100000000E-03 0.  1.
         11    1    4    4    0    0  0.24883689890E-01  0.43754016574E-01  0.80477649610E-01  0.94923786253E-01  0.51100000000E-03 0. -1.
</event>
<event>
 8    1  0.1123285E+005  0.1043930E+01  0.7957747E-01            NaN
         13   -1    0    0    0    0  0.00000000000E+00  0.00000000000E+00  0.74505805969E-08  0.10566000000E+00  0.10566000000E+00 0.  1.
     999900   -1    0    0    0    0 -0.00000000000E+00 -0.00000000000E+00 -0.74505805969E-08  0.93827000000E+00  0.93827000000E+00 0. -1.
     999902    2    1    2    0    0  0.37138290687E-02 -0.21403095406E-01 -0.73489803527E-02  0.10209976532E+01  0.10207400821E+01 0.  0.
     999903    2    3    3    0    0  0.77342500509E-01  0.92401353339E-01 -0.43933094830E-01  0.12986857652E+00  0.20392593285E-01 0.  0.
         14    1    1    2    0    0 -0.37138290687E-02  0.21403095406E-01  0.73489803527E-02  0.22932346839E-01  0.00000000000E+00 0.  1.
     999901    1    3    3    0    0 -0.73628671440E-01 -0.11380444874E+00  0.36584114477E-01  0.89112907665E+00  0.88000000000E+00 0.  1.
        -11    1    4    4    0    0  0.55941633293E-01  0.79276246704E-01 -0.33065556706E-01  0.10250747187E+00  0.51100000000E-03 0. -1.
         11    1    4    4    0    0  0.21400867215E-01  0.13125106634E-01 -0.10867538125E-01  0.27361104649E-01  0.51100000000E-03 0.  1.
</event>
<event>
 7    1  0.1872616E+005  0.1043930E+01  0.7957747E-01            NaN
         13   -1    0    0    0    0  0.00000000000E+00  0.00000000000E+00  0.74505805969E-08  0.10566000000E+00  0.10566000000E+00 0. -1.
     999900   -1    0    0    0    0 -0.00000000000E+00 -0.00000000000E+00 -0.74505805969E-08  0.93827000000E+00  0.93827000000E+00 0.  1.
     999903    2    1    2    0    0 -0.20243295600E-01 -0.73885257980E-01  0.54272938105E-01  0.95951122292E-01  0.19805143146E-01 0.  0.
         14    1    1    2    0    0 -0.25174139747E-02 -0.94583858526E-02  0.56044675160E-01  0.56892917396E-01  0.00000000000E+00 0. -1.
     999901    1    1    2    0    0  0.22760709574E-01  0.83343643832E-01 -0.11031761327E+00  0.89108596031E+00  0.88000000000E+00 0.  1.
        -11    1    3    3    0    0 -0.15282302058E-01 -0.43353391756E-01  0.43225476387E-01  0.63101254051E-01  0.51100000000E-03 0. -1.
         11    1    3    3    0    0 -0.49609935416E-02 -0.30531866223E-01  0.11047461718E-01  0.32849868241E-01  0.51100000000E-03 0.  1.
</event>
<event>
 8    1  0.1123285E+005  0.1043930E+01  0.7957747E-01            NaN
         13   -1    0    0    0    0  0.00000000000E+00  0.00000000000E+00  0.74505805969E-08  0.10566000000E+00  0.10566000000E+00 0. -1.
     999900   -1    0    0    0    0 -0.00000000000E+00 -0.00000000000E+00 -0.74505805969E-08  0.93827000000E+00  0.93827000000E+00 0.  1.
     999902    2    1    2    0    0 -0.68170099886E-02 -0.18838906609E-01  0.13139449390E-01  0.10199712614E+01  0.10196898317E+01 0.  0.
     999903    2    3    3    0    0  0.98681263444E-01  0.78622975928E-01 -0.42007018500E-02  0.12815884549E+00  0.22078942040E-01 0.  0.
         14    1    1    2    0    0  0.68170099886E-02  0.18838906609E-01 -0.13139449390E-01  0.23958738649E-01  0.00000000000E+00 0.  1.
     999901    1    3    3    0    0 -0.10549827343E+00 -0.97461882537E-01  0.17340151240E-01  0.89181241586E+00  0.88000000000E+00 0. -1.
        -11    1    4    4    0    0  0.23177992318E-01  0.10949811587E-01 -0.74928086181E-02  0.26711813934E-01  0.51100000000E-03 0.  1.
         11    1    4    4    0    0  0.75503271126E-01  0.67673164341E-01  0.32921067681E-02  0.10144703155E+00  0.51100000000E-03 0. -1.
</event>
<event>
 8    1  0.1123285E+005  0.1043930E+01  0.7957747E-01            NaN
         13   -1    0    0    0    0  0.00000000000E+00  0.00000000000E+00  0.74505805969E-08  0.10566000000E+00  0.10566000000E+00 0.  1.
     999900   -1    0    0    0    0 -0.00000000000E+00 -0.00000000000E+00 -0.74505805969E-08  0.93827000000E+00  0.93827000000E+00 0.  1.
     999902    2    1    2    0    0 -0.17665591131E-02  0.62980180776E-02  0.22862939288E-01  0.10201497612E+01  0.10198725585E+01 0.  0.
     999903    2    3    3    0    0 -0.59041376931E-01 -0.96220162010E-01  0.64126214352E-01  0.13139049131E+00  0.20176374139E-01 0.  0.
         14    1    1    2    0    0  0.17665591131E-02 -0.62980180776E-02 -0.22862939288E-01  0.23780238764E-01  0.00000000000E+00 0. -1.
     999901    1    3    3    0    0  0.57274817818E-01  0.10251818009E+00 -0.41263275064E-01  0.88875926992E+00  0.88000000000E+00 0.  1.
        -11    1    4    4    0    0 -0.32151751160E-01 -0.48752958003E-01  0.21793892150E-01  0.62336352739E-01  0.51100000000E-03 0.  1.
         11    1    4    4    0    0 -0.26889625770E-01 -0.47467204007E-01  0.42332322202E-01  0.69054138574E-01  0.51100000000E-03 0. -1.
</event>
<event>
 8    1  0.1123285E+005  0.1043930E+01  0.7957747E-01            NaN
         13   -1    0    0    0    0  0.00000000000E+00  0.00000000000E+00  0.74505805969E-08  0.10566000000E+00  0.10566000000E+00 0. -1.
     999900   -1    0    0    0    0 -0.00000000000E+00 -0.00000000000E+00 -0.74505805969E-08  0.93827000000E+00  0.93827000000E+00 0.  1.
     999902    2    1    2    0    0  0.12908111986E-01  0.19500895491E-01 -0.52593883658E-02  0.10199599052E+01  0.10196782055E+01 0.  0.
     999903    2    3    3    0    0  0.81174940136E-01  0.51487957602E-01 -0.89458253836E-01  0.13273221122E+00  0.19356653440E-01 0.  0.
         14    1    1    2    0    0 -0.12908111986E-01 -0.19500895491E-01  0.52593883658E-02  0.23970094826E-01  0.00000000000E+00 0.  1.
     999901    1    3    3    0    0 -0.68266828151E-01 -0.31987062111E-01  0.84198865470E-01  0.88722769395E+00  0.88000000000E+00 0. -1.
        -11    1    4    4    0    0  0.17497749052E-01  0.17228040607E-01 -0.32196199064E-01  0.40494851034E-01  0.51100000000E-03 0. -1.
         11    1    4    4    0    0  0.63677191084E-01  0.34259916995E-01 -0.57262054772E-01  0.92237360188E-01  0.51100000000E-03 0.  1.
</event>
<event>
 8    1  0.1123285E+005  0.1043930E+01  0.7957747E-01            NaN
         13   -1    0    0    0    0  0.00000000000E+00  0.00000000000E+00  0.74505805969E-08  0.10566000000E+00  0.10566000000E+00 0.  1.
     999900   -1    0    0    0    0 -0.00000000000E+00 -0.00000000000E+00 -0.74505805969E-08  0.93827000000E+00  0.93827000000E+00 0. -1.
     999902    2    1    2    0    0 -0.11285113813E-01 -0.18398584434E-01 -0.95171361437E-02  0.10203410707E+01  0.10200683620E+01 0.  0.
     999903    2    3    3    0    0  0.58887731379E-01 -0.29454093010E-01  0.10993093928E+00  0.12943462493E+00  0.18253827503E-01 0.  0.
         14    1    1    2    0    0  0.11285113813E-01  0.18398584434E-01  0.95171361437E-02  0.23588929253E-01  0.00000000000E+00 0.  1.
     999901    1    3    3    0    0 -0.70172845192E-01  0.11055508576E-01 -0.11944807542E+00  0.89090644581E+00  0.88000000000E+00 0. -1.
        -11    1    4    4    0    0  0.22765339376E-01 -0.17361334718E-01  0.33760831737E-01  0.44268854747E-01  0.51100000000E-03 0.  1.
         11    1    4    4    0    0  0.36122392003E-01 -0.12092758292E-01  0.76170107542E-01  0.85165770185E-01  0.51100000000E-03 0. -1.
</event>
<event>
 8    1  0.1123285E+005  0.1043930E+01  0.7957747E-01            NaN
         13   -1    0    0    0    0  0.00000000000E+00  0.00000000000E+00  0.74505805969E-08  0.10566000000E+00  0.10566000000E+00 0.  1.
     999900   -1    0    0    0    0 -0.00000000000E+00 -0.00000000000E+00 -0.74505805969E-08  0.93827000000E+00  0.93827000000E+00 0.  1.
     999902    2    1    2    0    0 -0.32450617774E-02  0.16367588528E-01  0.17660816146E-01  0.10196332346E+01  0.10193437106E+01 0.  0.
     999903    2    3    3    0    0  0.88317344293E-01  0.85730190364E-01 -0.38422225150E-01  0.13039752221E+00  0.19432641861E-01 0.  0.
         14    1    1    2    0    0  0.32450617774E-02 -0.16367588528E-01 -0.17660816146E-01  0.24296765363E-01  0.00000000000E+00 0. -1.
     999901    1    3    3    0    0 -0.91562406070E-01 -0.69362601836E-01  0.56083041296E-01  0.88923571243E+00  0.88000000000E+00 0. -1.
        -11    1    4    4    0    0  0.44891601951E-01  0.31991985715E-01 -0.11954958175E-01  0.56408556281E-01  0.51100000000E-03 0.  1.
         11    1    4    4    0    0  0.43425742342E-01  0.53738204649E-01 -0.26467266975E-01  0.73988965927E-01  0.51100000000E-03 0. -1.
</event>
<event>
 8    1  0.1123285E+005  0.1043930E+01  0.7957747E-01            NaN
         13   -1    0    0    0    0  0.00000000000E+00  0.00000000000E+00  0.74505805969E-08  0.10566000000E+00  0.10566000000E+00 0.  1.
     999900   -1    0    0    0    0 -0.00000000000E+00 -0.00000000000E+00 -0.74505805969E-08  0.93827000000E+00  0.93827000000E+00 0.  1.
     999902    2    1    2    0    0  0.83261772904E-02  0.62190686319E-02 -0.21403256131E-01  0.10201371142E+01  0.10198596130E+01 0.  0.
     999903    2    3    3    0    0 -0.10912554699E+00  0.46394359415E-01  0.46387749636E-01  0.12884334555E+00  0.19696770937E-01 0.  0.
         14    1    1    2    0    0 -0.83261772904E-02 -0.62190686319E-02  0.21403256131E-01  0.23792885826E-01  0.00000000000E+00 0.  1.
     999901    1    3    3    0    0  0.11745172428E+00 -0.40175290783E-01 -0.67791005766E-01  0.89129376862E+00  0.88000000000E+00 0. -1.
        -11    1    4    4    0    0 -0.70530373511E-01  0.19874575066E-01  0.30766984319E-01  0.79475787299E-01  0.51100000000E-03 0. -1.
         11    1    4    4    0    0 -0.38595173477E-01  0.26519784349E-01  0.15620765317E-01  0.49367558251E-01  0.51100000000E-03 0.  1.
</event>
<event>
 8    1  0.1123285E+005  0.1043930E+01  0.7957747E-01            NaN
         13   -1    0    0    0    0  0.00000000000E+00  0.00000000000E+00  0.74505805969E-08  0.10566000000E+00  0.10566000000E+00 0.  1.
     999900   -1    0    0    0    0 -0.00000000000E+00 -0.00000000000E+00 -0.74505805969E-08  0.93827000000E+00  0.93827000000E+00 0. -1.
     999902    2    1    2    0    0  0.47590595514E-02  0.85784998698E-02  0.26154198087E-01  0.10159964828E+01  0.10156124121E+01 0.  0.
     999903    2    3    3    0    0  0.12294781208E+00 -0.13616386284E-01 -0.18063418388E-01  0.12671790335E+00  0.20726057887E-01 0.  0.
         14    1    1    2    0    0 -0.47590595514E-02 -0.85784998698E-02 -0.26154198087E-01  0.27933517240E-01  0.00000000000E+00 0. -1.
     999901    1    3    3    0    0 -0.11818875252E+00  0.22194886154E-01  0.44217616475E-01  0.88927857941E+00  0.88000000000E+00 0.  1.
        -11    1    4    4    0    0  0.11112624984E+00 -0.83899174185E-02 -0.11014899224E-01  0.11198671012E+00  0.51100000000E-03 0.  1.
         11    1    4    4    0    0  0.11821562234E-01 -0.52264688659E-02 -0.70485191636E-02  0.14731193226E-01  0.51100000000E-03 0. -1.
</event>
<event>
 8    1  0.1123285E+005  0.1043930E+01  0.7957747E-01            NaN
         13   -1    0    0    0    0  0.00000000000E+00  0.00000000000E+00  0.74505805969E-08  0.10566000000E+00  0.10566000000E+00 0.  1.
     999900   -1    0    0    0    0 -0.00000000000E+00 -0.00000000000E+00 -0.74505805969E-08  0.93827000000E+00  0.93827000000E+00 0. -1.
     999902    2    1    2    0    0 -0.15035659587E-01  0.32672330793E-02  0.17809421810E-01  0.10203944657E+01  0.10201230044E+01 0.  0.
     999903    2    3    3    0    0  0.44091392581E-01  0.10386181201E+00  0.64092326286E-01  0.13148649244E+00  0.21202464778E-01 0.  0.
         14    1    1    2    0    0  0.15035659587E-01 -0.32672330793E-02 -0.17809421810E-01  0.23535534335E-01  0.00000000000E+00 0.  1.
     999901    1    3    3    0    0 -0.59127052169E-01 -0.10059457893E+00 -0.46282904476E-01  0.88890797322E+00  0.88000000000E+00 0.  1.
        -11    1    4    4    0    0  0.23209202258E-01  0.77679142072E-01  0.41433306615E-01  0.91047768784E-01  0.51100000000E-03 0. -1.
         11    1    4    4    0    0  0.20882190324E-01  0.26182669939E-01  0.22659019671E-01  0.40438723660E-01  0.51100000000E-03 0.  1.
</event>
<event>
 8    1  0.1123285E+005  0.1043930E+01  0.7957747E-01            NaN
         13   -1    0    0    0    0  0.00000000000E+00  0.00000000000E+00  0.74505805969E-08  0.10566000000E+00  0.10566000000E+00 0.  1.
     999900   -1    0    0    0    0 -0.00000000000E+00 -0.00000000000E+00 -0.74505805969E-08  0.93827000000E+00  0.93827000000E+00 0.  1.
     999902    2    1    2    0    0 -0.13660386549E-01  0.18905579495E-01  0.67771907783E-02  0.10196409611E+01  0.10193516234E+01 0.  0.
     999903    2    3    3    0    0  0.35509254114E-01  0.12543439952E+00  0.20686668746E-02  0.13184131406E+00  0.19574396546E-01 0.  0.
         14    1    1    2    0    0  0.13660386549E-01 -0.18905579495E-01 -0.67771907783E-02  0.24289038918E-01  0.00000000000E+00 0.  1.
     999901    1    3    3    0    0 -0.49169640663E-01 -0.10652882002E+00  0.47085239037E-02  0.88779964702E+00  0.88000000000E+00 0. -1.
        -11    1    4    4    0    0  0.32049029194E-01  0.97954451154E-01 -0.52177964855E-02  0.10319738996E+00  0.51100000000E-03 0.  1.
         11    1    4    4    0    0  0.34602249195E-02  0.27479948362E-01  0.72864633601E-02  0.28643924099E-01  0.51100000000E-03 0. -1.
</event>
<event>
 8    1  0.1123285E+005  0.1043930E+01  0.7957747E-01            NaN
         13   -1    0    0    0    0  0.00000000000E+00  0.00000000000E+00  0.74505805969E-08  0.10566000000E+00  0.10566000000E+00 0.  1.
     999900   -1    0    0    0    0 -0.00000000000E+00 -0.00000000000E+00 -0.74505805969E-08  0.93827000000E+00  0.93827000000E+00 0.  1.
     999902    2    1    2    0    0  0.12687603987E-01  0.15734354029E-01  0.13803034298E-01  0.10194541150E+01  0.10191602541E+01 0.  0.
     999903    2    3    3    0    0  0.54821370155E-01 -0.38287404983E-01 -0.10778566785E+00  0.12845612554E+00  0.20295762840E-01 0.  0.
         14    1    1    2    0    0 -0.12687603987E-01 -0.15734354029E-01 -0.13803034298E-01  0.24475885019E-01  0.00000000000E+00 0. -1.
     999901    1    3    3    0    0 -0.42133766168E-01  0.54021759012E-01  0.12158870215E+00  0.89099798944E+00  0.88000000000E+00 0. -1.
        -11    1    4    4    0    0  0.21157065055E-01 -0.18580469088E-01 -0.63335649033E-01  0.69314650636E-01  0.51100000000E-03 0.  1.
         11    1    4    4    0    0  0.33664305099E-01 -0.19706935895E-01 -0.44450018814E-01  0.59141474904E-01  0.51100000000E-03 0. -1.
</event>
<event>
 8    1  0.1123285E+005  0.1043930E+01  0.7957747E-01            NaN
         13   -1    0    0    0    0  0.00000000000E+00  0.00000000000E+00  0.74505805969E-08  0.10566000000E+00  0.10566000000E+00 0.  1.
     999900   -1    0    0    0    0 -0.00000000000E+00 -0.00000000000E+00 -0.74505805969E-08  0.93827000000E+00  0.93827000000E+00 0. -1.
     999902    2    1    2    0    0  0.15419590108E-01  0.15972315283E-01  0.72598658208E-02  0.10205722547E+01  0.10203049264E+01 0.  0.
     999903    2    3    3    0    0 -0.10753480013E+00 -0.47082623584E-01 -0.47305123315E-01  0.12811998961E+00  0.19911061345E-01 0.  0.
         14    1    1    2    0    0 -0.15419590108E-01 -0.15972315283E-01 -0.72598658208E-02  0.23357745318E-01  0.00000000000E+00 0.  1.
     999901    1    3    3    0    0  0.12295439023E+00  0.63054938867E-01  0.54564989135E-01  0.89245226507E+00  0.88000000000E+00 0. -1.
        -11    1    4    4    0    0 -0.47270334784E-01 -0.10148809285E-01 -0.17731702267E-01  0.51499099670E-01  0.51100000000E-03 0. -1.
         11    1    4    4    0    0 -0.60264465342E-01 -0.36933814299E-01 -0.29573421047E-01  0.76620889939E-01  0.51100000000E-03 0.  1.
</event>
<event>
 8    1  0.1123285E+005  0.1043930E+01  0.7957747E-01            NaN
         13   -1    0    0    0    0  0.00000000000E+00  0.00000000000E+00  0.74505805969E-08  0.10566000000E+00  0.10566000000E+00 0.  1.
     999900   -1    0    0    0    0 -0.00000000000E+00 -0.00000000000E+00 -0.74505805969E-08  0.93827000000E+00  0.93827000000E+00 0. -1.
     999902    2    1    2    0    0 -0.66470307151E-02  0.95966095592E-02  0.17259419105E-01  0.10230933621E+01  0.10228811573E+01 0.  0.
     999903    2    3    3    0    0 -0.15557145559E-01 -0.10873256416E+00  0.72923685559E-01  0.13338571680E+00  0.20225979391E-01 0.  0.
         14    1    1    2    0    0  0.66470307151E-02 -0.95966095592E-02 -0.17259419105E-01  0.20836637929E-01  0.00000000000E+00 0.  1.
     999901    1    3    3    0    0  0.89101148437E-02  0.11832917372E+00 -0.55664266454E-01  0.88970764527E+00  0.88000000000E+00 0. -1.
        -11    1    4    4    0    0 -0.80976595548E-02 -0.82164948970E-01  0.44608607721E-01  0.93844765082E-01  0.51100000000E-03 0. -1.
         11    1    4    4    0    0 -0.74594860040E-02 -0.26567615193E-01  0.28315077838E-01  0.39540951714E-01  0.51100000000E-03 0.  1.
</event>
<event>
 8    1  0.1123285E+005  0.1043930E+01  0.7957747E-01            NaN
         13   -1    0    0    0    0  0.00000000000E+00  0.00000000000E+00  0.74505805969E-08  0.10566000000E+00  0.10566000000E+00 0. -1.
     999900   -1    0    0    0    0 -0.00000000000E+00 -0.00000000000E+00 -0.74505805969E-08  0.93827000000E+00  0.93827000000E+00 0. -1.
     999902    2    1    2    0    0  0.18071308536E-01 -0.10978867089E-01 -0.95928941092E-02  0.10207107982E+01  0.10204466680E+01 0.  0.
     999903    2    3    3    0    0 -0.11799346805E+00  0.40730237956E-01  0.21273039102E-01  0.12821981180E+00  0.20158550505E-01 0.  0.
         14    1    1    2    0    0 -0.18071308536E-01  0.10978867089E-01  0.95928941092E-02  0.23219201799E-01  0.00000000000E+00 0.  1.
     999901    1    3    3    0    0  0.13606477659E+00 -0.51709105045E-01 -0.30865933212E-01  0.89249098640E+00  0.88000000000E+00 0.  1.
        -11    1    4    4    0    0 -0.10967297964E+00  0.41910482205E-01  0.16560441835E-01  0.11857133016E+00  0.51100000000E-03 0.  1.
         11    1    4    4    0    0 -0.83204884135E-02 -0.11802442486E-02  0.47125972678E-02  0.96484816388E-02  0.51100000000E-03 0. -1.
</event>
<event>
 8    1  0.1123285E+005  0.1043930E+01  0.7957747E-01            NaN
         13   -1    0    0    0    0  0.00000000000E+00  0.00000000000E+00  0.74505805969E-08  0.10566000000E+00  0.10566000000E+00 0.  1.
     999900   -1    0    0    0    0 -0.00000000000E+00 -0.00000000000E+00 -0.74505805969E-08  0.93827000000E+00  0.93827000000E+00 0. -1.
     999902    2    1    2    0    0  0.10837634478E-01  0.93425205956E-02  0.18186186982E-01  0.10207896800E+01  0.10205273619E+01 0.  0.
     999903    2    3    3    0    0 -0.84289351001E-01  0.89727010825E-01  0.41477526505E-01  0.13171527585E+00  0.21746207126E-01 0.  0.
         14    1    1    2    0    0 -0.10837634478E-01 -0.93425205956E-02 -0.18186186982E-01  0.23140319987E-01  0.00000000000E+00 0. -1.
     999901    1    3    3    0    0  0.95126985479E-01 -0.80384490229E-01 -0.23291339524E-01  0.88907440416E+00  0.88000000000E+00 0. -1.
        -11    1    4    4    0    0 -0.24585348137E-01  0.13587056034E-01  0.65669729033E-02  0.28851926951E-01  0.51100000000E-03 0.  1.
         11    1    4    4    0    0 -0.59704002863E-01  0.76139954791E-01  0.34910553602E-01  0.10286334890E+00  0.51100000000E-03 0. -1.
</event>
<event>
 8    1  0.1123285E+005  0.1043930E+01  0.7957747E-01            NaN
         13   -1    0    0    0    0  0.00000000000E+00  0.00000000000E+00  0.74505805969E-08  0.10566000000E+00  0.10566000000E+00 0. -1.
     999900   -1    0    0    0    0 -0.00000000000E+00 -0.00000000000E+00 -0.74505805969E-08  0.93827000000E+00  0.93827000000E+00 0. -1.
     999902    2    1    2    0    0  0.50570899793E-02  0.91703274054E-02 -0.22560451684E-01  0.10190574641E+01  0.10187538820E+01 0.  0.
     999903    2    3    3    0    0  0.74090285699E-01 -0.28413606985E-01 -0.10349092752E+00  0.13185518941E+00  0.19460611410E-01 0.  0.
         14    1    1    2    0    0 -0.50570899793E-02 -0.91703274054E-02  0.22560451684E-01  0.24872535938E-01  0.00000000000E+00 0. -1.
     999901    1    3    3    0    0 -0.69033195720E-01  0.37583934390E-01  0.80930475840E-01  0.88720227466E+00  0.88000000000E+00 0.  1.
        -11    1    4    4    0    0  0.20097294767E-01 -0.17417626910E-01 -0.33673718616E-01  0.42912182775E-01  0.51100000000E-03 0. -1.
         11    1    4    4    0    0  0.53992990933E-01 -0.10995980075E-01 -0.69817208909E-01  0.88943006631E-01  0.51100000000E-03 0.  1.
</event>
<event>
 8    1  0.1123285E+005  0.1043930E+01  0.7957747E-01            NaN
         13   -1    0    0    0    0  0.00000000000E+00  0.00000000000E+00  0.74505805969E-08  0.10566000000E+00  0.10566000000E+00 0.  1.
     999900   -1    0    0    0    0 -0.00000000000E+00 -0.00000000000E+00 -0.74505805969E-08  0.93827000000E+00  0.93827000000E+00 0. -1.
     999902    2    1    2    0    0 -0.47335539276E-02  0.41880036342E-02  0.23120907635E-01  0.10199608057E+01  0.10196791274E+01 0.  0.
     999903    2    3    3    0    0 -0.24318421447E-02 -0.59411419700E-01 -0.11105202132E+00  0.12751889753E+00  0.19821380956E-01 0.  0.
         14    1    1    2    0    0  0.47335539276E-02 -0.41880036342E-02 -0.23120907635E-01  0.23969194335E-01  0.00000000000E+00 0. -1.
     999901    1    3    3    0    0 -0.23017117829E-02  0.63599423334E-01  0.13417292895E+00  0.89244190813E+00  0.88000000000E+00 0.  1.
        -11    1    4    4    0    0  0.48480854645E-02 -0.11863407809E-01 -0.37500093646E-01  0.39632846503E-01  0.51100000000E-03 0.  1.
         11    1    4    4    0    0 -0.72799276091E-02 -0.47548011891E-01 -0.73551927670E-01  0.87886051031E-01  0.51100000000E-03 0. -1.
</event>
<event>
 8    1  0.1123285E+005  0.1043930E+01  0.7957747E-01            NaN
         13   -1    0    0    0    0  0.00000000000E+00  0.00000000000E+00  0.74505805969E-08  0.10566000000E+00  0.10566000000E+00 0.  1.
     999900   -1    0    0    0    0 -0.00000000000E+00 -0.00000000000E+00 -0.74505805969E-08  0.93827000000E+00  0.93827000000E+00 0.  1.
     999902    2    1    2    0    0  0.15253187577E-01  0.77805194026E-02 -0.16244720472E-01  0.10203273062E+01  0.10200542753E+01 0.  0.
     999903    2    3    3    0    0  0.22558007249E-01 -0.85252885064E-01 -0.95789168971E-01  0.13182525550E+00  0.20625590713E-01 0.  0.
         14    1    1    2    0    0 -0.15253187577E-01 -0.77805194026E-02  0.16244720472E-01  0.23602693843E-01  0.00000000000E+00 0.  1.
     999901    1    3    3    0    0 -0.73048196720E-02  0.93033404467E-01  0.79544448499E-01  0.88850205066E+00  0.88000000000E+00 0. -1.
        -11    1    4    4    0    0  0.16128841755E-01 -0.31223912182E-01 -0.47396614135E-01  0.59006545237E-01  0.51100000000E-03 0.  1.
         11    1    4    4    0    0  0.64291654940E-02 -0.54028972882E-01 -0.48392554837E-01  0.72818710262E-01  0.51100000000E-03 0. -1.
</event>
<event>
 8    1  0.1123285E+005  0.1043930E+01  0.7957747E-01            NaN
         13   -1    0    0    0    0  0.00000000000E+00  0.00000000000E+00  0.74505805969E-08  0.10566000000E+00  0.10566000000E+00 0.  1.
     999900   -1    0    0    0    0 -0.00000000000E+00 -0.00000000000E+00 -0.74505805969E-08  0.93827000000E+00  0.93827000000E+00 0.  1.
     999902    2    1    2    0    0 -0.14546919715E-01  0.39327475748E-02  0.14147958794E-01  0.10232601158E+01  0.10230513283E+01 0.  0.
     999903    2    3    3    0    0 -0.99153913081E-01  0.85070222668E-01  0.28645918287E-01  0.13536832954E+00  0.20869948366E-01 0.  0.
         14    1    1    2    0    0  0.14546919715E-01 -0.39327475748E-02 -0.14147958794E-01  0.20669884246E-01  0.00000000000E+00 0. -1.
     999901    1    3    3    0    0  0.84606993366E-01 -0.81137475093E-01 -0.14497959493E-01  0.88789178621E+00  0.88000000000E+00 0.  1.
        -11    1    4    4    0    0 -0.40546117405E-01  0.39564353928E-01  0.22340689817E-01  0.60899041707E-01  0.51100000000E-03 0. -1.
         11    1    4    4    0    0 -0.58607795676E-01  0.45505868741E-01  0.63052284699E-02  0.74469287836E-01  0.51100000000E-03 0.  1.
</event>
<event>
 8    1  0.1123285E+005  0.1043930E+01  0.7957747E-01            NaN
         13   -1    0    0    0    0  0.00000000000E+00  0.00000000000E+00  0.74505805969E-08  0.10566000000E+00  0.10566000000E+00 0.  1.
     999900   -1    0    0    0    0 -0.00000000000E+00 -0.00000000000E+00 -0.74505805969E-08  0.93827000000E+00  0.93827000000E+00 0. -1.
     999902    2    1    2    0    0 -0.98108998920E-02  0.11831619183E-01 -0.30553130847E-01  0.10097286144E+01  0.10091492160E+01 0.  0.
     999903    2    3    3    0    0 -0.10879281429E+00  0.48963894769E-01 -0.24257404173E-01  0.12337887454E+00  0.20014634475E-01 0.  0.
         14    1    1    2    0    0  0.98108998920E-02 -0.11831619183E-01  0.30553130847E-01  0.34201385553E-01  0.00000000000E+00 0.  1.
     999901    1    3    3    0    0  0.98981914394E-01 -0.37132275586E-01 -0.62957266747E-02  0.88634973991E+00  0.88000000000E+00 0. -1.
        -11    1    4    4    0    0 -0.55976523003E-01  0.35413101400E-01 -0.97577332738E-02  0.66954711245E-01  0.51100000000E-03 0.  1.
         11    1    4    4    0    0 -0.52816291283E-01  0.13550793369E-01 -0.14499670899E-01  0.56424163291E-01  0.51100000000E-03 0. -1.
</event>
<event>
 8    1  0.1123285E+005  0.1043930E+01  0.7957747E-01            NaN
         13   -1    0    0    0    0  0.00000000000E+00  0.00000000000E+00  0.74505805969E-08  0.10566000000E+00  0.10566000000E+00 0.  1.
     999900   -1    0    0    0    0 -0.00000000000E+00 -0.00000000000E+00 -0.74505805969E-08  0.93827000000E+00  0.93827000000E+00 0. -1.
     999902    2    1    2    0    0  0.12599752897E-02  0.80199925072E-02  0.21427076351E-01  0.10210165232E+01  0.10207593807E+01 0.  0.
     999903    2    3    3    0    0  0.60888998306E-01 -0.99122675391E-01 -0.53320632136E-01  0.12937624171E+00  0.19035420061E-01 0.  0.
         14    1    1    2    0    0 -0.12599752897E-02 -0.80199925072E-02 -0.21427076351E-01  0.22913476788E-01  0.00000000000E+00 0. -1.
     999901    1    3    3    0    0 -0.59629023016E-01  0.10714266790E+00  0.74747708487E-01  0.89164028150E+00  0.88000000000E+00 0. -1.
        -11    1    4    4    0    0  0.72122473141E-02 -0.18183011386E-01 -0.23984847022E-02  0.19714265502E-01  0.51100000000E-03 0.  1.
         11    1    4    4    0    0  0.53676750992E-01 -0.80939664004E-01 -0.50922147434E-01  0.10966197621E+00  0.51100000000E-03 0. -1.
</event>
<event>
 8    1  0.1123285E+005  0.1043930E+01  0.7957747E-01            NaN
         13   -1    0    0    0    0  0.00000000000E+00  0.00000000000E+00  0.74505805969E-08  0.10566000000E+00  0.10566000000E+00 0.  1.
     999900   -1    0    0    0    0 -0.00000000000E+00 -0.00000000000E+00 -0.74505805969E-08  0.93827000000E+00  0.93827000000E+00 0.  1.
     999902    2    1    2    0    0  0.14757603992E-02 -0.12992922470E-01  0.18724473355E-01  0.10210914404E+01  0.10208359956E+01 0.  0.
     999903    2    3    3    0    0  0.47190926496E-01  0.11802199300E+00  0.20128037520E-01  0.13021728851E+00  0.19880391275E-01 0.  0.
         14    1    1    2    0    0 -0.14757603992E-02  0.12992922470E-01 -0.18724473355E-01  0.22838559619E-01  0.00000000000E+00 0. -1.
     999901    1    3    3    0    0 -0.45715166097E-01 -0.13101491547E+00 -0.14035641645E-02  0.89087415187E+00  0.88000000000E+00 0.  1.
        -11    1    4    4    0    0  0.59648681992E-02  0.29245894108E-01  0.11366702253E-01  0.31943152880E-01  0.51100000000E-03 0.  1.
         11    1    4    4    0    0  0.41226058297E-01  0.88776098888E-01  0.87613352669E-02  0.98274135627E-01  0.51100000000E-03 0. -1.
</event>
<event>
 8    1  0.1123285E+005  0.1043930E+01  0.7957747E-01            NaN
         13   -1    0    0    0    0  0.00000000000E+00  0.00000000000E+00  0.74505805969E-08  0.10566000000E+00  0.10566000000E+00 0.  1.
     999900   -1    0    0    0    0 -0.00000000000E+00 -0.00000000000E+00 -0.74505805969E-08  0.93827000000E+00  0.93827000000E+00 0.  1.
     999902    2    1    2    0    0  0.14962776584E-01 -0.92331143067E-02  0.18208387176E-01  0.10186183338E+01  0.10183038002E+01 0.  0.
     999903    2    3    3    0    0 -0.32361779562E-01  0.12225366858E+00 -0.78631155626E-02  0.12721039634E+00  0.11287696568E-01 0.  0.
         14    1    1    2    0    0 -0.14962776584E-01  0.92331143067E-02 -0.18208387176E-01  0.25311666212E-01  0.00000000000E+00 0. -1.
     999901    1    3    3    0    0  0.47324556145E-01 -0.13148678288E+00  0.26071502738E-01  0.89140793745E+00  0.88000000000E+00 0. -1.
        -11    1    4    4    0    0 -0.41357968671E-02  0.32478327281E-01 -0.43835276795E-02  0.33036691641E-01  0.51100000000E-03 0.  1.
         11    1    4    4    0    0 -0.28225982695E-01  0.89775341297E-01 -0.34795878831E-02  0.94173704700E-01  0.51100000000E-03 0. -1.
</event>
<event>
 8    1  0.1123285E+005  0.1043930E+01  0.7957747E-01            NaN
         13   -1    0    0    0    0  0.00000000000E+00  0.00000000000E+00  0.74505805969E-08  0.10566000000E+00  0.10566000000E+00 0.  1.
     999900   -1    0    0    0    0 -0.00000000000E+00 -0.00000000000E+00 -0.74505805969E-08  0.93827000000E+00  0.93827000000E+00 0. -1.
     999902    2    1    2    0    0 -0.23506305634E-01  0.19819874971E-01 -0.14770115082E-02  0.10131476120E+01  0.10126798745E+01 0.  0.
     999903    2    3    3    0    0  0.69375192546E-01 -0.42429573638E-01  0.88109115175E-01  0.12156046502E+00  0.20013605842E-01 0.  0.
         14    1    1    2    0    0  0.23506305634E-01 -0.19819874971E-01  0.14770115082E-02  0.30782388006E-01  0.00000000000E+00 0.  1.
     999901    1    3    3    0    0 -0.92881498180E-01  0.62249448609E-01 -0.89586126683E-01  0.89158714697E+00  0.88000000000E+00 0. -1.
        -11    1    4    4    0    0  0.37092444795E-01 -0.11066904031E-01  0.42213973580E-01  0.57276579089E-01  0.51100000000E-03 0. -1.
         11    1    4    4    0    0  0.32282747751E-01 -0.31362669608E-01  0.45895141595E-01  0.64283885930E-01  0.51100000000E-03 0.  1.
</event>
<event>
 8    1  0.1123285E+005  0.1043930E+01  0.7957747E-01            NaN
         13   -1    0    0    0    0  0.00000000000E+00  0.00000000000E+00  0.74505805969E-08  0.10566000000E+00  0.10566000000E+00 0. -1.
     999900   -1    0    0    0    0 -0.00000000000E+00 -0.00000000000E+00 -0.74505805969E-08  0.93827000000E+00  0.93827000000E+00 0. -1.
     999902    2    1    2    0    0 -0.11428552797E-01  0.50501308720E-02 -0.20016108407E-01  0.10203342327E+01  0.10200613639E+01 0.  0.
     999903    2    3    3    0    0  0.46902092717E-01 -0.27491000083E-01  0.11385019764E+00  0.12770800780E+00  0.19796625119E-01 0.  0.
         14    1    1    2    0    0  0.11428552797E-01 -0.50501308720E-02  0.20016108407E-01  0.23595767345E-01  0.00000000000E+00 0. -1.
     999901    1    3    3    0    0 -0.58330645514E-01  0.32541130955E-01 -0.13386630605E+00  0.89262622486E+00  0.88000000000E+00 0. -1.
        -11    1    4    4    0    0  0.12392682599E-01 -0.41531130083E-02  0.48284606328E-01  0.50024906386E-01  0.51100000000E-03 0. -1.
         11    1    4    4    0    0  0.34509410118E-01 -0.23337887075E-01  0.65565591311E-01  0.77683101411E-01  0.51100000000E-03 0.  1.
</event>
<event>
 8    1  0.1123285E+005  0.1043930E+01  0.7957747E-01            NaN
         13   -1    0    0    0    0  0.00000000000E+00  0.00000000000E+00  0.74505805969E-08  0.10566000000E+00  0.10566000000E+00 0. -1.
     999900   -1    0    0    0    0 -0.00000000000E+00 -0.00000000000E+00 -0.74505805969E-08  0.93827000000E+00  0.93827000000E+00 0.  1.
     999902    2    1    2    0    0 -0.15243173613E-01  0.26109134473E-02 -0.17529456614E-01  0.10205536645E+01  0.10202859056E+01 0.  0.
     999903    2    3    3    0    0  0.12196490796E+00  0.62510608916E-02  0.34672416090E-01  0.12838532625E+00  0.19133766511E-01 0.  0.
         14    1    1    2    0    0  0.15243173613E-01 -0.26109134473E-02  0.17529456614E-01  0.23376335470E-01  0.00000000000E+00 0. -1.
     999901    1    3    3    0    0 -0.13720808158E+00 -0.36401474443E-02 -0.52201872704E-01  0.89216833828E+00  0.88000000000E+00 0.  1.
        -11    1    4    4    0    0  0.46856141508E-01  0.24430793851E-02  0.23074962198E-01  0.52289402706E-01  0.51100000000E-03 0. -1.
         11    1    4    4    0    0  0.75108766455E-01  0.38079815065E-02  0.11597453892E-01  0.76095923539E-01  0.51100000000E-03 0.  1.
</event>
<event>
 8    1  0.1123285E+005  0.1043930E+01  0.7957747E-01            NaN
         13   -1    0    0    0    0  0.00000000000E+00  0.00000000000E+00  0.74505805969E-08  0.10566000000E+00  0.10566000000E+00 0. -1.
     999900   -1    0    0    0    0 -0.00000000000E+00 -0.00000000000E+00 -0.74505805969E-08  0.93827000000E+00  0.93827000000E+00 0. -1.
     999902    2    1    2    0    0  0.12953576594E-01  0.12772418914E-01 -0.15031160552E-01  0.10203319997E+01  0.10200590787E+01 0.  0.
     999903    2    3    3    0    0 -0.85058265528E-01  0.67413566545E-01  0.67334225736E-01  0.12939090563E+00  0.20702922864E-01 0.  0.
         14    1    1    2    0    0 -0.12953576594E-01 -0.12772418914E-01  0.15031160552E-01  0.23598000319E-01  0.00000000000E+00 0. -1.
     999901    1    3    3    0    0  0.98011842122E-01 -0.54641147631E-01 -0.82365386289E-01  0.89094109405E+00  0.88000000000E+00 0. -1.
        -11    1    4    4    0    0 -0.57000201566E-01  0.56683636624E-01  0.47138977255E-01  0.93190138626E-01  0.51100000000E-03 0. -1.
         11    1    4    4    0    0 -0.28058063963E-01  0.10729929921E-01  0.20195248482E-01  0.36200767004E-01  0.51100000000E-03 0.  1.
</event>
<event>
 8    1  0.1123285E+005  0.1043930E+01  0.7957747E-01            NaN
         13   -1    0    0    0    0  0.00000000000E+00  0.00000000000E+00  0.74505805969E-08  0.10566000000E+00  0.10566000000E+00 0. -1.
     999900   -1    0    0    0    0 -0.00000000000E+00 -0.00000000000E+00 -0.74505805969E-08  0.93827000000E+00  0.93827000000E+00 0. -1.
     999902    2    1    2    0    0  0.15481513396E-01  0.84400815111E-02 -0.14817217775E-01  0.10208982355E+01  0.10206384008E+01 0.  0.
     999903    2    3    3    0    0  0.78688256989E-01 -0.10154141786E+00 -0.22003992101E-01  0.13177356913E+00  0.19431843056E-01 0.  0.
         14    1    1    2    0    0 -0.15481513396E-01 -0.84400815111E-02  0.14817217775E-01  0.23031764490E-01  0.00000000000E+00 0.  1.
     999901    1    3    3    0    0 -0.63206743593E-01  0.10998149937E+00  0.71867743266E-02  0.88912466638E+00  0.88000000000E+00 0. -1.
        -11    1    4    4    0    0  0.59445221258E-01 -0.78826133434E-01 -0.85470441024E-02  0.99098974397E-01  0.51100000000E-03 0. -1.
         11    1    4    4    0    0  0.19243035731E-01 -0.22715284423E-01 -0.13456947999E-01  0.32674594734E-01  0.51100000000E-03 0.  1.
</event>
<event>
 8    1  0.1123285E+005  0.1043930E+01  0.7957747E-01            NaN
         13   -1    0    0    0    0  0.00000000000E+00  0.00000000000E+00  0.74505805969E-08  0.10566000000E+00  0.10566000000E+00 0.  1.
     999900   -1    0    0    0    0 -0.00000000000E+00 -0.00000000000E+00 -0.74505805969E-08  0.93827000000E+00  0.93827000000E+00 0.  1.
     999902    2    1    2    0    0  0.38382255735E-03  0.77829353939E-02 -0.22424882495E-01  0.10201898071E+01  0.10199135482E+01 0.  0.
     999903    2    3    3    0    0 -0.75325625626E-01 -0.73614608480E-01  0.70517009107E-01  0.12834022568E+00  0.20137142241E-01 0.  0.
         14    1    1    2    0    0 -0.38382255735E-03 -0.77829353939E-02  0.22424882495E-01  0.23740192880E-01  0.00000000000E+00 0.  1.
     999901    1    3    3    0    0  0.75709448183E-01  0.81397543874E-01 -0.92941891601E-01  0.89184958144E+00  0.88000000000E+00 0.  1.
        -11    1    4    4    0    0 -0.60783677489E-01 -0.55006089814E-01  0.63506115466E-01  0.10369962964E+00  0.51100000000E-03 0.  1.
         11    1    4    4    0    0 -0.14541948137E-01 -0.18608518666E-01  0.70108936403E-02  0.24640596039E-01  0.51100000000E-03 0. -1.
</event>
<event>
 8    1  0.1123285E+005  0.1043930E+01  0.7957747E-01            NaN
         13   -1    0    0    0    0  0.00000000000E+00  0.00000000000E+00  0.74505805969E-08  0.10566000000E+00  0.10566000000E+00 0. -1.
     999900   -1    0    0    0    0 -0.00000000000E+00 -0.00000000000E+00 -0.74505805969E-08  0.93827000000E+00  0.93827000000E+00 0.  1.
     999902    2    1    2    0    0  0.16077039716E-01  0.29034000771E-02  0.14120679353E-01  0.10223361462E+01  0.10221080673E+01 0.  0.
     999903    2    3    3    0    0 -0.10757095857E+00  0.16119633158E-01 -0.68063643806E-01  0.12980168785E+00  0.19607775501E-01 0.  0.
         14    1    1    2    0    0 -0.16077039716E-01 -0.29034000771E-02 -0.14120679353E-01  0.21593853835E-01  0.00000000000E+00 0.  1.
     999901    1    3    3    0    0  0.12364799829E+00 -0.13216233081E-01  0.82184323160E-01  0.89253445831E+00  0.88000000000E+00 0. -1.
        -11    1    4    4    0    0 -0.69388839339E-01  0.26788618139E-02 -0.49422384709E-01  0.85233916704E-01  0.51100000000E-03 0. -1.
         11    1    4    4    0    0 -0.38182119235E-01  0.13440771344E-01 -0.18641259098E-01  0.44567771150E-01  0.51100000000E-03 0.  1.
</event>
<event>
 8    1  0.1123285E+005  0.1043930E+01  0.7957747E-01            NaN
         13   -1    0    0    0    0  0.00000000000E+00  0.00000000000E+00  0.74505805969E-08  0.10566000000E+00  0.10566000000E+00 0.  1.
     999900   -1    0    0    0    0 -0.00000000000E+00 -0.00000000000E+00 -0.74505805969E-08  0.93827000000E+00  0.93827000000E+00 0. -1.
     999902    2    1    2    0    0  0.15487937362E-01  0.65381693780E-02 -0.17351658953E-01  0.10197700345E+01  0.10194838005E+01 0.  0.
     999903    2    3    3    0    0  0.11332514447E+00 -0.60062416399E-01 -0.22965303749E-01  0.13182900602E+00  0.20034954923E-01 0.  0.
         14    1    1    2    0    0 -0.15487937362E-01 -0.65381693780E-02  0.17351658953E-01  0.24159965459E-01  0.00000000000E+00 0.  1.
     999901    1    3    3    0    0 -0.97837207111E-01  0.66600585777E-01  0.56136447959E-02  0.88794102852E+00  0.88000000000E+00 0.  1.
        -11    1    4    4    0    0  0.11199426801E+00 -0.60394019313E-01 -0.20387314504E-01  0.12886449220E+00  0.51100000000E-03 0. -1.
         11    1    4    4    0    0  0.13308764587E-02  0.33160291360E-03 -0.25779892444E-02  0.29645138193E-02  0.51100000000E-03 0.  1.
</event>
<event>
 8    1  0.1123285E+005  0.1043930E+01  0.7957747E-01            NaN
         13   -1    0    0    0    0  0.00000000000E+00  0.00000000000E+00  0.74505805969E-08  0.10566000000E+00  0.10566000000E+00 0.  1.
     999900   -1    0    0    0    0 -0.00000000000E+00 -0.00000000000E+00 -0.74505805969E-08  0.93827000000E+00  0.93827000000E+00 0.  1.
     999902    2    1    2    0    0  0.12041711913E-01 -0.19843309435E-01  0.55720589170E-02  0.10200593570E+01  0.10197800176E+01 0.  0.
     999903    2    3    3    0    0 -0.54214711037E-01 -0.11847272491E+00 -0.10355773402E-01  0.13193134204E+00  0.17989317069E-01 0.  0.
         14    1    1    2    0    0 -0.12041711913E-01  0.19843309435E-01 -0.55720589170E-02  0.23870642968E-01  0.00000000000E+00 0. -1.
     999901    1    3    3    0    0  0.66256422949E-01  0.98629415473E-01  0.15927832319E-01  0.88812801500E+00  0.88000000000E+00 0. -1.
        -11    1    4    4    0    0 -0.38013454800E-01 -0.62379518004E-01 -0.81076679441E-02  0.73499812331E-01  0.51100000000E-03 0. -1.
         11    1    4    4    0    0 -0.16201256237E-01 -0.56093206905E-01 -0.22481054577E-02  0.58431529705E-01  0.51100000000E-03 0.  1.
</event>
<event>
 8    1  0.1123285E+005  0.1043930E+01  0.7957747E-01            NaN
         13   -1    0    0    0    0  0.00000000000E+00  0.00000000000E+00  0.74505805969E-08  0.10566000000E+00  0.10566000000E+00 0.  1.
     999900   -1    0    0    0    0 -0.00000000000E+00 -0.00000000000E+00 -0.74505805969E-08  0.93827000000E+00  0.93827000000E+00 0. -1.
     999902    2    1    2    0    0 -0.86845451606E-02  0.41426828418E-02  0.26027991521E-01  0.10161804146E+01  0.10158014548E+01 0.  0.
     999903    2    3    3    0    0 -0.20810848503E-01  0.87073750704E-01 -0.85270219907E-01  0.12521919150E+00  0.19847066274E-01 0.  0.
         14    1    1    2    0    0  0.86845451606E-02 -0.41426828418E-02 -0.26027991521E-01  0.27749585373E-01  0.00000000000E+00 0. -1.
     999901    1    3    3    0    0  0.12126303343E-01 -0.82931067863E-01  0.11129821143E+00  0.89096122313E+00  0.88000000000E+00 0.  1.
        -11    1    4    4    0    0 -0.46272819081E-02  0.58097193560E-01 -0.58467161022E-01  0.82555228038E-01  0.51100000000E-03 0.  1.
         11    1    4    4    0    0 -0.16183566595E-01  0.28976557144E-01 -0.26803058885E-01  0.42663963462E-01  0.51100000000E-03 0. -1.
</event>
<event>
 8    1  0.1123285E+005  0.1043930E+01  0.7957747E-01            NaN
         13   -1    0    0    0    0  0.00000000000E+00  0.00000000000E+00  0.74505805969E-08  0.10566000000E+00  0.10566000000E+00 0.  1.
     999900   -1    0    0    0    0 -0.00000000000E+00 -0.00000000000E+00 -0.74505805969E-08  0.93827000000E+00  0.93827000000E+00 0.  1.
     999902    2    1    2    0    0 -0.22976682818E-02 -0.92409125248E-02 -0.14298084901E-01  0.10267512639E+01  0.10266075437E+01 0.  0.
     999903    2    3    3    0    0 -0.17715070809E-01  0.12764736366E+00  0.33794528934E-01  0.13473725277E+00  0.20109299212E-01 0.  0.
         14    1    1    2    0    0  0.22976682818E-02  0.92409125248E-02  0.14298084901E-01  0.17178736149E-01  0.00000000000E+00 0.  1.
     999901    1    3    3    0    0  0.15417402527E-01 -0.13688827619E+00 -0.48092613835E-01  0.89201401108E+00  0.88000000000E+00 0. -1.
        -11    1    4    4    0    0  0.62961789620E-03  0.60179910168E-01  0.20386689448E-01  0.63544442984E-01  0.51100000000E-03 0. -1.
         11    1    4    4    0    0 -0.18344688705E-01  0.67467453494E-01  0.13407839486E-01  0.71192809787E-01  0.51100000000E-03 0.  1.
</event>
<event>
 8    1  0.1123285E+005  0.1043930E+01  0.7957747E-01            NaN
         13   -1    0    0    0    0  0.00000000000E+00  0.00000000000E+00  0.74505805969E-08  0.10566000000E+00  0.10566000000E+00 0. -1.
     999900   -1    0    0    0    0 -0.00000000000E+00 -0.00000000000E+00 -0.74505805969E-08  0.93827000000E+00  0.93827000000E+00 0.  1.
     999902    2    1    2    0    0  0.16885170425E-01  0.82521267898E-02  0.13491794130E-01  0.10207948517E+01  0.10205326522E+01 0.  0.
     999903    2    3    3    0    0  0.22072130949E-01  0.37785780238E-01 -0.12079781053E+00  0.13010251474E+00  0.20484363775E-01 0.  0.
         14    1    1    2    0    0 -0.16885170425E-01 -0.82521267898E-02 -0.13491794130E-01  0.23135148274E-01  0.00000000000E+00 0.  1.
     999901    1    3    3    0    0 -0.51869605242E-02 -0.29533653448E-01  0.13428960466E+00  0.89069233699E+00  0.88000000000E+00 0. -1.
        -11    1    4    4    0    0  0.16007938504E-01  0.10132460932E-01 -0.62181766507E-01  0.65005800253E-01  0.51100000000E-03 0.  1.
         11    1    4    4    0    0  0.60641924451E-02  0.27653319306E-01 -0.58616044026E-01  0.65096714486E-01  0.51100000000E-03 0. -1.
</event>
<event>
 8    1  0.1123285E+005  0.1043930E+01  0.7957747E-01            NaN
         13   -1    0    0    0    0  0.00000000000E+00  0.00000000000E+00  0.74505805969E-08  0.10566000000E+00  0.10566000000E+00 0.  1.
     999900   -1    0    0    0    0 -0.00000000000E+00 -0.00000000000E+00 -0.74505805969E-08  0.93827000000E+00  0.93827000000E+00 0. -1.
     999902    2    1    2    0    0  0.10749083592E-01 -0.53100918616E-02  0.20227409370E-01  0.10204164302E+01  0.10201454813E+01 0.  0.
     999903    2    3    3    0    0  0.12818717627E+00  0.15648098022E-01  0.20003344096E-01  0.13236744423E+00  0.21075848383E-01 0.  0.
         14    1    1    2    0    0 -0.10749083592E-01  0.53100918616E-02 -0.20227409370E-01  0.23513569773E-01  0.00000000000E+00 0. -1.
     999901    1    3    3    0    0 -0.11743809267E+00 -0.20958189884E-01  0.22406527327E-03  0.88804898600E+00  0.88000000000E+00 0.  1.
        -11    1    4    4    0    0  0.58581522675E-02 -0.10216638865E-02  0.53952045137E-02  0.80455638603E-02  0.51100000000E-03 0. -1.
         11    1    4    4    0    0  0.12232902400E+00  0.16669761909E-01  0.14608139583E-01  0.12432188037E+00  0.51100000000E-03 0.  1.
</event>
<event>
 8    1  0.1123285E+005  0.1043930E+01  0.7957747E-01            NaN
         13   -1    0    0    0    0  0.00000000000E+00  0.00000000000E+00  0.74505805969E-08  0.10566000000E+00  0.10566000000E+00 0. -1.
     999900   -1    0    0    0    0 -0.00000000000E+00 -0.00000000000E+00 -0.74505805969E-08  0.93827000000E+00  0.93827000000E+00 0.  1.
     999902    2    1    2    0    0 -0.52002595920E-02  0.25007886484E-02 -0.23831501576E-01  0.10194098632E+01  0.10191149258E+01 0.  0.
     999903    2    3    3    0    0 -0.11608375705E+00  0.40538316821E-01 -0.42079219990E-01  0.13144872505E+00  0.19731010633E-01 0.  0.
         14    1    1    2    0    0  0.52002595920E-02 -0.25007886484E-02  0.23831501576E-01  0.24520136848E-01  0.00000000000E+00 0. -1.
     999901    1    3    3    0    0  0.11088349746E+00 -0.38037528172E-01  0.18247718414E-01  0.88796113810E+00  0.88000000000E+00 0. -1.
        -11    1    4    4    0    0 -0.10087244100E+00  0.28711527991E-01 -0.39167910143E-01  0.11195529241E+00  0.51100000000E-03 0. -1.
         11    1    4    4    0    0 -0.15211316049E-01  0.11826788830E-01 -0.29113098473E-02  0.19493432638E-01  0.51100000000E-03 0.  1.
</event>
<event>
 8    1  0.1123285E+005  0.1043930E+01  0.7957747E-01            NaN
         13   -1    0    0    0    0  0.00000000000E+00  0.00000000000E+00  0.74505805969E-08  0.10566000000E+00  0.10566000000E+00 0.  1.
     999900   -1    0    0    0    0 -0.00000000000E+00 -0.00000000000E+00 -0.74505805969E-08  0.93827000000E+00  0.93827000000E+00 0. -1.
     999902    2    1    2    0    0 -0.20505823057E-02  0.17487793120E-02  0.23660348159E-01  0.10201166594E+01  0.10198386753E+01 0.  0.
     999903    2    3    3    0    0  0.66130648738E-01  0.96714253468E-02  0.11314315797E+00  0.13291960018E+00  0.19986163830E-01 0.  0.
         14    1    1    2    0    0  0.20505823057E-02 -0.17487793120E-02 -0.23660348159E-01  0.23813340628E-01  0.00000000000E+00 0. -1.
     999901    1    3    3    0    0 -0.68181231044E-01 -0.79226460348E-02 -0.89482809816E-01  0.88719705919E+00  0.88000000000E+00 0. -1.
        -11    1    4    4    0    0  0.57254495422E-02  0.70666659504E-02  0.18315643420E-01  0.20455866029E-01  0.51100000000E-03 0. -1.
         11    1    4    4    0    0  0.60405199196E-01  0.26047593965E-02  0.94827514555E-01  0.11246373415E+00  0.51100000000E-03 0.  1.
</event>
<event>
 8    1  0.1123285E+005  0.1043930E+01  0.7957747E-01            NaN
         13   -1    0    0    0    0  0.00000000000E+00  0.00000000000E+00  0.74505805969E-08  0.10566000000E+00  0.10566000000E+00 0.  1.
     999900   -1    0    0    0    0 -0.00000000000E+00 -0.00000000000E+00 -0.74505805969E-08  0.93827000000E+00  0.93827000000E+00 0. -1.
     999902    2    1    2    0    0  0.18386504333E-01  0.30607242453E-03 -0.16389370751E-01  0.10192973246E+01  0.10189996405E+01 0.  0.
     999903    2    3    3    0    0 -0.58084976788E-01 -0.82663045055E-01  0.75954431896E-01  0.12730004899E+00  0.15138797880E-01 0.  0.
         14    1    1    2    0    0 -0.18386504333E-01 -0.30607242453E-03  0.16389370751E-01  0.24632675363E-01  0.00000000000E+00 0.  1.
     999901    1    3    3    0    0  0.76471481121E-01  0.82969117480E-01 -0.92343802647E-01  0.89199727565E+00  0.88000000000E+00 0. -1.
        -11    1    4    4    0    0 -0.11359099549E-01 -0.10837724926E-01  0.65044051067E-02  0.17001583189E-01  0.51100000000E-03 0. -1.
         11    1    4    4    0    0 -0.46725877238E-01 -0.71825320129E-01  0.69450026789E-01  0.11029846580E+00  0.51100000000E-03 0.  1.
</event>
<event>
 8    1  0.1123285E+005  0.1043930E+01  0.7957747E-01            NaN
         13   -1    0    0    0    0  0.00000000000E+00  0.00000000000E+00  0.74505805969E-08  0.10566000000E+00  0.10566000000E+00 0. -1.
     999900   -1    0    0    0    0 -0.00000000000E+00 -0.00000000000E+00 -0.74505805969E-08  0.93827000000E+00  0.93827000000E+00 0. -1.
     999902    2    1    2    0    0 -0.10931980125E-02 -0.17183650485E-01  0.16707417739E-01  0.10199381111E+01  0.10196558928E+01 0.  0.
     999903    2    3    3    0    0 -0.30240031359E-01 -0.63075387505E-01 -0.10729742787E+00  0.12958268141E+00  0.19646101120E-01 0.  0.
         14    1    1    2    0    0  0.10931980125E-02  0.17183650485E-01 -0.16707417739E-01  0.23991888908E-01  0.00000000000E+00 0.  1.
     999901    1    3    3    0    0  0.29146833346E-01  0.45891737020E-01  0.12400484561E+00  0.89035542968E+00  0.88000000000E+00 0.  1.
        -11    1    4    4    0    0 -0.41753644242E-04 -0.79744153251E-02 -0.23648878438E-01  0.24962444101E-01  0.51100000000E-03 0. -1.
         11    1    4    4    0    0 -0.30198277714E-01 -0.55100972180E-01 -0.83648549434E-01  0.10462023731E+00  0.51100000000E-03 0.  1.
</event>
<event>
 8    1  0.1123285E+005  0.1043930E+01  0.7957747E-01            NaN
         13   -1    0    0    0    0  0.00000000000E+00  0.00000000000E+00  0.74505805969E-08  0.10566000000E+00  0.10566000000E+00 0.  1.
     999900   -1    0    0    0    0 -0.00000000000E+00 -0.00000000000E+00 -0.74505805969E-08  0.93827000000E+00  0.93827000000E+00 0. -1.
     999902    2    1    2    0    0  0.10652451563E-01 -0.20400210846E-01 -0.13214549749E-02  0.10208781114E+01  0.10206178171E+01 0.  0.
     999903    2    3    3    0    0  0.89513994623E-02  0.67240335335E-01  0.10874307503E+00  0.12970026172E+00  0.19892492908E-01 0.  0.
         14    1    1    2    0    0 -0.10652451563E-01  0.20400210846E-01  0.13214549749E-02  0.23051888645E-01  0.00000000000E+00 0.  1.
     999901    1    3    3    0    0  0.17010521009E-02 -0.87640546181E-01 -0.11006453001E+00  0.89117784963E+00  0.88000000000E+00 0. -1.
        -11    1    4    4    0    0  0.39371434603E-02  0.62342928513E-01  0.88933582555E-01  0.10868111640E+00  0.51100000000E-03 0. -1.
         11    1    4    4    0    0  0.50142560020E-02  0.48974068215E-02  0.19809492479E-01  0.21019145323E-01  0.51100000000E-03 0.  1.
</event>
<event>
 8    1  0.1123285E+005  0.1043930E+01  0.7957747E-01            NaN
         13   -1    0    0    0    0  0.00000000000E+00  0.00000000000E+00  0.74505805969E-08  0.10566000000E+00  0.10566000000E+00 0. -1.
     999900   -1    0    0    0    0 -0.00000000000E+00 -0.00000000000E+00 -0.74505805969E-08  0.93827000000E+00  0.93827000000E+00 0.  1.
     999902    2    1    2    0    0 -0.28693393958E-02 -0.90320257993E-02 -0.20463903841E-01  0.10213782382E+01  0.10211292394E+01 0.  0.
     999903    2    3    3    0    0  0.97985677074E-01  0.40381077293E-01 -0.77650267508E-01  0.13239923437E+00  0.16375863450E-01 0.  0.
         14    1    1    2    0    0  0.28693393958E-02  0.90320257993E-02  0.20463903841E-01  0.22551761772E-01  0.00000000000E+00 0. -1.
     999901    1    3    3    0    0 -0.10085501647E+00 -0.49413103092E-01  0.57186363667E-01  0.88897900385E+00  0.88000000000E+00 0. -1.
        -11    1    4    4    0    0  0.54556459607E-01  0.22346261619E-01 -0.33068657923E-01  0.67598520332E-01  0.51100000000E-03 0. -1.
         11    1    4    4    0    0  0.43429217467E-01  0.18034815674E-01 -0.44581609585E-01  0.64800714042E-01  0.51100000000E-03 0.  1.
</event>
<event>
 8    1  0.1123285E+005  0.1043930E+01  0.7957747E-01            NaN
         13   -1    0    0    0    0  0.00000000000E+00  0.00000000000E+00  0.74505805969E-08  0.10566000000E+00  0.10566000000E+00 0.  1.
     999900   -1    0    0    0    0 -0.00000000000E+00 -0.00000000000E+00 -0.74505805969E-08  0.93827000000E+00  0.93827000000E+00 0. -1.
     999902    2    1    2    0    0  0.82523112887E-02 -0.13975831692E-01 -0.17219263880E-01  0.10202672115E+01  0.10199927721E+01 0.  0.
     999903    2    3    3    0    0 -0.52451099958E-01 -0.76760929864E-01  0.88183956651E-01  0.12968497966E+00  0.19960598665E-01 0.  0.
         14    1    1    2    0    0 -0.82523112887E-02  0.13975831692E-01  0.17219263880E-01  0.23662788543E-01  0.00000000000E+00 0.  1.
     999901    1    3    3    0    0  0.60703411247E-01  0.62785098173E-01 -0.10540322053E+00  0.89058223179E+00  0.88000000000E+00 0. -1.
        -11    1    4    4    0    0 -0.22140303609E-02 -0.13371994973E-01  0.18394156328E-01  0.22854283800E-01  0.51100000000E-03 0.  1.
         11    1    4    4    0    0 -0.50237069597E-01 -0.63388934892E-01  0.69789800322E-01  0.10683069586E+00  0.51100000000E-03 0. -1.
</event>
<event>
 8    1  0.1123285E+005  0.1043930E+01  0.7957747E-01            NaN
         13   -1    0    0    0    0  0.00000000000E+00  0.00000000000E+00  0.74505805969E-08  0.10566000000E+00  0.10566000000E+00 0.  1.
     999900   -1    0    0    0    0 -0.00000000000E+00 -0.00000000000E+00 -0.74505805969E-08  0.93827000000E+00  0.93827000000E+00 0. -1.
     999902    2    1    2    0    0  0.22032212492E-01 -0.29297741712E-02 -0.92098714669E-02  0.10198712449E+01  0.10195874325E+01 0.  0.
     999903    2    3    3    0    0  0.12272614815E+00 -0.14403088241E-01  0.43277401117E-01  0.13250107447E+00  0.20357919769E-01 0.  0.
         14    1    1    2    0    0 -0.22032212492E-01  0.29297741712E-02  0.92098714669E-02  0.24058755088E-01  0.00000000000E+00 0. -1.
     999901    1    3    3    0    0 -0.10069393566E+00  0.11473314069E-01 -0.52487272584E-01  0.88737017045E+00  0.88000000000E+00 0.  1.
        -11    1    4    4    0    0  0.84233877014E-01 -0.65848114424E-02  0.19952246153E-01  0.86816237111E-01  0.51100000000E-03 0. -1.
         11    1    4    4    0    0  0.38492271133E-01 -0.78182767982E-02  0.23325154964E-01  0.45684837355E-01  0.51100000000E-03 0.  1.
</event>
<event>
 8    1  0.1123285E+005  0.1043930E+01  0.7957747E-01            NaN
         13   -1    0    0    0    0  0.00000000000E+00  0.00000000000E+00  0.74505805969E-08  0.10566000000E+00  0.10566000000E+00 0. -1.
     999900   -1    0    0    0    0 -0.00000000000E+00 -0.00000000000E+00 -0.74505805969E-08  0.93827000000E+00  0.93827000000E+00 0.  1.
     999902    2    1    2    0    0 -0.20535314568E-01  0.11520309901E-01 -0.25832854033E-02  0.10202426606E+01  0.10199676448E+01 0.  0.
     999903    2    3    3    0    0 -0.80589453079E-01 -0.42657131905E-01 -0.93241579580E-01  0.13189553190E+00  0.19701480234E-01 0.  0.
         14    1    1    2    0    0  0.20535314568E-01 -0.11520309901E-01  0.25832854033E-02  0.23687339405E-01  0.00000000000E+00 0.  1.
     999901    1    3    3    0    0  0.60054138512E-01  0.54177441806E-01  0.90658294177E-01  0.88834712869E+00  0.88000000000E+00 0. -1.
        -11    1    4    4    0    0 -0.35836988407E-01 -0.11985424756E-01 -0.49043855084E-01  0.61915272648E-01  0.51100000000E-03 0.  1.
         11    1    4    4    0    0 -0.44752464673E-01 -0.30671707148E-01 -0.44197724496E-01  0.69980259254E-01  0.51100000000E-03 0. -1.
</event>
<event>
 8    1  0.1123285E+005  0.1043930E+01  0.7957747E-01            NaN
         13   -1    0    0    0    0  0.00000000000E+00  0.00000000000E+00  0.74505805969E-08  0.10566000000E+00  0.10566000000E+00 0. -1.
     999900   -1    0    0    0    0 -0.00000000000E+00 -0.00000000000E+00 -0.74505805969E-08  0.93827000000E+00  0.93827000000E+00 0. -1.
     999902    2    1    2    0    0  0.95689187692E-04  0.53113625897E-02 -0.21233918548E-01  0.10220416692E+01  0.10218072590E+01 0.  0.
     999903    2    3    3    0    0  0.33339868751E-01  0.70810007150E-03 -0.12908362136E+00  0.13482246070E+00  0.20061564090E-01 0.  0.
         14    1    1    2    0    0 -0.95689187692E-04 -0.53113625897E-02  0.21233918548E-01  0.21888330815E-01  0.00000000000E+00 0. -1.
     999901    1    3    3    0    0 -0.33244179563E-01  0.46032625182E-02  0.10784970281E+00  0.88721920848E+00  0.88000000000E+00 0.  1.
        -11    1    4    4    0    0  0.15965385056E-01  0.10245370518E-01 -0.68275590544E-01  0.70863802623E-01  0.51100000000E-03 0. -1.
         11    1    4    4    0    0  0.17374483695E-01 -0.95372704469E-02 -0.60808030813E-01  0.63958658082E-01  0.51100000000E-03 0.  1.
</event>
<event>
 8    1  0.1123285E+005  0.1043930E+01  0.7957747E-01            NaN
         13   -1    0    0    0    0  0.00000000000E+00  0.00000000000E+00  0.74505805969E-08  0.10566000000E+00  0.10566000000E+00 0.  1.
     999900   -1    0    0    0    0 -0.00000000000E+00 -0.00000000000E+00 -0.74505805969E-08  0.93827000000E+00  0.93827000000E+00 0. -1.
     999902    2    1    2    0    0 -0.89035195179E-02  0.12370901353E-01  0.17258724727E-01  0.10209044612E+01  0.10206447684E+01 0.  0.
     999903    2    3    3    0    0  0.26020151204E-01 -0.14740599339E-01  0.12793537725E+00  0.13287066807E+00  0.19819690790E-01 0.  0.
         14    1    1    2    0    0  0.89035195179E-02 -0.12370901353E-01 -0.17258724727E-01  0.23025538849E-01  0.00000000000E+00 0. -1.
     999901    1    3    3    0    0 -0.34923670722E-01  0.27111500691E-01 -0.11067665252E+00  0.88803379308E+00  0.88000000000E+00 0. -1.
        -11    1    4    4    0    0  0.24219944262E-02 -0.21565572661E-02  0.14518528488E-02  0.35896788069E-02  0.51100000000E-03 0.  1.
         11    1    4    4    0    0  0.23598156778E-01 -0.12584042073E-01  0.12648352440E+00  0.12928098926E+00  0.51100000000E-03 0. -1.
</event>
<event>
 8    1  0.1123285E+005  0.1043930E+01  0.7957747E-01            NaN
         13   -1    0    0    0    0  0.00000000000E+00  0.00000000000E+00  0.74505805969E-08  0.10566000000E+00  0.10566000000E+00 0.  1.
     999900   -1    0    0    0    0 -0.00000000000E+00 -0.00000000000E+00 -0.74505805969E-08  0.93827000000E+00  0.93827000000E+00 0.  1.
     999902    2    1    2    0    0  0.10275260446E-02 -0.17736567021E-01 -0.15160792394E-01  0.10205742460E+01  0.10203069638E+01 0.  0.
     999903    2    3    3    0    0 -0.81533442548E-01 -0.92043637754E-01 -0.46975096348E-01  0.13302142827E+00  0.19191331334E-01 0.  0.
         14    1    1    2    0    0 -0.10275260446E-02  0.17736567021E-01  0.15160792394E-01  0.23355754012E-01  0.00000000000E+00 0.  1.
     999901    1    3    3    0    0  0.82560968593E-01  0.74307070733E-01  0.31814303954E-01  0.88755281771E+00  0.88000000000E+00 0. -1.
        -11    1    4    4    0    0 -0.30650293059E-01 -0.21427650673E-01 -0.14883038676E-01  0.40253579210E-01  0.51100000000E-03 0.  1.
         11    1    4    4    0    0 -0.50883149489E-01 -0.70615987080E-01 -0.32092057672E-01  0.92767849064E-01  0.51100000000E-03 0. -1.
</event>
<event>
 8    1  0.1123285E+005  0.1043930E+01  0.7957747E-01            NaN
         13   -1    0    0    0    0  0.00000000000E+00  0.00000000000E+00  0.74505805969E-08  0.10566000000E+00  0.10566000000E+00 0.  1.
     999900   -1    0    0    0    0 -0.00000000000E+00 -0.00000000000E+00 -0.74505805969E-08  0.93827000000E+00  0.93827000000E+00 0.  1.
     999902    2    1    2    0    0  0.19934173860E-01 -0.10722159972E-01  0.66696618170E-02  0.10203329580E+01  0.10200600594E+01 0.  0.
     999903    2    3    3    0    0  0.51871650947E-02  0.12726034618E+00 -0.10117240906E-01  0.12930072157E+00  0.19854864510E-01 0.  0.
         14    1    1    2    0    0 -0.19934173860E-01  0.10722159972E-01 -0.66696618170E-02  0.23597041991E-01  0.00000000000E+00 0. -1.
     999901    1    3    3    0    0  0.14747008765E-01 -0.13798250615E+00  0.16786902723E-01  0.89103223644E+00  0.88000000000E+00 0. -1.
        -11    1    4    4    0    0 -0.72782844886E-02  0.40013380972E-01 -0.55252589600E-02  0.41046725685E-01  0.51100000000E-03 0. -1.
         11    1    4    4    0    0  0.12465449583E-01  0.87246965203E-01 -0.45919819459E-02  0.88253995885E-01  0.51100000000E-03 0.  1.
</event>
<event>
 8    1  0.1123285E+005  0.1043930E+01  0.7957747E-01            NaN
         13   -1    0    0    0    0  0.00000000000E+00  0.00000000000E+00  0.74505805969E-08  0.10566000000E+00  0.10566000000E+00 0.  1.
     999900   -1    0    0    0    0 -0.00000000000E+00 -0.00000000000E+00 -0.74505805969E-08  0.93827000000E+00  0.93827000000E+00 0.  1.
     999902    2    1    2    0    0  0.91946032052E-02 -0.17226139971E-01  0.13571112091E-01  0.10201506874E+01  0.10198735065E+01 0.  0.
     999903    2    3    3    0    0  0.11501898660E+00 -0.56599328152E-01 -0.24770648679E-01  0.13210838055E+00  0.20154105029E-01 0.  0.
         14    1    1    2    0    0 -0.91946032052E-02  0.17226139971E-01 -0.13571112091E-01  0.23779312643E-01  0.00000000000E+00 0.  1.
     999901    1    3    3    0    0 -0.10582438339E+00  0.39373188181E-01  0.38341760770E-01  0.88804230681E+00  0.88000000000E+00 0.  1.
        -11    1    4    4    0    0  0.99836927544E-01 -0.48717872921E-01 -0.14202465866E-01  0.11199470702E+00  0.51100000000E-03 0.  1.
         11    1    4    4    0    0  0.15182059052E-01 -0.78814552309E-02 -0.10568182813E-01  0.20113673523E-01  0.51100000000E-03 0. -1.
</event>
<event>
 8    1  0.1123285E+005  0.1043930E+01  0.7957747E-01            NaN
         13   -1    0    0    0    0  0.00000000000E+00  0.00000000000E+00  0.74505805969E-08  0.10566000000E+00  0.10566000000E+00 0. -1.
     999900   -1    0    0    0    0 -0.00000000000E+00 -0.00000000000E+00 -0.74505805969E-08  0.93827000000E+00  0.93827000000E+00 0.  1.
     999902    2    1    2    0    0 -0.15613925530E-03  0.50271684026E-02 -0.23150891825E-01  0.10202390609E+01  0.10199639606E+01 0.  0.
     999903    2    3    3    0    0  0.43366123347E-01  0.82384180176E-01 -0.92905109128E-01  0.13302773016E+00  0.19930978223E-01 0.  0.
         14    1    1    2    0    0  0.15613925530E-03 -0.50271684026E-02  0.23150891825E-01  0.23690939068E-01  0.00000000000E+00 0. -1.
     999901    1    3    3    0    0 -0.43522262603E-01 -0.77357011774E-01  0.69754217302E-01  0.88721133077E+00  0.88000000000E+00 0.  1.
        -11    1    4    4    0    0  0.20595332174E-01  0.29675061697E-01 -0.24172553099E-01  0.43466658929E-01  0.51100000000E-03 0.  1.
         11    1    4    4    0    0  0.22770791173E-01  0.52709118479E-01 -0.68732556028E-01  0.89561071235E-01  0.51100000000E-03 0. -1.
</event>
<event>
 8    1  0.1123285E+005  0.1043930E+01  0.7957747E-01            NaN
         13   -1    0    0    0    0  0.00000000000E+00  0.00000000000E+00  0.74505805969E-08  0.10566000000E+00  0.10566000000E+00 0. -1.
     999900   -1    0    0    0    0 -0.00000000000E+00 -0.00000000000E+00 -0.74505805969E-08  0.93827000000E+00  0.93827000000E+00 0. -1.
     999902    2    1    2    0    0  0.15334850450E-01  0.78825978638E-02  0.16920799861E-01  0.10197720519E+01  0.10194858662E+01 0.  0.
     999903    2    3    3    0    0 -0.69343204988E-01 -0.19572323207E-02 -0.10489893004E+00  0.12729950785E+00  0.19724815332E-01 0.  0.
         14    1    1    2    0    0 -0.15334850450E-01 -0.78825978638E-02 -0.16920799861E-01  0.24157948078E-01  0.00000000000E+00 0. -1.
     999901    1    3    3    0    0  0.84678055438E-01  0.98398301845E-02  0.12181972990E+00  0.89247254407E+00  0.88000000000E+00 0.  1.
        -11    1    4    4    0    0 -0.77849116551E-02  0.56625099866E-02 -0.19467722642E-01  0.21723770729E-01  0.51100000000E-03 0. -1.
         11    1    4    4    0    0 -0.61558293333E-01 -0.76197423073E-02 -0.85431207393E-01  0.10557573712E+00  0.51100000000E-03 0.  1.
</event>
<event>
 8    1  0.1123285E+005  0.1043930E+01  0.7957747E-01            NaN
         13   -1    0    0    0    0  0.00000000000E+00  0.00000000000E+00  0.74505805969E-08  0.10566000000E+00  0.10566000000E+00 0.  1.
     999900   -1    0    0    0    0 -0.00000000000E+00 -0.00000000000E+00 -0.74505805969E-08  0.93827000000E+00  0.93827000000E+00 0.  1.
     999902    2    1    2    0    0 -0.14514232274E-01  0.74050906174E-03 -0.17752139062E-01  0.10209876868E+01  0.10207298893E+01 0.  0.
     999903    2    3    3    0    0 -0.11240219393E+00  0.67563219035E-01 -0.94270807541E-02  0.13300309564E+00  0.20047738817E-01 0.  0.
         14    1    1    2    0    0  0.14514232274E-01 -0.74050906174E-03  0.17752139062E-01  0.22942313167E-01  0.00000000000E+00 0. -1.
     999901    1    3    3    0    0  0.97887961654E-01 -0.66822709973E-01 -0.83250583079E-02  0.88798459120E+00  0.88000000000E+00 0.  1.
        -11    1    4    4    0    0 -0.74586665983E-01  0.34560369049E-01 -0.99499663829E-02  0.82806115736E-01  0.51100000000E-03 0.  1.
         11    1    4    4    0    0 -0.37815527944E-01  0.33002849985E-01  0.52288562886E-03  0.50196979901E-01  0.51100000000E-03 0. -1.
</event>
<event>
 8    1  0.1123285E+005  0.1043930E+01  0.7957747E-01            NaN
         13   -1    0    0    0    0  0.00000000000E+00  0.00000000000E+00  0.74505805969E-08  0.10566000000E+00  0.10566000000E+00 0.  1.
     999900   -1    0    0    0    0 -0.00000000000E+00 -0.00000000000E+00 -0.74505805969E-08  0.93827000000E+00  0.93827000000E+00 0. -1.
     999902    2    1    2    0    0 -0.17191512162E-01  0.13293673966E-01 -0.65505495172E-02  0.10212324328E+01  0.10209801674E+01 0.  0.
     999903    2    3    3    0    0  0.12560303368E+00  0.15695857606E-01  0.17649077747E-01  0.12939070089E+00  0.20198552316E-01 0.  0.
         14    1    1    2    0    0  0.17191512162E-01 -0.13293673966E-01  0.65505495172E-02  0.22697567202E-01  0.00000000000E+00 0.  1.
     999901    1    3    3    0    0 -0.14279454584E+00 -0.24021836404E-02 -0.24199627264E-01  0.89184173191E+00  0.88000000000E+00 0. -1.
        -11    1    4    4    0    0  0.58531514333E-01  0.56288405724E-02  0.18225889182E-01  0.61563513332E-01  0.51100000000E-03 0.  1.
         11    1    4    4    0    0  0.67071519350E-01  0.10067017034E-01 -0.57681143519E-03  0.67827187560E-01  0.51100000000E-03 0. -1.
</event>
<event>
 8    1  0.1123285E+005  0.1043930E+01  0.7957747E-01            NaN
         13   -1    0    0    0    0  0.00000000000E+00  0.00000000000E+00  0.74505805969E-08  0.10566000000E+00  0.10566000000E+00 0. -1.
     999900   -1    0    0    0    0 -0.00000000000E+00 -0.00000000000E+00 -0.74505805969E-08  0.93827000000E+00  0.93827000000E+00 0. -1.
     999902    2    1    2    0    0 -0.13397442230E-01 -0.11593056059E-01  0.15231233094E-01  0.10205659064E+01  0.10202984311E+01 0.  0.
     999903    2    3    3    0    0 -0.36077365581E-01  0.10434722866E+00 -0.63243518314E-01  0.12921030109E+00  0.22486415101E-01 0.  0.
         14    1    1    2    0    0  0.13397442230E-01  0.11593056059E-01 -0.15231233094E-01  0.23364093576E-01  0.00000000000E+00 0.  1.
     999901    1    3    3    0    0  0.22679923351E-01 -0.11594028472E+00  0.78474751408E-01  0.89135560533E+00  0.88000000000E+00 0.  1.
        -11    1    4    4    0    0 -0.33967632180E-02  0.40726098792E-01 -0.27405205249E-01  0.49208327739E-01  0.51100000000E-03 0. -1.
         11    1    4    4    0    0 -0.32680602363E-01  0.63621129867E-01 -0.35838313065E-01  0.80001973355E-01  0.51100000000E-03 0.  1.
</event>
<event>
 8    1  0.1123285E+005  0.1043930E+01  0.7957747E-01            NaN
         13   -1    0    0    0    0  0.00000000000E+00  0.00000000000E+00  0.74505805969E-08  0.10566000000E+00  0.10566000000E+00 0. -1.
     999900   -1    0    0    0    0 -0.00000000000E+00 -0.00000000000E+00 -0.74505805969E-08  0.93827000000E+00  0.93827000000E+00 0.  1.
     999902    2    1    2    0    0 -0.11207765497E-01  0.10045362504E-01  0.18390068397E-01  0.10201662055E+01  0.10198893905E+01 0.  0.
     999903    2    3    3    0    0  0.95370441896E-01  0.62152445254E-01 -0.57897815516E-01  0.12893452761E+00  0.17706149533E-01 0.  0.
         14    1    1    2    0    0  0.11207765497E-01 -0.10045362504E-01 -0.18390068397E-01  0.23763794539E-01  0.00000000000E+00 0.  1.
     999901    1    3    3    0    0 -0.10657820739E+00 -0.52107082750E-01  0.76287883912E-01  0.89123167785E+00  0.88000000000E+00 0. -1.
        -11    1    4    4    0    0  0.40854151037E-01  0.22769865730E-01 -0.14817602880E-01  0.49064762492E-01  0.51100000000E-03 0. -1.
         11    1    4    4    0    0  0.54516290859E-01  0.39382579524E-01 -0.43080212636E-01  0.79869765123E-01  0.51100000000E-03 0.  1.
</event>
<event>
 8    1  0.1123285E+005  0.1043930E+01  0.7957747E-01            NaN
         13   -1    0    0    0    0  0.00000000000E+00  0.00000000000E+00  0.74505805969E-08  0.10566000000E+00  0.10566000000E+00 0.  1.
     999900   -1    0    0    0    0 -0.00000000000E+00 -0.00000000000E+00 -0.74505805969E-08  0.93827000000E+00  0.93827000000E+00 0. -1.
     999902    2    1    2    0    0 -0.16655794512E-01  0.36299342396E-02  0.19544243334E-01  0.10179960577E+01  0.10176656643E+01 0.  0.
     999903    2    3    3    0    0 -0.17956945131E-01 -0.12230611934E+00  0.30608615917E-01  0.12896062374E+00  0.20315422720E-01 0.  0.
         14    1    1    2    0    0  0.16655794512E-01 -0.36299342396E-02 -0.19544243334E-01  0.25933942256E-01  0.00000000000E+00 0. -1.
     999901    1    3    3    0    0  0.13011506185E-02  0.12593605358E+00 -0.11064372583E-01  0.88903543401E+00  0.88000000000E+00 0. -1.
        -11    1    4    4    0    0 -0.61063916127E-02 -0.21327611863E-01 -0.17589036711E-02  0.22260051874E-01  0.51100000000E-03 0.  1.
         11    1    4    4    0    0 -0.11850553518E-01 -0.10097850747E+00  0.32367519588E-01  0.10670057186E+00  0.51100000000E-03 0. -1.
</event>
<event>
 8    1  0.1123285E+005  0.1043930E+01  0.7957747E-01            NaN
         13   -1    0    0    0    0  0.00000000000E+00  0.00000000000E+00  0.74505805969E-08  0.10566000000E+00  0.10566000000E+00 0. -1.
     999900   -1    0    0    0    0 -0.00000000000E+00 -0.00000000000E+00 -0.74505805969E-08  0.93827000000E+00  0.93827000000E+00 0.  1.
     999902    2    1    2    0    0 -0.12852841425E-01 -0.44987094020E-02  0.18871807763E-01  0.10206581490E+01  0.10203928058E+01 0.  0.
     999903    2    3    3    0    0 -0.13046707468E+00  0.77802532063E-02 -0.85462556660E-02  0.13232508594E+00  0.18833479943E-01 0.  0.
         14    1    1    2    0    0  0.12852841425E-01  0.44987094020E-02 -0.18871807763E-01  0.23271850963E-01  0.00000000000E+00 0. -1.
     999901    1    3    3    0    0  0.11761423326E+00 -0.12278962608E-01  0.27418063429E-01  0.88833306310E+00  0.88000000000E+00 0.  1.
        -11    1    4    4    0    0 -0.48937316363E-01  0.99434130754E-02  0.25967049455E-02  0.50007363397E-01  0.51100000000E-03 0. -1.
         11    1    4    4    0    0 -0.81529758321E-01 -0.21631598691E-02 -0.11142960612E-01  0.82317722543E-01  0.51100000000E-03 0.  1.
</event>
<event>
 8    1  0.1123285E+005  0.1043930E+01  0.7957747E-01            NaN
         13   -1    0    0    0    0  0.00000000000E+00  0.00000000000E+00  0.74505805969E-08  0.10566000000E+00  0.10566000000E+00 0.  1.
     999900   -1    0    0    0    0 -0.00000000000E+00 -0.00000000000E+00 -0.74505805969E-08  0.93827000000E+00  0.93827000000E+00 0. -1.
     999902    2    1    2    0    0  0.81928234303E-02  0.21328933996E-01  0.11622768669E-03  0.10210813832E+01  0.10208257108E+01 0.  0.
     999903    2    3    3    0    0 -0.12702224691E+00 -0.13575366092E-01  0.13691646420E-01  0.12996650990E+00  0.19618632450E-01 0.  0.
         14    1    1    2    0    0 -0.81928234303E-02 -0.21328933996E-01 -0.11622768669E-03  0.22848616808E-01  0.00000000000E+00 0. -1.
     999901    1    3    3    0    0  0.13521507034E+00  0.34904300089E-01 -0.13575418733E-01  0.89111487329E+00  0.88000000000E+00 0. -1.
        -11    1    4    4    0    0 -0.83067672672E-01 -0.15263325703E-01  0.15804556925E-01  0.85925854638E-01  0.51100000000E-03 0.  1.
         11    1    4    4    0    0 -0.43954574237E-01  0.16879596104E-02 -0.21129105052E-02  0.44040655260E-01  0.51100000000E-03 0. -1.
</event>
<event>
 8    1  0.1123285E+005  0.1043930E+01  0.7957747E-01            NaN
         13   -1    0    0    0    0  0.00000000000E+00  0.00000000000E+00  0.74505805969E-08  0.10566000000E+00  0.10566000000E+00 0. -1.
     999900   -1    0    0    0    0 -0.00000000000E+00 -0.00000000000E+00 -0.74505805969E-08  0.93827000000E+00  0.93827000000E+00 0.  1.
     999902    2    1    2    0    0  0.70631641036E-02 -0.91927999324E-02  0.20940779163E-01  0.10199944179E+01  0.10197135384E+01 0.  0.
     999903    2    3    3    0    0  0.65737871169E-01 -0.91790819009E-01 -0.61997215151E-01  0.13030690822E+00  0.19728494211E-01 0.  0.
         14    1    1    2    0    0 -0.70631641036E-02  0.91927999324E-02 -0.20940779163E-01  0.23935582084E-01  0.00000000000E+00 0. -1.
     999901    1    3    3    0    0 -0.58674707065E-01  0.82598019077E-01  0.82937994314E-01  0.88968750969E+00  0.88000000000E+00 0. -1.
        -11    1    4    4    0    0  0.38975519138E-01 -0.69698727916E-01 -0.44957464729E-01  0.91642994937E-01  0.51100000000E-03 0.  1.
         11    1    4    4    0    0  0.26762352031E-01 -0.22092091093E-01 -0.17039750421E-01  0.38663913285E-01  0.51100000000E-03 0. -1.
</event>
<event>
 8    1  0.1123285E+005  0.1043930E+01  0.7957747E-01            NaN
         13   -1    0    0    0    0  0.00000000000E+00  0.00000000000E+00  0.74505805969E-08  0.10566000000E+00  0.10566000000E+00 0. -1.
     999900   -1    0    0    0    0 -0.00000000000E+00 -0.00000000000E+00 -0.74505805969E-08  0.93827000000E+00  0.93827000000E+00 0. -1.
     999902    2    1    2    0    0 -0.12656059310E-01  0.25175557994E-02  0.18999327651E-01  0.10209628849E+01  0.10207045233E+01 0.  0.
     999903    2    3    3    0    0 -0.88187654040E-01  0.87089664477E-01 -0.40149921584E-01  0.13171820707E+00  0.19390664968E-01 0.  0.
         14    1    1    2    0    0  0.12656059310E-01 -0.25175557994E-02 -0.18999327651E-01  0.22967115092E-01  0.00000000000E+00 0.  1.
     999901    1    3    3    0    0  0.75531594730E-01 -0.84572108678E-01  0.59149249236E-01  0.88924467783E+00  0.88000000000E+00 0.  1.
        -11    1    4    4    0    0 -0.27972236253E-01  0.18545102622E-01 -0.16820277568E-01  0.37543970098E-01  0.51100000000E-03 0.  1.
         11    1    4    4    0    0 -0.60215417788E-01  0.68544561856E-01 -0.23329644016E-01  0.94174236977E-01  0.51100000000E-03 0. -1.
</event>
<event>
 8    1  0.1123285E+005  0.1043930E+01  0.7957747E-01            NaN
         13   -1    0    0    0    0  0.00000000000E+00  0.00000000000E+00  0.74505805969E-08  0.10566000000E+00  0.10566000000E+00 0. -1.
     999900   -1    0    0    0    0 -0.00000000000E+00 -0.00000000000E+00 -0.74505805969E-08  0.93827000000E+00  0.93827000000E+00 0. -1.
     999902    2    1    2    0    0  0.13959462186E-02 -0.62256204510E-02 -0.22536977655E-01  0.10205073106E+01  0.10202384764E+01 0.  0.
     999903    2    3    3    0    0 -0.11886809256E+00 -0.49996432761E-01 -0.12728813143E-01  0.13119548504E+00  0.20517453357E-01 0.  0.
         14    1    1    2    0    0 -0.13959462186E-02  0.62256204510E-02  0.22536977655E-01  0.23422689377E-01  0.00000000000E+00 0. -1.
     999901    1    3    3    0    0  0.12026403878E+00  0.43770812310E-01 -0.98081645122E-02  0.88931182558E+00  0.88000000000E+00 0.  1.
        -11    1    4    4    0    0 -0.31963983188E-01 -0.13484562706E-01 -0.12654704338E-01  0.36931454284E-01  0.51100000000E-03 0.  1.
         11    1    4    4    0    0 -0.86904109373E-01 -0.36511870055E-01 -0.74108804465E-04  0.94264030754E-01  0.51100000000E-03 0. -1.
</event>
<event>
 8    1  0.1123285E+005  0.1043930E+01  0.7957747E-01            NaN
         13   -1    0    0    0    0  0.00000000000E+00  0.00000000000E+00  0.74505805969E-08  0.10566000000E+00  0.10566000000E+00 0.  1.
     999900   -1    0    0    0    0 -0.00000000000E+00 -0.00000000000E+00 -0.74505805969E-08  0.93827000000E+00  0.93827000000E+00 0. -1.
     999902    2    1    2    0    0 -0.10138241140E-01  0.19427044230E-01 -0.60881714970E-02  0.10211866534E+01  0.10209333579E+01 0.  0.
     999903    2    3    3    0    0  0.93999241058E-01  0.30076868296E-01  0.83023524149E-01  0.13051335292E+00  0.20008858073E-01 0.  0.
         14    1    1    2    0    0  0.10138241140E-01 -0.19427044230E-01  0.60881714970E-02  0.22743346568E-01  0.00000000000E+00 0. -1.
     999901    1    3    3    0    0 -0.10413748220E+00 -0.10649824067E-01 -0.89111695646E-01  0.89067330052E+00  0.88000000000E+00 0. -1.
        -11    1    4    4    0    0  0.39645686785E-01  0.21991285191E-01  0.31720954458E-01  0.55334231518E-01  0.51100000000E-03 0.  1.
         11    1    4    4    0    0  0.54353554273E-01  0.80855831048E-02  0.51302569691E-01  0.75179121398E-01  0.51100000000E-03 0. -1.
</event>
<event>
 8    1  0.1123285E+005  0.1043930E+01  0.7957747E-01            NaN
         13   -1    0    0    0    0  0.00000000000E+00  0.00000000000E+00  0.74505805969E-08  0.10566000000E+00  0.10566000000E+00 0.  1.
     999900   -1    0    0    0    0 -0.00000000000E+00 -0.00000000000E+00 -0.74505805969E-08  0.93827000000E+00  0.93827000000E+00 0. -1.
     999902    2    1    2    0    0  0.65359781564E-02  0.73930340392E-02  0.21348324363E-01  0.10204113496E+01  0.10201402823E+01 0.  0.
     999903    2    3    3    0    0  0.23836861854E-01  0.12727466819E+00  0.41352488680E-02  0.13194794758E+00  0.25022458778E-01 0.  0.
         14    1    1    2    0    0 -0.65359781564E-02 -0.73930340392E-02 -0.21348324363E-01  0.23518650384E-01  0.00000000000E+00 0. -1.
     999901    1    3    3    0    0 -0.17300883698E-01 -0.11988163415E+00  0.17213075495E-01  0.88846340203E+00  0.88000000000E+00 0.  1.
        -11    1    4    4    0    0  0.52219702919E-02  0.64909761646E-01 -0.84159227643E-02  0.65663041413E-01  0.51100000000E-03 0.  1.
         11    1    4    4    0    0  0.18614891562E-01  0.62364906541E-01  0.12551171632E-01  0.66284906171E-01  0.51100000000E-03 0. -1.
</event>
<event>
 8    1  0.1123285E+005  0.1043930E+01  0.7957747E-01            NaN
         13   -1    0    0    0    0  0.00000000000E+00  0.00000000000E+00  0.74505805969E-08  0.10566000000E+00  0.10566000000E+00 0.  1.
     999900   -1    0    0    0    0 -0.00000000000E+00 -0.00000000000E+00 -0.74505805969E-08  0.93827000000E+00  0.93827000000E+00 0. -1.
     999902    2    1    2    0    0 -0.16662514093E-01 -0.14099089475E-01  0.10117009342E-01  0.10198722034E+01  0.10195884139E+01 0.  0.
     999903    2    3    3    0    0 -0.12303704158E+00  0.18550595894E-01 -0.37836952407E-01  0.13156981990E+00  0.19918442033E-01 0.  0.
         14    1    1    2    0    0  0.16662514093E-01  0.14099089475E-01 -0.10117009342E-01  0.24057796615E-01  0.00000000000E+00 0.  1.
     999901    1    3    3    0    0  0.10637452749E+00 -0.32649685369E-01  0.47953961749E-01  0.88830238348E+00  0.88000000000E+00 0. -1.
        -11    1    4    4    0    0 -0.86503267781E-01  0.18559275131E-01 -0.34194369840E-01  0.94851347276E-01  0.51100000000E-03 0.  1.
         11    1    4    4    0    0 -0.36533773799E-01 -0.86792371302E-05 -0.36425825663E-02  0.36718472627E-01  0.51100000000E-03 0. -1.
</event>
<event>
 8    1  0.1123285E+005  0.1043930E+01  0.7957747E-01            NaN
         13   -1    0    0    0    0  0.00000000000E+00  0.00000000000E+00  0.74505805969E-08  0.10566000000E+00  0.10566000000E+00 0.  1.
     999900   -1    0    0    0    0 -0.00000000000E+00 -0.00000000000E+00 -0.74505805969E-08  0.93827000000E+00  0.93827000000E+00 0.  1.
     999902    2    1    2    0    0  0.88938567591E-02  0.20182101483E-01 -0.69675402301E-02  0.10208006999E+01  0.10205386344E+01 0.  0.
     999903    2    3    3    0    0 -0.71252953878E-02 -0.43393534637E-01  0.11986933895E+00  0.12929294966E+00  0.20352880111E-01 0.  0.
         14    1    1    2    0    0 -0.88938567591E-02 -0.20182101483E-01  0.69675402301E-02  0.23129300144E-01  0.00000000000E+00 0. -1.
     999901    1    3    3    0    0  0.16019152147E-01  0.63575636119E-01 -0.12683687918E+00  0.89150775020E+00  0.88000000000E+00 0.  1.
        -11    1    4    4    0    0 -0.11580444104E-01 -0.29406896086E-01  0.97812991913E-01  0.10279355394E+00  0.51100000000E-03 0.  1.
         11    1    4    4    0    0  0.44551487164E-02 -0.13986638551E-01  0.22056347035E-01  0.26499395721E-01  0.51100000000E-03 0. -1.
</event>
<event>
 7    1  0.1180855E+005  0.1043930E+01  0.7957747E-01            NaN
         13   -1    0    0    0    0  0.00000000000E+00  0.00000000000E+00  0.74505805969E-08  0.10566000000E+00  0.10566000000E+00 0. -1.
     999900   -1    0    0    0    0 -0.00000000000E+00 -0.00000000000E+00 -0.74505805969E-08  0.93827000000E+00  0.93827000000E+00 0. -1.
     999903    2    1    2    0    0  0.77337917937E-01 -0.62862404051E-01 -0.38037339654E-01  0.10844785151E+00  0.19525928817E-01 0.  0.
         14    1    1    2    0    0 -0.66078409257E-02 -0.33236327832E-01  0.33165677925E-01  0.47416023048E-01  0.00000000000E+00 0. -1.
     999901    1    1    2    0    0 -0.70730077011E-01  0.96098731883E-01  0.48716617293E-02  0.88806612544E+00  0.88000000000E+00 0. -1.
        -11    1    3    3    0    0  0.35521958151E-01 -0.40676088330E-01 -0.16764106014E-01  0.56547767809E-01  0.51100000000E-03 0. -1.
         11    1    3    3    0    0  0.41815959786E-01 -0.22186315720E-01 -0.21273233640E-01  0.51900083705E-01  0.51100000000E-03 0.  1.
</event>
<event>
 8    1  0.1123285E+005  0.1043930E+01  0.7957747E-01            NaN
         13   -1    0    0    0    0  0.00000000000E+00  0.00000000000E+00  0.74505805969E-08  0.10566000000E+00  0.10566000000E+00 0.  1.
     999900   -1    0    0    0    0 -0.00000000000E+00 -0.00000000000E+00 -0.74505805969E-08  0.93827000000E+00  0.93827000000E+00 0. -1.
     999902    2    1    2    0    0  0.18939645672E-01  0.45120971879E-02  0.12577148709E-01  0.10207512626E+01  0.10204880627E+01 0.  0.
     999903    2    3    3    0    0  0.65724616167E-01  0.65184790368E-01 -0.91416452250E-01  0.13132185098E+00  0.17879561988E-01 0.  0.
         14    1    1    2    0    0 -0.18939645672E-01 -0.45120971879E-02 -0.12577148709E-01  0.23178737431E-01  0.00000000000E+00 0.  1.
     999901    1    3    3    0    0 -0.46784970495E-01 -0.60672693181E-01  0.10399360096E+00  0.88942941159E+00  0.88000000000E+00 0.  1.
        -11    1    4    4    0    0  0.57940124717E-01  0.51304802365E-01 -0.82308755903E-01  0.11297890607E+00  0.51100000000E-03 0.  1.
         11    1    4    4    0    0  0.77844914497E-02  0.13879988004E-01 -0.91076963472E-02  0.18342944907E-01  0.51100000000E-03 0. -1.
</event>
<event>
 8    1  0.1123285E+005  0.1043930E+01  0.7957747E-01            NaN
         13   -1    0    0    0    0  0.00000000000E+00  0.00000000000E+00  0.74505805969E-08  0.10566000000E+00  0.10566000000E+00 0.  1.
     999900   -1    0    0    0    0 -0.00000000000E+00 -0.00000000000E+00 -0.74505805969E-08  0.93827000000E+00  0.93827000000E+00 0. -1.
     999902    2    1    2    0    0 -0.19599424293E-01 -0.12995378052E-01 -0.49031939250E-02  0.10199079561E+01  0.10196250194E+01 0.  0.
     999903    2    3    3    0    0 -0.68205747994E-02 -0.12443030689E+00 -0.39634950255E-01  0.13210880241E+00  0.18771917319E-01 0.  0.
         14    1    1    2    0    0  0.19599424293E-01  0.12995378052E-01  0.49031939250E-02  0.24022043918E-01  0.00000000000E+00 0. -1.
     999901    1    3    3    0    0 -0.12778849493E-01  0.11143492884E+00  0.34731756330E-01  0.88779915367E+00  0.88000000000E+00 0.  1.
        -11    1    4    4    0    0 -0.37086765771E-02 -0.30822077050E-01 -0.18203451857E-02  0.31101921054E-01  0.51100000000E-03 0.  1.
         11    1    4    4    0    0 -0.31118982223E-02 -0.93608229840E-01 -0.37814605069E-01  0.10100688136E+00  0.51100000000E-03 0. -1.
</event>
<event>
 8    1  0.1130580E+005  0.1043930E+01  0.7957747E-01            NaN
         13   -1    0    0    0    0  0.00000000000E+00  0.00000000000E+00  0.74505805969E-08  0.10566000000E+00  0.10566000000E+00 0. -1.
     999900   -1    0    0    0    0 -0.00000000000E+00 -0.00000000000E+00 -0.74505805969E-08  0.93827000000E+00  0.93827000000E+00 0.  1.
     999902    2    1    2    0    0  0.98227121726E-02  0.20360033361E-01  0.93910516959E-02  0.10194512646E+01  0.10191573345E+01 0.  0.
     999903    2    3    3    0    0  0.14302480194E-01 -0.12260130214E+00 -0.23532601953E-01  0.12729546057E+00  0.20364446941E-01 0.  0.
         14    1    1    2    0    0 -0.98227121726E-02 -0.20360033361E-01 -0.93910516959E-02  0.24478735360E-01  0.00000000000E+00 0.  1.
     999901    1    3    3    0    0 -0.44797680210E-02  0.14296133550E+00  0.32923653649E-01  0.89215580407E+00  0.88000000000E+00 0.  1.
        -11    1    4    4    0    0  0.13052734311E-01 -0.35874750897E-01 -0.10397788745E-01  0.39569518025E-01  0.51100000000E-03 0.  1.
         11    1    4    4    0    0  0.12497458829E-02 -0.86726551247E-01 -0.13134813208E-01  0.87725942542E-01  0.51100000000E-03 0. -1.
</event>
<event>
 8    1  0.1123285E+005  0.1043930E+01  0.7957747E-01            NaN
         13   -1    0    0    0    0  0.00000000000E+00  0.00000000000E+00  0.74505805969E-08  0.10566000000E+00  0.10566000000E+00 0. -1.
     999900   -1    0    0    0    0 -0.00000000000E+00 -0.00000000000E+00 -0.74505805969E-08  0.93827000000E+00  0.93827000000E+00 0. -1.
     999902    2    1    2    0    0 -0.21906376927E-01  0.82575744209E-02 -0.41367657830E-02  0.10201562810E+01  0.10198792320E+01 0.  0.
     999903    2    3    3    0    0  0.26116036798E-03 -0.36980534552E-01  0.12215600788E+00  0.12971383427E+00  0.23150818521E-01 0.  0.
         14    1    1    2    0    0  0.21906376927E-01 -0.82575744209E-02  0.41367657830E-02  0.23773719030E-01  0.00000000000E+00 0.  1.
     999901    1    3    3    0    0 -0.22167537295E-01  0.45238108973E-01 -0.12629277366E+00  0.89044244670E+00  0.88000000000E+00 0. -1.
        -11    1    4    4    0    0 -0.20304542446E-02 -0.34080141405E-01  0.74955568764E-01  0.82366116774E-01  0.51100000000E-03 0. -1.
         11    1    4    4    0    0  0.22916146126E-02 -0.29003931467E-02  0.47200439116E-01  0.47347717492E-01  0.51100000000E-03 0.  1.
</event>
<event>
 8    1  0.1123285E+005  0.1043930E+01  0.7957747E-01            NaN
         13   -1    0    0    0    0  0.00000000000E+00  0.00000000000E+00  0.74505805969E-08  0.10566000000E+00  0.10566000000E+00 0. -1.
     999900   -1    0    0    0    0 -0.00000000000E+00 -0.00000000000E+00 -0.74505805969E-08  0.93827000000E+00  0.93827000000E+00 0. -1.
     999902    2    1    2    0    0 -0.36153757808E-03 -0.22845189254E-01 -0.80465713751E-02  0.10197064434E+01  0.10194186824E+01 0.  0.
     999903    2    3    3    0    0 -0.38579605141E-01  0.48456143120E-01  0.11023930731E+00  0.12811458066E+00  0.20597503769E-01 0.  0.
         14    1    1    2    0    0  0.36153757808E-03  0.22845189254E-01  0.80465713751E-02  0.24223556559E-01  0.00000000000E+00 0. -1.
     999901    1    3    3    0    0  0.38218067563E-01 -0.71301332374E-01 -0.11828587869E+00  0.89159186278E+00  0.88000000000E+00 0. -1.
        -11    1    4    4    0    0 -0.59596167510E-02  0.18874184133E-01  0.47505695516E-01  0.51466533650E-01  0.51100000000E-03 0.  1.
         11    1    4    4    0    0 -0.32619988390E-01  0.29581958988E-01  0.62733611795E-01  0.76648047007E-01  0.51100000000E-03 0. -1.
</event>
<event>
 8    1  0.1123285E+005  0.1043930E+01  0.7957747E-01            NaN
         13   -1    0    0    0    0  0.00000000000E+00  0.00000000000E+00  0.74505805969E-08  0.10566000000E+00  0.10566000000E+00 0.  1.
     999900   -1    0    0    0    0 -0.00000000000E+00 -0.00000000000E+00 -0.74505805969E-08  0.93827000000E+00  0.93827000000E+00 0. -1.
     999902    2    1    2    0    0  0.10679150376E-01 -0.17985916859E-01 -0.10559161722E-01  0.10204985392E+01  0.10202295012E+01 0.  0.
     999903    2    3    3    0    0  0.82689895301E-01  0.95347541415E-01 -0.20575995344E-01  0.13025679840E+00  0.24792932571E-01 0.  0.
         14    1    1    2    0    0 -0.10679150376E-01  0.17985916859E-01  0.10559161722E-01  0.23431460780E-01  0.00000000000E+00 0.  1.
     999901    1    3    3    0    0 -0.72010744925E-01 -0.11333345827E+00  0.10016833622E-01  0.89024174082E+00  0.88000000000E+00 0. -1.
        -11    1    4    4    0    0  0.46230599635E-01  0.48474902248E-01 -0.22989379418E-01  0.70822716536E-01  0.51100000000E-03 0.  1.
         11    1    4    4    0    0  0.36459295666E-01  0.46872639167E-01  0.24133840742E-02  0.59434081860E-01  0.51100000000E-03 0. -1.
</event>
<event>
 8    1  0.1123285E+005  0.1043930E+01  0.7957747E-01            NaN
         13   -1    0    0    0    0  0.00000000000E+00  0.00000000000E+00  0.74505805969E-08  0.10566000000E+00  0.10566000000E+00 0. -1.
     999900   -1    0    0    0    0 -0.00000000000E+00 -0.00000000000E+00 -0.74505805969E-08  0.93827000000E+00  0.93827000000E+00 0.  1.
     999902    2    1    2    0    0  0.13244671841E-01 -0.17757547182E-01 -0.31985908015E-02  0.10215473550E+01  0.10213021177E+01 0.  0.
     999903    2    3    3    0    0  0.23716732939E-01 -0.42367997650E-02  0.12774609190E+00  0.13169400495E+00  0.21066870898E-01 0.  0.
         14    1    1    2    0    0 -0.13244671841E-01  0.17757547182E-01  0.31985908015E-02  0.22382645000E-01  0.00000000000E+00 0.  1.
     999901    1    3    3    0    0 -0.10472061098E-01 -0.13520747417E-01 -0.13094468270E+00  0.88985335005E+00  0.88000000000E+00 0.  1.
        -11    1    4    4    0    0  0.46265681471E-02  0.25120335183E-02  0.75100854671E-01  0.75286884239E-01  0.51100000000E-03 0.  1.
         11    1    4    4    0    0  0.19090164792E-01 -0.67488332834E-02  0.52645237230E-01  0.56407120707E-01  0.51100000000E-03 0. -1.
</event>
<event>
 8    1  0.1123285E+005  0.1043930E+01  0.7957747E-01            NaN
         13   -1    0    0    0    0  0.00000000000E+00  0.00000000000E+00  0.74505805969E-08  0.10566000000E+00  0.10566000000E+00 0.  1.
     999900   -1    0    0    0    0 -0.00000000000E+00 -0.00000000000E+00 -0.74505805969E-08  0.93827000000E+00  0.93827000000E+00 0.  1.
     999902    2    1    2    0    0 -0.10346559668E-01  0.21201121413E-01 -0.38879941285E-02  0.10200206850E+01  0.10197404290E+01 0.  0.
     999903    2    3    3    0    0 -0.65599167600E-01 -0.10934640874E+00  0.48493461410E-02  0.12863308723E+00  0.16219342756E-01 0.  0.
         14    1    1    2    0    0  0.10346559668E-01 -0.21201121413E-01  0.38879941285E-02  0.23909315015E-01  0.00000000000E+00 0. -1.
     999901    1    3    3    0    0  0.55252607932E-01  0.13054753015E+00 -0.87373402694E-02  0.89138759775E+00  0.88000000000E+00 0. -1.
        -11    1    4    4    0    0 -0.60542714014E-01 -0.10358484655E+00  0.87767061281E-03  0.11998446600E+00  0.51100000000E-03 0. -1.
         11    1    4    4    0    0 -0.50564535862E-02 -0.57615621897E-02  0.39716755282E-02  0.86486212332E-02  0.51100000000E-03 0.  1.
</event>
<event>
 8    1  0.1123285E+005  0.1043930E+01  0.7957747E-01            NaN
         13   -1    0    0    0    0  0.00000000000E+00  0.00000000000E+00  0.74505805969E-08  0.10566000000E+00  0.10566000000E+00 0.  1.
     999900   -1    0    0    0    0 -0.00000000000E+00 -0.00000000000E+00 -0.74505805969E-08  0.93827000000E+00  0.93827000000E+00 0. -1.
     999902    2    1    2    0    0  0.36049504143E-02  0.22720306801E-01  0.60734669129E-02  0.10201372488E+01  0.10198597509E+01 0.  0.
     999903    2    3    3    0    0 -0.19462021678E-01 -0.12251974041E+00 -0.22345124857E-01  0.12748145128E+00  0.19035722698E-01 0.  0.
         14    1    1    2    0    0 -0.36049504143E-02 -0.22720306801E-01 -0.60734669129E-02  0.23792751185E-01  0.00000000000E+00 0. -1.
     999901    1    3    3    0    0  0.23066972093E-01  0.14524004721E+00  0.28418591770E-01  0.89265579753E+00  0.88000000000E+00 0.  1.
        -11    1    4    4    0    0 -0.13270694808E-01 -0.85284739955E-01 -0.65508002398E-02  0.86560801260E-01  0.51100000000E-03 0. -1.
         11    1    4    4    0    0 -0.61913268701E-02 -0.37235000451E-01 -0.15794324617E-01  0.40920650021E-01  0.51100000000E-03 0.  1.
</event>
<event>
 8    1  0.1123285E+005  0.1043930E+01  0.7957747E-01            NaN
         13   -1    0    0    0    0  0.00000000000E+00  0.00000000000E+00  0.74505805969E-08  0.10566000000E+00  0.10566000000E+00 0. -1.
     999900   -1    0    0    0    0 -0.00000000000E+00 -0.00000000000E+00 -0.74505805969E-08  0.93827000000E+00  0.93827000000E+00 0.  1.
     999902    2    1    2    0    0 -0.18099414271E-01  0.95230542071E-02  0.12229886665E-01  0.10201004493E+01  0.10198220821E+01 0.  0.
     999903    2    3    3    0    0  0.51624168390E-01 -0.35973005832E-01  0.11267232569E+00  0.13048258021E+00  0.19275343102E-01 0.  0.
         14    1    1    2    0    0  0.18099414271E-01 -0.95230542071E-02 -0.12229886665E-01  0.23829550693E-01  0.00000000000E+00 0.  1.
     999901    1    3    3    0    0 -0.69723582661E-01  0.45496060039E-01 -0.10044243902E+00  0.88961786910E+00  0.88000000000E+00 0.  1.
        -11    1    4    4    0    0  0.91934176213E-02 -0.14455197574E-01  0.41200260975E-01  0.44622800113E-01  0.51100000000E-03 0. -1.
         11    1    4    4    0    0  0.42430750769E-01 -0.21517808258E-01  0.71472064714E-01  0.85859780098E-01  0.51100000000E-03 0.  1.
</event>
<event>
 8    1  0.1123285E+005  0.1043930E+01  0.7957747E-01            NaN
         13   -1    0    0    0    0  0.00000000000E+00  0.00000000000E+00  0.74505805969E-08  0.10566000000E+00  0.10566000000E+00 0. -1.
     999900   -1    0    0    0    0 -0.00000000000E+00 -0.00000000000E+00 -0.74505805969E-08  0.93827000000E+00  0.93827000000E+00 0. -1.
     999902    2    1    2    0    0  0.56859020065E-02  0.22116403296E-01 -0.23717077983E-02  0.10209715642E+01  0.10207134001E+01 0.  0.
     999903    2    3    3    0    0 -0.11589813264E+00  0.47093935374E-01 -0.35895191929E-01  0.13162889764E+00  0.19684663842E-01 0.  0.
         14    1    1    2    0    0 -0.56859020065E-02 -0.22116403296E-01  0.23717077983E-02  0.22958435797E-01  0.00000000000E+00 0.  1.
     999901    1    3    3    0    0  0.12158403465E+00 -0.24977532078E-01  0.33523484131E-01  0.88934266657E+00  0.88000000000E+00 0.  1.
        -11    1    4    4    0    0 -0.97492251182E-01  0.45885454312E-01 -0.34426741290E-01  0.11311797202E+00  0.51100000000E-03 0. -1.
         11    1    4    4    0    0 -0.18405881458E-01  0.12084810626E-02 -0.14684506399E-02  0.18510925611E-01  0.51100000000E-03 0.  1.
</event>
<event>
 8    1  0.1123285E+005  0.1043930E+01  0.7957747E-01            NaN
         13   -1    0    0    0    0  0.00000000000E+00  0.00000000000E+00  0.74505805969E-08  0.10566000000E+00  0.10566000000E+00 0. -1.
     999900   -1    0    0    0    0 -0.00000000000E+00 -0.00000000000E+00 -0.74505805969E-08  0.93827000000E+00  0.93827000000E+00 0. -1.
     999902    2    1    2    0    0 -0.32155903574E-03  0.14292639713E-01 -0.19256464251E-01  0.10199467899E+01  0.10196647782E+01 0.  0.
     999903    2    3    3    0    0  0.54226093637E-01  0.88870278833E-01 -0.80321586569E-01  0.13300472878E+00  0.20007621463E-01 0.  0.
         14    1    1    2    0    0  0.32155903574E-03 -0.14292639713E-01  0.19256464251E-01  0.23983210077E-01  0.00000000000E+00 0. -1.
     999901    1    3    3    0    0 -0.54547652673E-01 -0.74577639120E-01  0.61065122319E-01  0.88694206115E+00  0.88000000000E+00 0.  1.
        -11    1    4    4    0    0  0.24507536390E-01  0.57527453401E-01 -0.52259772642E-01  0.81494614499E-01  0.51100000000E-03 0. -1.
         11    1    4    4    0    0  0.29718557247E-01  0.31342825433E-01 -0.28061813927E-01  0.51510114277E-01  0.51100000000E-03 0.  1.
</event>
<event>
 8    1  0.1123285E+005  0.1043930E+01  0.7957747E-01            NaN
         13   -1    0    0    0    0  0.00000000000E+00  0.00000000000E+00  0.74505805969E-08  0.10566000000E+00  0.10566000000E+00 0. -1.
     999900   -1    0    0    0    0 -0.00000000000E+00 -0.00000000000E+00 -0.74505805969E-08  0.93827000000E+00  0.93827000000E+00 0. -1.
     999902    2    1    2    0    0  0.23679046649E-01  0.44682691283E-03  0.32800306399E-02  0.10200206816E+01  0.10197404255E+01 0.  0.
     999903    2    3    3    0    0 -0.10761478777E+00  0.65624604173E-01  0.75338691121E-02  0.12788598957E+00  0.20261686135E-01 0.  0.
         14    1    1    2    0    0 -0.23679046649E-01 -0.44682691283E-03 -0.32800306399E-02  0.23909318382E-01  0.00000000000E+00 0.  1.
     999901    1    3    3    0    0  0.13129383442E+00 -0.65177777260E-01 -0.42538384721E-02  0.89213469204E+00  0.88000000000E+00 0.  1.
        -11    1    4    4    0    0 -0.60432981609E-01  0.43316242300E-01 -0.38939386905E-02  0.74457141985E-01  0.51100000000E-03 0. -1.
         11    1    4    4    0    0 -0.47181806165E-01  0.22308361873E-01  0.11427807803E-01  0.53428847589E-01  0.51100000000E-03 0.  1.
</event>
<event>
 8    1  0.1123285E+005  0.1043930E+01  0.7957747E-01            NaN
         13   -1    0    0    0    0  0.00000000000E+00  0.00000000000E+00  0.74505805969E-08  0.10566000000E+00  0.10566000000E+00 0. -1.
     999900   -1    0    0    0    0 -0.00000000000E+00 -0.00000000000E+00 -0.74505805969E-08  0.93827000000E+00  0.93827000000E+00 0.  1.
     999902    2    1    2    0    0  0.96850155370E-02  0.63170118409E-02  0.20747789920E-01  0.10201776327E+01  0.10199010870E+01 0.  0.
     999903    2    3    3    0    0  0.90990365691E-01  0.11312005704E-01 -0.89139896154E-01  0.12960994104E+00  0.21109419887E-01 0.  0.
         14    1    1    2    0    0 -0.96850155370E-02 -0.63170118409E-02 -0.20747789920E-01  0.23752367274E-01  0.00000000000E+00 0.  1.
     999901    1    3    3    0    0 -0.81305350154E-01 -0.49949938633E-02  0.10988768607E+00  0.89056769169E+00  0.88000000000E+00 0. -1.
        -11    1    4    4    0    0  0.13984344053E-01  0.84519048382E-02 -0.10074538204E-01  0.19202968911E-01  0.51100000000E-03 0. -1.
         11    1    4    4    0    0  0.77006021638E-01  0.28601008660E-02 -0.79065357950E-01  0.11040697213E+00  0.51100000000E-03 0.  1.
</event>
<event>
 8    1  0.1123285E+005  0.1043930E+01  0.7957747E-01            NaN
         13   -1    0    0    0    0  0.00000000000E+00  0.00000000000E+00  0.74505805969E-08  0.10566000000E+00  0.10566000000E+00 0.  1.
     999900   -1    0    0    0    0 -0.00000000000E+00 -0.00000000000E+00 -0.74505805969E-08  0.93827000000E+00  0.93827000000E+00 0. -1.
     999902    2    1    2    0    0  0.86404795387E-02 -0.65893407425E-02 -0.20667582946E-01  0.10205799190E+01  0.10203127681E+01 0.  0.
     999903    2    3    3    0    0  0.12244846535E-01  0.11686288416E+00  0.51644878472E-01  0.12901806732E+00  0.13099551876E-01 0.  0.
         14    1    1    2    0    0 -0.86404795387E-02  0.65893407425E-02  0.20667582946E-01  0.23350081004E-01  0.00000000000E+00 0.  1.
     999901    1    3    3    0    0 -0.36043669959E-02 -0.12345222491E+00 -0.72312461418E-01  0.89156185168E+00  0.88000000000E+00 0.  1.
        -11    1    4    4    0    0  0.97325797844E-03  0.22353594430E-01  0.15414220178E-01  0.27175167336E-01  0.51100000000E-03 0.  1.
         11    1    4    4    0    0  0.11271588556E-01  0.94509289734E-01  0.36230658294E-01  0.10184289998E+00  0.51100000000E-03 0. -1.
</event>
<event>
 8    1  0.1123285E+005  0.1043930E+01  0.7957747E-01            NaN
         13   -1    0    0    0    0  0.00000000000E+00  0.00000000000E+00  0.74505805969E-08  0.10566000000E+00  0.10566000000E+00 0.  1.
     999900   -1    0    0    0    0 -0.00000000000E+00 -0.00000000000E+00 -0.74505805969E-08  0.93827000000E+00  0.93827000000E+00 0. -1.
     999902    2    1    2    0    0  0.19422389703E-01 -0.76543056923E-02 -0.11727052782E-01  0.10199854519E+01  0.10197043594E+01 0.  0.
     999903    2    3    3    0    0 -0.69548596998E-01  0.83637298954E-01 -0.66698611415E-01  0.12910281887E+00  0.19662857235E-01 0.  0.
         14    1    1    2    0    0 -0.19422389703E-01  0.76543056923E-02  0.11727052782E-01  0.23944548113E-01  0.00000000000E+00 0. -1.
     999901    1    3    3    0    0  0.88970986700E-01 -0.91291604646E-01  0.54971558633E-01  0.89088263302E+00  0.88000000000E+00 0.  1.
        -11    1    4    4    0    0 -0.34651381525E-01  0.44786180538E-01 -0.23438254797E-01  0.61287299807E-01  0.51100000000E-03 0.  1.
         11    1    4    4    0    0 -0.34897215473E-01  0.38851118416E-01 -0.43260356618E-01  0.67815519062E-01  0.51100000000E-03 0. -1.
</event>
<event>
 8    1  0.1123285E+005  0.1043930E+01  0.7957747E-01            NaN
         13   -1    0    0    0    0  0.00000000000E+00  0.00000000000E+00  0.74505805969E-08  0.10566000000E+00  0.10566000000E+00 0.  1.
     999900   -1    0    0    0    0 -0.00000000000E+00 -0.00000000000E+00 -0.74505805969E-08  0.93827000000E+00  0.93827000000E+00 0. -1.
     999902    2    1    2    0    0 -0.44744562667E-02 -0.18962990565E-01 -0.11550959938E-01  0.10212796039E+01  0.10210283976E+01 0.  0.
     999903    2    3    3    0    0 -0.65648901075E-01 -0.65323155059E-01  0.92050190735E-01  0.13188386743E+00  0.18526307640E-01 0.  0.
         14    1    1    2    0    0  0.44744562667E-02  0.18962990565E-01  0.11550959938E-01  0.22650396146E-01  0.00000000000E+00 0.  1.
     999901    1    3    3    0    0  0.61174444808E-01  0.46360164493E-01 -0.10360115067E+00  0.88939573642E+00  0.88000000000E+00 0. -1.
        -11    1    4    4    0    0 -0.33281696640E-01 -0.45697268710E-01  0.57342247723E-01  0.80525189808E-01  0.51100000000E-03 0.  1.
         11    1    4    4    0    0 -0.32367204435E-01 -0.19625886349E-01  0.34707943012E-01  0.51358677621E-01  0.51100000000E-03 0. -1.
</event>
<event>
 8    1  0.1123285E+005  0.1043930E+01  0.7957747E-01            NaN
         13   -1    0    0    0    0  0.00000000000E+00  0.00000000000E+00  0.74505805969E-08  0.10566000000E+00  0.10566000000E+00 0. -1.
     999900   -1    0    0    0    0 -0.00000000000E+00 -0.00000000000E+00 -0.74505805969E-08  0.93827000000E+00  0.93827000000E+00 0.  1.
     999902    2    1    2    0    0 -0.14135779087E-01  0.99613877496E-02 -0.18705066172E-01  0.10184559152E+01  0.10181372806E+01 0.  0.
     999903    2    3    3    0    0 -0.93909811535E-01 -0.27391560772E-01  0.80663701244E-01  0.12849339297E+00  0.20846319465E-01 0.  0.
         14    1    1    2    0    0  0.14135779087E-01 -0.99613877496E-02  0.18705066172E-01  0.25474084808E-01  0.00000000000E+00 0.  1.
     999901    1    3    3    0    0  0.79774032448E-01  0.37352948522E-01 -0.99368767416E-01  0.88996252222E+00  0.88000000000E+00 0.  1.
        -11    1    4    4    0    0 -0.53442298250E-01 -0.10632778166E-01  0.56376931856E-01  0.78407619401E-01  0.51100000000E-03 0. -1.
         11    1    4    4    0    0 -0.40467513286E-01 -0.16758782606E-01  0.24286769389E-01  0.50085773572E-01  0.51100000000E-03 0.  1.
</event>
<event>
 8    1  0.1123285E+005  0.1043930E+01  0.7957747E-01            NaN
         13   -1    0    0    0    0  0.00000000000E+00  0.00000000000E+00  0.74505805969E-08  0.10566000000E+00  0.10566000000E+00 0.  1.
     999900   -1    0    0    0    0 -0.00000000000E+00 -0.00000000000E+00 -0.74505805969E-08  0.93827000000E+00  0.93827000000E+00 0.  1.
     999902    2    1    2    0    0  0.12690709510E-01 -0.16378810542E-01  0.88666540637E-02  0.10213925401E+01  0.10211438606E+01 0.  0.
     999903    2    3    3    0    0  0.72490531939E-01 -0.10081789719E+00 -0.45264830204E-01  0.13367851203E+00  0.20047795625E-01 0.  0.
         14    1    1    2    0    0 -0.12690709510E-01  0.16378810542E-01 -0.88666540637E-02  0.22537459860E-01  0.00000000000E+00 0. -1.
     999901    1    3    3    0    0 -0.59799822428E-01  0.84439086653E-01  0.54131484268E-01  0.88771402811E+00  0.88000000000E+00 0. -1.
        -11    1    4    4    0    0  0.47881677102E-01 -0.55290919439E-01 -0.18662387908E-01  0.75486996350E-01  0.51100000000E-03 0.  1.
         11    1    4    4    0    0  0.24608854837E-01 -0.45526977755E-01 -0.26602442296E-01  0.58191515679E-01  0.51100000000E-03 0. -1.
</event>
<event>
 7    1  0.1123285E+005  0.1043930E+01  0.7957747E-01            NaN
         13   -1    0    0    0    0  0.00000000000E+00  0.00000000000E+00  0.74505805969E-08  0.10566000000E+00  0.10566000000E+00 0. -1.
     999900   -1    0    0    0    0 -0.00000000000E+00 -0.00000000000E+00 -0.74505805969E-08  0.93827000000E+00  0.93827000000E+00 0.  1.
     999903    2    1    2    0    0 -0.10443811561E+00 -0.87568672155E-02  0.27001499374E-01  0.11015849220E+00  0.20538006709E-01 0.  0.
         14    1    1    2    0    0 -0.26521612091E-01 -0.32003461881E-01  0.85620790235E-02  0.42437326465E-01  0.00000000000E+00 0.  1.
     999901    1    1    2    0    0  0.13095972770E+00  0.40760329096E-01 -0.35563578398E-01  0.89133418134E+00  0.88000000000E+00 0.  1.
        -11    1    3    3    0    0 -0.66033121935E-01  0.25398624713E-02  0.10759723357E-01  0.66954139988E-01  0.51100000000E-03 0. -1.
         11    1    3    3    0    0 -0.38404993676E-01 -0.11296729687E-01  0.16241776017E-01  0.43204352212E-01  0.51100000000E-03 0.  1.
</event>
<event>
 8    1  0.1123285E+005  0.1043930E+01  0.7957747E-01            NaN
         13   -1    0    0    0    0  0.00000000000E+00  0.00000000000E+00  0.74505805969E-08  0.10566000000E+00  0.10566000000E+00 0.  1.
     999900   -1    0    0    0    0 -0.00000000000E+00 -0.00000000000E+00 -0.74505805969E-08  0.93827000000E+00  0.93827000000E+00 0.  1.
     999902    2    1    2    0    0  0.17514603473E-01 -0.19465012589E-01 -0.22785627479E-02  0.10176461666E+01  0.10173066797E+01 0.  0.
     999903    2    3    3    0    0  0.82557436775E-01 -0.77913600319E-01  0.62254359963E-01  0.13096059342E+00  0.19718321772E-01 0.  0.
         14    1    1    2    0    0 -0.17514603473E-01  0.19465012589E-01  0.22785627479E-02  0.26283833398E-01  0.00000000000E+00 0.  1.
     999901    1    3    3    0    0 -0.65042833302E-01  0.58448587729E-01 -0.64532922711E-01  0.88668557318E+00  0.88000000000E+00 0.  1.
        -11    1    4    4    0    0  0.79080215318E-01 -0.77586584772E-01  0.56891088418E-01  0.12454001627E+00  0.51100000000E-03 0.  1.
         11    1    4    4    0    0  0.34772214568E-02 -0.32701554611E-03  0.53632715456E-02  0.64205771469E-02  0.51100000000E-03 0. -1.
</event>
<event>
 8    1  0.1123285E+005  0.1043930E+01  0.7957747E-01            NaN
         13   -1    0    0    0    0  0.00000000000E+00  0.00000000000E+00  0.74505805969E-08  0.10566000000E+00  0.10566000000E+00 0. -1.
     999900   -1    0    0    0    0 -0.00000000000E+00 -0.00000000000E+00 -0.74505805969E-08  0.93827000000E+00  0.93827000000E+00 0.  1.
     999902    2    1    2    0    0  0.16910692708E-01 -0.23424450183E-02 -0.18781358115E-01  0.10185489443E+01  0.10182326620E+01 0.  0.
     999903    2    3    3    0    0  0.12815858377E+00 -0.47792795986E-03  0.17182844112E-01  0.13081419024E+00  0.19805333346E-01 0.  0.
         14    1    1    2    0    0 -0.16910692708E-01  0.23424450183E-02  0.18781358115E-01  0.25381055715E-01  0.00000000000E+00 0. -1.
     999901    1    3    3    0    0 -0.11124789106E+00 -0.18645170585E-02 -0.35964202228E-01  0.88773475404E+00  0.88000000000E+00 0.  1.
        -11    1    4    4    0    0  0.62384491295E-01 -0.79767269215E-02  0.21740784616E-02  0.62932032103E-01  0.51100000000E-03 0.  1.
         11    1    4    4    0    0  0.65774092474E-01  0.74987989617E-02  0.15008765651E-01  0.67882158142E-01  0.51100000000E-03 0. -1.
</event>
<event>
 8    1  0.1123285E+005  0.1043930E+01  0.7957747E-01            NaN
         13   -1    0    0    0    0  0.00000000000E+00  0.00000000000E+00  0.74505805969E-08  0.10566000000E+00  0.10566000000E+00 0. -1.
     999900   -1    0    0    0    0 -0.00000000000E+00 -0.00000000000E+00 -0.74505805969E-08  0.93827000000E+00  0.93827000000E+00 0. -1.
     999902    2    1    2    0    0 -0.12214529928E-02  0.10824409315E-01  0.20485216928E-01  0.10207286230E+01  0.10204649028E+01 0.  0.
     999903    2    3    3    0    0 -0.12372490408E+00  0.24058659571E-01  0.33413474054E-01  0.13205017675E+00  0.20835497130E-01 0.  0.
         14    1    1    2    0    0  0.12214529928E-02 -0.10824409315E-01 -0.20485216928E-01  0.23201377050E-01  0.00000000000E+00 0.  1.
     999901    1    3    3    0    0  0.12250345109E+00 -0.13234250256E-01 -0.12928257126E-01  0.88867844620E+00  0.88000000000E+00 0. -1.
        -11    1    4    4    0    0 -0.27021816511E-01  0.81324367792E-02  0.16201165730E-01  0.32543109679E-01  0.51100000000E-03 0.  1.
         11    1    4    4    0    0 -0.96703087572E-01  0.15926222792E-01  0.17212308324E-01  0.99507067071E-01  0.51100000000E-03 0. -1.
</event>
<event>
 8    1  0.1123285E+005  0.1043930E+01  0.7957747E-01            NaN
         13   -1    0    0    0    0  0.00000000000E+00  0.00000000000E+00  0.74505805969E-08  0.10566000000E+00  0.10566000000E+00 0.  1.
     999900   -1    0    0    0    0 -0.00000000000E+00 -0.00000000000E+00 -0.74505805969E-08  0.93827000000E+00  0.93827000000E+00 0.  1.
     999902    2    1    2    0    0 -0.11774149240E-01  0.20839125356E-01 -0.23734508183E-02  0.10198772870E+01  0.10195936188E+01 0.  0.
     999903    2    3    3    0    0  0.42434868681E-01  0.19917580553E-01  0.11939230080E+00  0.12984000395E+00  0.20161275762E-01 0.  0.
         14    1    1    2    0    0  0.11774149240E-01 -0.20839125356E-01  0.23734508183E-02  0.24052713043E-01  0.00000000000E+00 0.  1.
     999901    1    3    3    0    0 -0.54209017921E-01  0.92154480264E-03 -0.12176575162E+00  0.89003728300E+00  0.88000000000E+00 0.  1.
        -11    1    4    4    0    0  0.86906791488E-02  0.13119221117E-01  0.49238200529E-01  0.51694326373E-01  0.51100000000E-03 0. -1.
         11    1    4    4    0    0  0.33744189532E-01  0.67983594361E-02  0.70154100274E-01  0.78145677581E-01  0.51100000000E-03 0.  1.
</event>
<event>
 8    1  0.1123285E+005  0.1043930E+01  0.7957747E-01            NaN
         13   -1    0    0    0    0  0.00000000000E+00  0.00000000000E+00  0.74505805969E-08  0.10566000000E+00  0.10566000000E+00 0.  1.
     999900   -1    0    0    0    0 -0.00000000000E+00 -0.00000000000E+00 -0.74505805969E-08  0.93827000000E+00  0.93827000000E+00 0.  1.
     999902    2    1    2    0    0 -0.59982420666E-03 -0.22358332665E-01 -0.54474235264E-02  0.10209098077E+01  0.10206502370E+01 0.  0.
     999903    2    3    3    0    0 -0.60414359776E-01 -0.10409951901E-01  0.11391115328E+00  0.13075981345E+00  0.19081823989E-01 0.  0.
         14    1    1    2    0    0  0.59982420666E-03  0.22358332665E-01  0.54474235264E-02  0.23020192260E-01  0.00000000000E+00 0.  1.
     999901    1    3    3    0    0  0.59814535570E-01 -0.11948380764E-01 -0.11935857681E+00  0.89014999429E+00  0.88000000000E+00 0.  1.
        -11    1    4    4    0    0 -0.15158564236E-01 -0.19675740246E-02  0.47877097407E-01  0.50260630661E-01  0.51100000000E-03 0.  1.
         11    1    4    4    0    0 -0.45255795540E-01 -0.84423778763E-02  0.66034055875E-01  0.80499182794E-01  0.51100000000E-03 0. -1.
</event>
<event>
 8    1  0.1123285E+005  0.1043930E+01  0.7957747E-01            NaN
         13   -1    0    0    0    0  0.00000000000E+00  0.00000000000E+00  0.74505805969E-08  0.10566000000E+00  0.10566000000E+00 0. -1.
     999900   -1    0    0    0    0 -0.00000000000E+00 -0.00000000000E+00 -0.74505805969E-08  0.93827000000E+00  0.93827000000E+00 0.  1.
     999902    2    1    2    0    0  0.23484198055E-02  0.23850152534E-01  0.48417104266E-02  0.10194803167E+01  0.10191870924E+01 0.  0.
     999903    2    3    3    0    0  0.23401568787E-02  0.45133069281E-01 -0.12059952989E+00  0.13032989787E+00  0.19979123934E-01 0.  0.
         14    1    1    2    0    0 -0.23484198055E-02 -0.23850152534E-01 -0.48417104266E-02  0.24449683256E-01  0.00000000000E+00 0.  1.
     999901    1    3    3    0    0  0.82629267860E-05 -0.21282916748E-01  0.12544124031E+00  0.88915041887E+00  0.88000000000E+00 0. -1.
        -11    1    4    4    0    0 -0.44743170999E-02  0.14128708930E-01 -0.61278640607E-01  0.63047385712E-01  0.51100000000E-03 0. -1.
         11    1    4    4    0    0  0.68144739786E-02  0.31004360352E-01 -0.59320889279E-01  0.67282512157E-01  0.51100000000E-03 0.  1.
</event>
<event>
 8    1  0.1123285E+005  0.1043930E+01  0.7957747E-01            NaN
         13   -1    0    0    0    0  0.00000000000E+00  0.00000000000E+00  0.74505805969E-08  0.10566000000E+00  0.10566000000E+00 0. -1.
     999900   -1    0    0    0    0 -0.00000000000E+00 -0.00000000000E+00 -0.74505805969E-08  0.93827000000E+00  0.93827000000E+00 0.  1.
     999902    2    1    2    0    0  0.27157059198E-02 -0.18123807797E-01 -0.12566157661E-01  0.10217093838E+01  0.10214677230E+01 0.  0.
     999903    2    3    3    0    0  0.21386797285E-01 -0.94320734740E-01 -0.91474894827E-01  0.13470252351E+00  0.20574677559E-01 0.  0.
         14    1    1    2    0    0 -0.27157059198E-02  0.18123807797E-01  0.12566157661E-01  0.22220616239E-01  0.00000000000E+00 0. -1.
     999901    1    3    3    0    0 -0.18671091365E-01  0.76196926943E-01  0.78908737166E-01  0.88700686025E+00  0.88000000000E+00 0. -1.
        -11    1    4    4    0    0  0.12184280131E-02 -0.49073110328E-01 -0.50284858906E-01  0.70274340127E-01  0.51100000000E-03 0.  1.
         11    1    4    4    0    0  0.20168369272E-01 -0.45247624412E-01 -0.41190035921E-01  0.64428183385E-01  0.51100000000E-03 0. -1.
</event>
<event>
 8    1  0.1123285E+005  0.1043930E+01  0.7957747E-01            NaN
         13   -1    0    0    0    0  0.00000000000E+00  0.00000000000E+00  0.74505805969E-08  0.10566000000E+00  0.10566000000E+00 0. -1.
     999900   -1    0    0    0    0 -0.00000000000E+00 -0.00000000000E+00 -0.74505805969E-08  0.93827000000E+00  0.93827000000E+00 0. -1.
     999902    2    1    2    0    0 -0.13058441305E-01 -0.20201912205E-01 -0.12056884814E-03  0.10198747577E+01  0.10195910291E+01 0.  0.
     999903    2    3    3    0    0  0.11690096134E+00 -0.42210867417E-01  0.30344056361E-01  0.12953665683E+00  0.20282791107E-01 0.  0.
         14    1    1    2    0    0  0.13058441305E-01  0.20201912205E-01  0.12056884814E-03  0.24055242316E-01  0.00000000000E+00 0. -1.
     999901    1    3    3    0    0 -0.12995940265E+00  0.22008955212E-01 -0.30464625209E-01  0.89033810086E+00  0.88000000000E+00 0.  1.
        -11    1    4    4    0    0  0.45506703193E-01 -0.20702989671E-01  0.29005633461E-02  0.50081415770E-01  0.51100000000E-03 0.  1.
         11    1    4    4    0    0  0.71394258149E-01 -0.21507877746E-01  0.27443493015E-01  0.79455241058E-01  0.51100000000E-03 0. -1.
</event>
<event>
 8    1  0.1123285E+005  0.1043930E+01  0.7957747E-01            NaN
         13   -1    0    0    0    0  0.00000000000E+00  0.00000000000E+00  0.74505805969E-08  0.10566000000E+00  0.10566000000E+00 0.  1.
     999900   -1    0    0    0    0 -0.00000000000E+00 -0.00000000000E+00 -0.74505805969E-08  0.93827000000E+00  0.93827000000E+00 0.  1.
     999902    2    1    2    0    0 -0.22635929988E-01  0.53847533564E-03 -0.78744890528E-02  0.10199574561E+01  0.10196756982E+01 0.  0.
     999903    2    3    3    0    0 -0.91338816395E-01  0.80183436109E-01 -0.49394063614E-01  0.13272170310E+00  0.20077702699E-01 0.  0.
         14    1    1    2    0    0  0.22635929988E-01 -0.53847533564E-03  0.78744890528E-02  0.23972543877E-01  0.00000000000E+00 0.  1.
     999901    1    3    3    0    0  0.68702886407E-01 -0.79644960774E-01  0.41519574561E-01  0.88723575303E+00  0.88000000000E+00 0. -1.
        -11    1    4    4    0    0 -0.54670940300E-01  0.36457420949E-01 -0.21054266990E-01  0.69004337074E-01  0.51100000000E-03 0. -1.
         11    1    4    4    0    0 -0.36667876096E-01  0.43726015160E-01 -0.28339796624E-01  0.63717366022E-01  0.51100000000E-03 0.  1.
</event>
<event>
 8    1  0.1123285E+005  0.1043930E+01  0.7957747E-01            NaN
         13   -1    0    0    0    0  0.00000000000E+00  0.00000000000E+00  0.74505805969E-08  0.10566000000E+00  0.10566000000E+00 0. -1.
     999900   -1    0    0    0    0 -0.00000000000E+00 -0.00000000000E+00 -0.74505805969E-08  0.93827000000E+00  0.93827000000E+00 0.  1.
     999902    2    1    2    0    0  0.20412489144E-01 -0.13851289687E-01 -0.61183125790E-02  0.10185142236E+01  0.10181970645E+01 0.  0.
     999903    2    3    3    0    0 -0.87189461202E-01 -0.78374467247E-01  0.47457783803E-01  0.12800211353E+00  0.19691129036E-01 0.  0.
         14    1    1    2    0    0 -0.20412489144E-01  0.13851289687E-01  0.61183125790E-02  0.25415776358E-01  0.00000000000E+00 0. -1.
     999901    1    3    3    0    0  0.10760195035E+00  0.64523177560E-01 -0.53576096382E-01  0.89051211012E+00  0.88000000000E+00 0.  1.
        -11    1    4    4    0    0 -0.56670389377E-01 -0.52326670933E-01  0.21017847996E-01  0.79947636478E-01  0.51100000000E-03 0. -1.
         11    1    4    4    0    0 -0.30519071825E-01 -0.26047796313E-01  0.26439935807E-01  0.48054477047E-01  0.51100000000E-03 0.  1.
</event>
<event>
 8    1  0.1123285E+005  0.1043930E+01  0.7957747E-01            NaN
         13   -1    0    0    0    0  0.00000000000E+00  0.00000000000E+00  0.74505805969E-08  0.10566000000E+00  0.10566000000E+00 0. -1.
     999900   -1    0    0    0    0 -0.00000000000E+00 -0.00000000000E+00 -0.74505805969E-08  0.93827000000E+00  0.93827000000E+00 0.  1.
     999902    2    1    2    0    0  0.22664795114E-01  0.68725072676E-02  0.38949002408E-02  0.10199280305E+01  0.10196455721E+01 0.  0.
     999903    2    3    3    0    0  0.67658676677E-02  0.12677879825E+00 -0.27091145925E-01  0.13111397254E+00  0.18393013758E-01 0.  0.
         14    1    1    2    0    0 -0.22664795114E-01 -0.68725072676E-02 -0.38949002408E-02  0.24001969535E-01  0.00000000000E+00 0. -1.
     999901    1    3    3    0    0  0.15898927446E-01 -0.11990629099E+00  0.30986046166E-01  0.88881405793E+00  0.88000000000E+00 0. -1.
        -11    1    4    4    0    0  0.14784234342E-02  0.11642739803E+00 -0.22421515955E-01  0.11857702243E+00  0.51100000000E-03 0. -1.
         11    1    4    4    0    0  0.52874442335E-02  0.10351400220E-01 -0.46696299706E-02  0.12536950112E-01  0.51100000000E-03 0.  1.
</event>
<event>
 8    1  0.1123285E+005  0.1043930E+01  0.7957747E-01            NaN
         13   -1    0    0    0    0  0.00000000000E+00  0.00000000000E+00  0.74505805969E-08  0.10566000000E+00  0.10566000000E+00 0. -1.
     999900   -1    0    0    0    0 -0.00000000000E+00 -0.00000000000E+00 -0.74505805969E-08  0.93827000000E+00  0.93827000000E+00 0.  1.
     999902    2    1    2    0    0 -0.88365987579E-02 -0.74478123468E-02  0.20854579314E-01  0.10200874149E+01  0.10198087395E+01 0.  0.
     999903    2    3    3    0    0  0.12204941683E+00 -0.24435776591E-01 -0.27333825007E-01  0.12894103953E+00  0.19633806562E-01 0.  0.
         14    1    1    2    0    0  0.88365987579E-02  0.74478123468E-02 -0.20854579314E-01  0.23842585110E-01  0.00000000000E+00 0.  1.
     999901    1    3    3    0    0 -0.13088601559E+00  0.16987964244E-01  0.48188404321E-01  0.89114637536E+00  0.88000000000E+00 0. -1.
        -11    1    4    4    0    0  0.98192736172E-01 -0.13926139061E-01 -0.27305815153E-01  0.10286699883E+00  0.51100000000E-03 0. -1.
         11    1    4    4    0    0  0.23856680656E-01 -0.10509637530E-01 -0.28009854479E-04  0.26074040701E-01  0.51100000000E-03 0.  1.
</event>
<event>
 8    1  0.1123285E+005  0.1043930E+01  0.7957747E-01            NaN
         13   -1    0    0    0    0  0.00000000000E+00  0.00000000000E+00  0.74505805969E-08  0.10566000000E+00  0.10566000000E+00 0.  1.
     999900   -1    0    0    0    0 -0.00000000000E+00 -0.00000000000E+00 -0.74505805969E-08  0.93827000000E+00  0.93827000000E+00 0.  1.
     999902    2    1    2    0    0 -0.53239792342E-02 -0.12919283231E-01 -0.20975760557E-01  0.10187261280E+01  0.10184143011E+01 0.  0.
     999903    2    3    3    0    0 -0.34160526255E-01  0.11532636729E+00  0.35982375501E-01  0.12714173904E+00  0.20079290660E-01 0.  0.
         14    1    1    2    0    0  0.53239792342E-02  0.12919283231E-01  0.20975760557E-01  0.25203872025E-01  0.00000000000E+00 0.  1.
     999901    1    3    3    0    0  0.28836547021E-01 -0.12824565052E+00 -0.56958136058E-01  0.89158438893E+00  0.88000000000E+00 0.  1.
        -11    1    4    4    0    0 -0.11079556576E-01  0.69411062634E-01  0.24868447144E-01  0.74561068758E-01  0.51100000000E-03 0.  1.
         11    1    4    4    0    0 -0.23080969679E-01  0.45915304659E-01  0.11113928357E-01  0.52580670286E-01  0.51100000000E-03 0. -1.
</event>
<event>
 8    1  0.1123285E+005  0.1043930E+01  0.7957747E-01            NaN
         13   -1    0    0    0    0  0.00000000000E+00  0.00000000000E+00  0.74505805969E-08  0.10566000000E+00  0.10566000000E+00 0.  1.
     999900   -1    0    0    0    0 -0.00000000000E+00 -0.00000000000E+00 -0.74505805969E-08  0.93827000000E+00  0.93827000000E+00 0.  1.
     999902    2    1    2    0    0  0.11727126154E-01 -0.14932606531E-01  0.13297547494E-01  0.10207495558E+01  0.10204863167E+01 0.  0.
     999903    2    3    3    0    0  0.62163027479E-02  0.70413977017E-02 -0.12652192141E+00  0.12942317900E+00  0.25580050075E-01 0.  0.
         14    1    1    2    0    0 -0.11727126154E-01  0.14932606531E-01 -0.13297547494E-01  0.23180444236E-01  0.00000000000E+00 0. -1.
     999901    1    3    3    0    0  0.55108234060E-02 -0.21974004233E-01  0.13981946891E+00  0.89132637677E+00  0.88000000000E+00 0. -1.
        -11    1    4    4    0    0  0.76628789840E-02  0.78108873362E-02 -0.19333745282E-01  0.22221262407E-01  0.51100000000E-03 0. -1.
         11    1    4    4    0    0 -0.14465762361E-02 -0.76948963455E-03 -0.10718817613E+00  0.10720191659E+00  0.51100000000E-03 0.  1.
</event>
<event>
 8    1  0.1123285E+005  0.1043930E+01  0.7957747E-01            NaN
         13   -1    0    0    0    0  0.00000000000E+00  0.00000000000E+00  0.74505805969E-08  0.10566000000E+00  0.10566000000E+00 0.  1.
     999900   -1    0    0    0    0 -0.00000000000E+00 -0.00000000000E+00 -0.74505805969E-08  0.93827000000E+00  0.93827000000E+00 0. -1.
     999902    2    1    2    0    0  0.47330143577E-02 -0.23177860714E-01 -0.16818182882E-02  0.10202141158E+01  0.10199384289E+01 0.  0.
     999903    2    3    3    0    0  0.93295687731E-02 -0.94716719641E-01 -0.90481172196E-01  0.13284482291E+00  0.20065059663E-01 0.  0.
         14    1    1    2    0    0 -0.47330143577E-02  0.23177860714E-01  0.16818182882E-02  0.23715884233E-01  0.00000000000E+00 0. -1.
     999901    1    3    3    0    0 -0.45965544155E-02  0.71538858928E-01  0.88799353908E-01  0.88736929286E+00  0.88000000000E+00 0.  1.
        -11    1    4    4    0    0  0.12837675649E-01 -0.54031745669E-01 -0.60875800103E-01  0.82403638361E-01  0.51100000000E-03 0. -1.
         11    1    4    4    0    0 -0.35081068758E-02 -0.40684973973E-01 -0.29605372094E-01  0.50441184550E-01  0.51100000000E-03 0.  1.
</event>
<event>
 8    1  0.1123285E+005  0.1043930E+01  0.7957747E-01            NaN
         13   -1    0    0    0    0  0.00000000000E+00  0.00000000000E+00  0.74505805969E-08  0.10566000000E+00  0.10566000000E+00 0. -1.
     999900   -1    0    0    0    0 -0.00000000000E+00 -0.00000000000E+00 -0.74505805969E-08  0.93827000000E+00  0.93827000000E+00 0.  1.
     999902    2    1    2    0    0  0.25063884598E-02  0.99669904492E-02 -0.21539973406E-01  0.10200638454E+01  0.10197846122E+01 0.  0.
     999903    2    3    3    0    0 -0.60116220429E-01 -0.81563466996E-01  0.75096398731E-01  0.12785422640E+00  0.20992260477E-01 0.  0.
         14    1    1    2    0    0 -0.25063884598E-02 -0.99669904492E-02  0.21539973406E-01  0.23866154614E-01  0.00000000000E+00 0. -1.
     999901    1    3    3    0    0  0.62622608889E-01  0.91530457445E-01 -0.96636372137E-01  0.89220961898E+00  0.88000000000E+00 0.  1.
        -11    1    4    4    0    0 -0.39076989744E-01 -0.65701810584E-01  0.49221640499E-01  0.90921779876E-01  0.51100000000E-03 0.  1.
         11    1    4    4    0    0 -0.21039230685E-01 -0.15861656412E-01  0.25874758232E-01  0.36932446528E-01  0.51100000000E-03 0. -1.
</event>
<event>
 8    1  0.1123285E+005  0.1043930E+01  0.7957747E-01            NaN
         13   -1    0    0    0    0  0.00000000000E+00  0.00000000000E+00  0.74505805969E-08  0.10566000000E+00  0.10566000000E+00 0.  1.
     999900   -1    0    0    0    0 -0.00000000000E+00 -0.00000000000E+00 -0.74505805969E-08  0.93827000000E+00  0.93827000000E+00 0.  1.
     999902    2    1    2    0    0 -0.79181472971E-02 -0.23355757897E-01  0.97490333294E-02  0.10174114756E+01  0.10170658182E+01 0.  0.
     999903    2    3    3    0    0  0.17238247875E-01 -0.63298215264E-01  0.11081047596E+00  0.13037051869E+00  0.20339353850E-01 0.  0.
         14    1    1    2    0    0  0.79181472971E-02  0.23355757897E-01 -0.97490333294E-02  0.26518524364E-01  0.00000000000E+00 0. -1.
     999901    1    3    3    0    0 -0.25156395172E-01  0.39942457367E-01 -0.10106144263E+00  0.88704095695E+00  0.88000000000E+00 0.  1.
        -11    1    4    4    0    0  0.13565033080E-01 -0.21700388654E-01  0.30232429368E-01  0.39612850146E-01  0.51100000000E-03 0.  1.
         11    1    4    4    0    0  0.36732147950E-02 -0.41597826611E-01  0.80578046591E-01  0.90757668541E-01  0.51100000000E-03 0. -1.
</event>
<event>
 8    1  0.1123285E+005  0.1043930E+01  0.7957747E-01            NaN
         13   -1    0    0    0    0  0.00000000000E+00  0.00000000000E+00  0.74505805969E-08  0.10566000000E+00  0.10566000000E+00 0.  1.
     999900   -1    0    0    0    0 -0.00000000000E+00 -0.00000000000E+00 -0.74505805969E-08  0.93827000000E+00  0.93827000000E+00 0. -1.
     999902    2    1    2    0    0 -0.56015783498E-02 -0.18943744171E-01  0.12068406957E-01  0.10207807112E+01  0.10205181874E+01 0.  0.
     999903    2    3    3    0    0 -0.14101737163E-01 -0.80571165491E-02  0.13020426592E+00  0.13277910509E+00  0.20331349401E-01 0.  0.
         14    1    1    2    0    0  0.56015783498E-02  0.18943744171E-01 -0.12068406957E-01  0.23149288752E-01  0.00000000000E+00 0. -1.
     999901    1    3    3    0    0  0.85001588128E-02 -0.10886627622E-01 -0.11813585896E+00  0.88800160615E+00  0.88000000000E+00 0. -1.
        -11    1    4    4    0    0 -0.11663554323E-02 -0.15647209337E-02  0.90393184821E-01  0.90415693990E-01  0.51100000000E-03 0. -1.
         11    1    4    4    0    0 -0.12935381730E-01 -0.64923956153E-02  0.39811081096E-01  0.42363411104E-01  0.51100000000E-03 0.  1.
</event>
<event>
 8    1  0.1123285E+005  0.1043930E+01  0.7957747E-01            NaN
         13   -1    0    0    0    0  0.00000000000E+00  0.00000000000E+00  0.74505805969E-08  0.10566000000E+00  0.10566000000E+00 0. -1.
     999900   -1    0    0    0    0 -0.00000000000E+00 -0.00000000000E+00 -0.74505805969E-08  0.93827000000E+00  0.93827000000E+00 0.  1.
     999902    2    1    2    0    0  0.22540390936E-01  0.52457312812E-03 -0.60219330611E-02  0.10205931605E+01  0.10203263160E+01 0.  0.
     999903    2    3    3    0    0  0.73073971739E-01 -0.98933841677E-01 -0.45604009210E-01  0.13266728531E+00  0.19828579387E-01 0.  0.
         14    1    1    2    0    0 -0.22540390936E-01 -0.52457312812E-03  0.60219330611E-02  0.23336839510E-01  0.00000000000E+00 0. -1.
     999901    1    3    3    0    0 -0.50533580803E-01  0.99458414805E-01  0.39582076149E-01  0.88792587518E+00  0.88000000000E+00 0. -1.
        -11    1    4    4    0    0  0.66076657756E-01 -0.89604230662E-01 -0.47121929962E-01  0.12089574127E+00  0.51100000000E-03 0. -1.
         11    1    4    4    0    0  0.69973139831E-02 -0.93296110146E-02  0.15179207517E-02  0.11771544039E-01  0.51100000000E-03 0.  1.
</event>
<event>
 8    1  0.1123285E+005  0.1043930E+01  0.7957747E-01            NaN
         13   -1    0    0    0    0  0.00000000000E+00  0.00000000000E+00  0.74505805969E-08  0.10566000000E+00  0.10566000000E+00 0.  1.
     999900   -1    0    0    0    0 -0.00000000000E+00 -0.00000000000E+00 -0.74505805969E-08  0.93827000000E+00  0.93827000000E+00 0.  1.
     999902    2    1    2    0    0 -0.51428564694E-03  0.16686885071E-01 -0.19904004331E-01  0.10179514317E+01  0.10176198855E+01 0.  0.
     999903    2    3    3    0    0 -0.11797878120E+00 -0.43711251756E-01  0.91478354314E-02  0.12762011581E+00  0.19327305049E-01 0.  0.
         14    1    1    2    0    0  0.51428564694E-03 -0.16686885071E-01  0.19904004331E-01  0.25978568311E-01  0.00000000000E+00 0.  1.
     999901    1    3    3    0    0  0.11746449556E+00  0.60398136828E-01 -0.29051839762E-01  0.89033131588E+00  0.88000000000E+00 0.  1.
        -11    1    4    4    0    0 -0.88377966246E-01 -0.26436314386E-01  0.12869388273E-01  0.93141966437E-01  0.51100000000E-03 0. -1.
         11    1    4    4    0    0 -0.29600814959E-01 -0.17274937370E-01 -0.37215528418E-02  0.34478149369E-01  0.51100000000E-03 0.  1.
</event>
<event>
 8    1  0.1123285E+005  0.1043930E+01  0.7957747E-01            NaN
         13   -1    0    0    0    0  0.00000000000E+00  0.00000000000E+00  0.74505805969E-08  0.10566000000E+00  0.10566000000E+00 0.  1.
     999900   -1    0    0    0    0 -0.00000000000E+00 -0.00000000000E+00 -0.74505805969E-08  0.93827000000E+00  0.93827000000E+00 0. -1.
     999902    2    1    2    0    0  0.41556926994E-02 -0.54256208496E-02 -0.21559719875E-01  0.10213130005E+01  0.10210625428E+01 0.  0.
     999903    2    3    3    0    0 -0.12800865423E-01  0.12829039222E+00  0.38568756880E-02  0.13068765824E+00  0.21026213054E-01 0.  0.
         14    1    1    2    0    0 -0.41556926994E-02  0.54256208496E-02  0.21559719875E-01  0.22616999459E-01  0.00000000000E+00 0.  1.
     999901    1    3    3    0    0  0.16956558122E-01 -0.13371601307E+00 -0.25416595563E-01  0.89062534230E+00  0.88000000000E+00 0. -1.
        -11    1    4    4    0    0 -0.15718420940E-01  0.60759498176E-01 -0.23628963493E-02  0.62806287708E-01  0.51100000000E-03 0.  1.
         11    1    4    4    0    0  0.29175555167E-02  0.67530894044E-01  0.62197720373E-02  0.67881370535E-01  0.51100000000E-03 0. -1.
</event>
<event>
 8    1  0.1123285E+005  0.1043930E+01  0.7957747E-01            NaN
         13   -1    0    0    0    0  0.00000000000E+00  0.00000000000E+00  0.74505805969E-08  0.10566000000E+00  0.10566000000E+00 0. -1.
     999900   -1    0    0    0    0 -0.00000000000E+00 -0.00000000000E+00 -0.74505805969E-08  0.93827000000E+00  0.93827000000E+00 0. -1.
     999902    2    1    2    0    0  0.75437522913E-02 -0.14578495189E-01 -0.17270169249E-01  0.10201035553E+01  0.10198252615E+01 0.  0.
     999903    2    3    3    0    0  0.37955811063E-01  0.11493855893E+00 -0.42168908215E-01  0.12975558523E+00  0.20168766818E-01 0.  0.
         14    1    1    2    0    0 -0.75437522913E-02  0.14578495189E-01  0.17270169249E-01  0.23826444689E-01  0.00000000000E+00 0. -1.
     999901    1    3    3    0    0 -0.30412058772E-01 -0.12951705412E+00  0.24898738965E-01  0.89034797008E+00  0.88000000000E+00 0. -1.
        -11    1    4    4    0    0  0.43656344161E-03  0.11449851525E-01 -0.96014805126E-02  0.14957915517E-01  0.51100000000E-03 0. -1.
         11    1    4    4    0    0  0.37519247621E-01  0.10348870741E+00 -0.32567427702E-01  0.11479766971E+00  0.51100000000E-03 0.  1.
</event>
<event>
 8    1  0.1123285E+005  0.1043930E+01  0.7957747E-01            NaN
         13   -1    0    0    0    0  0.00000000000E+00  0.00000000000E+00  0.74505805969E-08  0.10566000000E+00  0.10566000000E+00 0.  1.
     999900   -1    0    0    0    0 -0.00000000000E+00 -0.00000000000E+00 -0.74505805969E-08  0.93827000000E+00  0.93827000000E+00 0. -1.
     999902    2    1    2    0    0  0.50155679713E-02 -0.21630337520E-01 -0.70986613373E-02  0.10206186634E+01  0.10203524085E+01 0.  0.
     999903    2    3    3    0    0  0.35083297902E-01 -0.12593842255E+00  0.17828696917E-01  0.13359802201E+00  0.20958172299E-01 0.  0.
         14    1    1    2    0    0 -0.50155679713E-02  0.21630337520E-01  0.70986613373E-02  0.23311336643E-01  0.00000000000E+00 0.  1.
     999901    1    3    3    0    0 -0.30067729931E-01  0.10430808503E+00 -0.24927358255E-01  0.88702064135E+00  0.88000000000E+00 0.  1.
        -11    1    4    4    0    0  0.29365461031E-01 -0.77429895811E-01  0.18019107574E-01  0.84750624928E-01  0.51100000000E-03 0.  1.
         11    1    4    4    0    0  0.57178368710E-02 -0.48508526736E-01 -0.19041065655E-03  0.48847397083E-01  0.51100000000E-03 0. -1.
</event>
<event>
 8    1  0.1123285E+005  0.1043930E+01  0.7957747E-01            NaN
         13   -1    0    0    0    0  0.00000000000E+00  0.00000000000E+00  0.74505805969E-08  0.10566000000E+00  0.10566000000E+00 0.  1.
     999900   -1    0    0    0    0 -0.00000000000E+00 -0.00000000000E+00 -0.74505805969E-08  0.93827000000E+00  0.93827000000E+00 0.  1.
     999902    2    1    2    0    0  0.91021655309E-02  0.68579252604E-02  0.20662335852E-01  0.10203331214E+01  0.10200602266E+01 0.  0.
     999903    2    3    3    0    0 -0.82078593552E-01 -0.19219523735E-01  0.99143582107E-01  0.13176502037E+00  0.20646673055E-01 0.  0.
         14    1    1    2    0    0 -0.91021655309E-02 -0.68579252604E-02 -0.20662335852E-01  0.23596878588E-01  0.00000000000E+00 0. -1.
     999901    1    3    3    0    0  0.91180759083E-01  0.26077448995E-01 -0.78481246255E-01  0.88856810104E+00  0.88000000000E+00 0.  1.
        -11    1    4    4    0    0 -0.52414065481E-01 -0.21210763688E-01  0.58017019891E-01  0.81014606550E-01  0.51100000000E-03 0. -1.
         11    1    4    4    0    0 -0.29664528071E-01  0.19912399537E-02  0.41126562217E-01  0.50750413821E-01  0.51100000000E-03 0.  1.
</event>
<event>
 8    1  0.1123285E+005  0.1043930E+01  0.7957747E-01            NaN
         13   -1    0    0    0    0  0.00000000000E+00  0.00000000000E+00  0.74505805969E-08  0.10566000000E+00  0.10566000000E+00 0. -1.
     999900   -1    0    0    0    0 -0.00000000000E+00 -0.00000000000E+00 -0.74505805969E-08  0.93827000000E+00  0.93827000000E+00 0. -1.
     999902    2    1    2    0    0  0.46936909009E-03  0.21414960006E-01  0.85361371339E-02  0.10208716727E+01  0.10206112314E+01 0.  0.
     999903    2    3    3    0    0  0.13680482547E-01  0.47180039238E-01  0.12206593352E+00  0.13310628283E+00  0.20101708844E-01 0.  0.
         14    1    1    2    0    0 -0.46936909009E-03 -0.21414960006E-01 -0.85361371339E-02  0.23058327272E-01  0.00000000000E+00 0.  1.
     999901    1    3    3    0    0 -0.13211113457E-01 -0.25765079232E-01 -0.11352979639E+00  0.88776538989E+00  0.88000000000E+00 0. -1.
        -11    1    4    4    0    0  0.17888365241E-01  0.41059668271E-01  0.94902865644E-01  0.10494143604E+00  0.51100000000E-03 0.  1.
         11    1    4    4    0    0 -0.42078826931E-02  0.61203709677E-02  0.27163067876E-01  0.28164846795E-01  0.51100000000E-03 0. -1.
</event>
<event>
 8    1  0.1123285E+005  0.1043930E+01  0.7957747E-01            NaN
         13   -1    0    0    0    0  0.00000000000E+00  0.00000000000E+00  0.74505805969E-08  0.10566000000E+00  0.10566000000E+00 0. -1.
     999900   -1    0    0    0    0 -0.00000000000E+00 -0.00000000000E+00 -0.74505805969E-08  0.93827000000E+00  0.93827000000E+00 0. -1.
     999902    2    1    2    0    0  0.24200191179E-02  0.67484804282E-02  0.22700851215E-01  0.10201239687E+01  0.10198461572E+01 0.  0.
     999903    2    3    3    0    0 -0.26423345675E-01 -0.99514575798E-01  0.79350698060E-01  0.13145474904E+00  0.19556936626E-01 0.  0.
         14    1    1    2    0    0 -0.24200191179E-02 -0.67484804282E-02 -0.22700851215E-01  0.23806031305E-01  0.00000000000E+00 0.  1.
     999901    1    3    3    0    0  0.28843364793E-01  0.10626305623E+00 -0.56649846845E-01  0.88866921965E+00  0.88000000000E+00 0. -1.
        -11    1    4    4    0    0 -0.10328583560E-01 -0.37928692626E-01  0.42529378106E-01  0.57916098675E-01  0.51100000000E-03 0.  1.
         11    1    4    4    0    0 -0.16094762115E-01 -0.61585883172E-01  0.36821319954E-01  0.73538650367E-01  0.51100000000E-03 0. -1.
</event>
<event>
 8    1  0.1123285E+005  0.1043930E+01  0.7957747E-01            NaN
         13   -1    0    0    0    0  0.00000000000E+00  0.00000000000E+00  0.74505805969E-08  0.10566000000E+00  0.10566000000E+00 0. -1.
     999900   -1    0    0    0    0 -0.00000000000E+00 -0.00000000000E+00 -0.74505805969E-08  0.93827000000E+00  0.93827000000E+00 0.  1.
     999902    2    1    2    0    0  0.17810875374E-01  0.56530399920E-03  0.98851024303E-02  0.10235520192E+01  0.10233491457E+01 0.  0.
     999903    2    3    3    0    0  0.59092180573E-02  0.13053272240E+00 -0.18216163351E-01  0.13348299919E+00  0.20302019365E-01 0.  0.
         14    1    1    2    0    0 -0.17810875374E-01 -0.56530399920E-03 -0.98851024303E-02  0.20377980770E-01  0.00000000000E+00 0.  1.
     999901    1    3    3    0    0  0.11901657316E-01 -0.12996741840E+00  0.28101265781E-01  0.89006902004E+00  0.88000000000E+00 0. -1.
        -11    1    4    4    0    0  0.13297895360E-01  0.70524252522E-01 -0.10210886522E-01  0.72491568746E-01  0.51100000000E-03 0. -1.
         11    1    4    4    0    0 -0.73886773030E-02  0.60008469881E-01 -0.80052768292E-02  0.60991430446E-01  0.51100000000E-03 0.  1.
</event>
<event>
 8    1  0.1294949E+005  0.1043930E+01  0.7957747E-01            NaN
         13   -1    0    0    0    0  0.00000000000E+00  0.00000000000E+00  0.74505805969E-08  0.10566000000E+00  0.10566000000E+00 0. -1.
     999900   -1    0    0    0    0 -0.00000000000E+00 -0.00000000000E+00 -0.74505805969E-08  0.93827000000E+00  0.93827000000E+00 0.  1.
     999902    2    1    2    0    0 -0.18993558726E-01  0.12003564687E-02 -0.13737208667E-01  0.10204585912E+01  0.10201886244E+01 0.  0.
     999903    2    3    3    0    0  0.67667960942E-01 -0.11650279765E-01 -0.10943144184E+00  0.13094594706E+00  0.21375655121E-01 0.  0.
         14    1    1    2    0    0  0.18993558726E-01 -0.12003564687E-02  0.13737208667E-01  0.23471408792E-01  0.00000000000E+00 0. -1.
     999901    1    3    3    0    0 -0.86661519668E-01  0.12850636233E-01  0.95694233168E-01  0.88951264415E+00  0.88000000000E+00 0.  1.
        -11    1    4    4    0    0  0.14845986559E-01  0.34777150518E-02 -0.37067660884E-01  0.40084540952E-01  0.51100000000E-03 0.  1.
         11    1    4    4    0    0  0.52821974383E-01 -0.15127994816E-01 -0.72363780951E-01  0.90861406105E-01  0.51100000000E-03 0. -1.
</event>
<event>
 8    1  0.1123285E+005  0.1043930E+01  0.7957747E-01            NaN
         13   -1    0    0    0    0  0.00000000000E+00  0.00000000000E+00  0.74505805969E-08  0.10566000000E+00  0.10566000000E+00 0.  1.
     999900   -1    0    0    0    0 -0.00000000000E+00 -0.00000000000E+00 -0.74505805969E-08  0.93827000000E+00  0.93827000000E+00 0. -1.
     999902    2    1    2    0    0  0.68280202707E-02 -0.16838545063E-01  0.14411928511E-01  0.10207381449E+01  0.10204746436E+01 0.  0.
     999903    2    3    3    0    0 -0.63094496320E-01  0.13878807038E-01 -0.10942906095E+00  0.12879122677E+00  0.20950512191E-01 0.  0.
         14    1    1    2    0    0 -0.68280202707E-02  0.16838545063E-01 -0.14411928511E-01  0.23191855123E-01  0.00000000000E+00 0. -1.
     999901    1    3    3    0    0  0.69922516591E-01 -0.30717352101E-01  0.12384098947E+00  0.89194691811E+00  0.88000000000E+00 0.  1.
        -11    1    4    4    0    0 -0.42936951829E-01  0.19211215062E-01 -0.77105929365E-01  0.90322965411E-01  0.51100000000E-03 0.  1.
         11    1    4    4    0    0 -0.20157544491E-01 -0.53324080238E-02 -0.32323131590E-01  0.38468261359E-01  0.51100000000E-03 0. -1.
</event>
<event>
 7    1  0.1123285E+005  0.1043930E+01  0.7957747E-01            NaN
         13   -1    0    0    0    0  0.00000000000E+00  0.00000000000E+00  0.74505805969E-08  0.10566000000E+00  0.10566000000E+00 0. -1.
     999900   -1    0    0    0    0 -0.00000000000E+00 -0.00000000000E+00 -0.74505805969E-08  0.93827000000E+00  0.93827000000E+00 0.  1.
     999903    2    1    2    0    0  0.22641961537E-01 -0.16522440631E-01  0.61844774519E-01  0.71060812725E-01  0.20957421197E-01 0.  0.
         14    1    1    2    0    0  0.33936258488E-01 -0.55760354141E-01 -0.59152916853E-01  0.88090602826E-01  0.00000000000E+00 0.  1.
     999901    1    1    2    0    0 -0.56578220025E-01  0.72282794772E-01 -0.26918576659E-02  0.88477858445E+00  0.88000000000E+00 0.  1.
        -11    1    3    3    0    0  0.17132291429E-01 -0.70017308192E-03  0.40023880502E-01  0.43545123531E-01  0.51100000000E-03 0.  1.
         11    1    3    3    0    0  0.55096701080E-02 -0.15822267549E-01  0.21820894017E-01  0.27515689194E-01  0.51100000000E-03 0. -1.
</event>
<event>
 8    1  0.1123285E+005  0.1043930E+01  0.7957747E-01            NaN
         13   -1    0    0    0    0  0.00000000000E+00  0.00000000000E+00  0.74505805969E-08  0.10566000000E+00  0.10566000000E+00 0.  1.
     999900   -1    0    0    0    0 -0.00000000000E+00 -0.00000000000E+00 -0.74505805969E-08  0.93827000000E+00  0.93827000000E+00 0.  1.
     999902    2    1    2    0    0  0.14965609637E-01 -0.16263015657E-01 -0.81153835769E-02  0.10203861133E+01  0.10201144571E+01 0.  0.
     999903    2    3    3    0    0  0.12883622231E+00 -0.16952160408E-01 -0.20601886152E-01  0.13296124094E+00  0.19186087605E-01 0.  0.
         14    1    1    2    0    0 -0.14965609637E-01  0.16263015657E-01  0.81153835769E-02  0.23543886695E-01  0.00000000000E+00 0. -1.
     999901    1    3    3    0    0 -0.11387061267E+00  0.68914475005E-03  0.12486502575E-01  0.88742487237E+00  0.88000000000E+00 0.  1.
        -11    1    4    4    0    0  0.19131657472E-01  0.18997998609E-02  0.21299507768E-02  0.19350125799E-01  0.51100000000E-03 0. -1.
         11    1    4    4    0    0  0.10970456484E+00 -0.18851960268E-01 -0.22731836929E-01  0.11361111514E+00  0.51100000000E-03 0.  1.
</event>
<event>
 8    1  0.1123285E+005  0.1043930E+01  0.7957747E-01            NaN
         13   -1    0    0    0    0  0.00000000000E+00  0.00000000000E+00  0.74505805969E-08  0.10566000000E+00  0.10566000000E+00 0. -1.
     999900   -1    0    0    0    0 -0.00000000000E+00 -0.00000000000E+00 -0.74505805969E-08  0.93827000000E+00  0.93827000000E+00 0. -1.
     999902    2    1    2    0    0 -0.29868086137E-02 -0.19800533393E-01 -0.82428387023E-03  0.10238885032E+01  0.10236923393E+01 0.  0.
     999903    2    3    3    0    0 -0.27298610076E-01 -0.12702161660E+00 -0.36556993995E-01  0.13632765972E+00  0.19212282508E-01 0.  0.
         14    1    1    2    0    0  0.29868086137E-02  0.19800533393E-01  0.82428387023E-03  0.20041496757E-01  0.00000000000E+00 0.  1.
     999901    1    3    3    0    0  0.24311801462E-01  0.10722108321E+00  0.35732710125E-01  0.88756084352E+00  0.88000000000E+00 0.  1.
        -11    1    4    4    0    0 -0.26178642146E-01 -0.78275069147E-01 -0.24485068035E-01  0.86093480776E-01  0.51100000000E-03 0.  1.
         11    1    4    4    0    0 -0.11199679301E-02 -0.48746547457E-01 -0.12071925960E-01  0.50234178948E-01  0.51100000000E-03 0. -1.
</event>
<event>
 8    1  0.1123285E+005  0.1043930E+01  0.7957747E-01            NaN
         13   -1    0    0    0    0  0.00000000000E+00  0.00000000000E+00  0.74505805969E-08  0.10566000000E+00  0.10566000000E+00 0. -1.
     999900   -1    0    0    0    0 -0.00000000000E+00 -0.00000000000E+00 -0.74505805969E-08  0.93827000000E+00  0.93827000000E+00 0. -1.
     999902    2    1    2    0    0 -0.11207752084E-01  0.19405846335E-01  0.81455064686E-02  0.10200857165E+01  0.10198070010E+01 0.  0.
     999903    2    3    3    0    0  0.12127091935E+00 -0.61429709655E-02 -0.29182273654E-01  0.12902078981E+00  0.32409676564E-01 0.  0.
         14    1    1    2    0    0  0.11207752084E-01 -0.19405846335E-01 -0.81455064686E-02  0.23844283474E-01  0.00000000000E+00 0. -1.
     999901    1    3    3    0    0 -0.13247867144E+00  0.25548817301E-01  0.37327780123E-01  0.89106492671E+00  0.88000000000E+00 0.  1.
        -11    1    4    4    0    0  0.99835115111E-01 -0.30525640610E-02 -0.10535008086E-01  0.10043712398E+00  0.51100000000E-03 0. -1.
         11    1    4    4    0    0  0.21435804242E-01 -0.30904069045E-02 -0.18647265568E-01  0.28583665834E-01  0.51100000000E-03 0.  1.
</event>
<event>
 8    1  0.1123285E+005  0.1043930E+01  0.7957747E-01            NaN
         13   -1    0    0    0    0  0.00000000000E+00  0.00000000000E+00  0.74505805969E-08  0.10566000000E+00  0.10566000000E+00 0. -1.
     999900   -1    0    0    0    0 -0.00000000000E+00 -0.00000000000E+00 -0.74505805969E-08  0.93827000000E+00  0.93827000000E+00 0.  1.
     999902    2    1    2    0    0 -0.14457227250E-01  0.23163367031E-01 -0.11680566137E-02  0.10166002113E+01  0.10162327845E+01 0.  0.
     999903    2    3    3    0    0  0.69509890272E-01  0.87258239524E-01 -0.60203075988E-01  0.12831885782E+00  0.19892051234E-01 0.  0.
         14    1    1    2    0    0  0.14457227250E-01 -0.23163367031E-01  0.11680566137E-02  0.27329788661E-01  0.00000000000E+00 0. -1.
     999901    1    3    3    0    0 -0.83967117522E-01 -0.64094872493E-01  0.59035019374E-01  0.88828135352E+00  0.88000000000E+00 0. -1.
        -11    1    4    4    0    0  0.37878629152E-01  0.62639279870E-01 -0.37481101462E-01  0.82240890176E-01  0.51100000000E-03 0. -1.
         11    1    4    4    0    0  0.31631261120E-01  0.24618959654E-01 -0.22721974526E-01  0.46077967640E-01  0.51100000000E-03 0.  1.
</event>
<event>
 8    1  0.1123285E+005  0.1043930E+01  0.7957747E-01            NaN
         13   -1    0    0    0    0  0.00000000000E+00  0.00000000000E+00  0.74505805969E-08  0.10566000000E+00  0.10566000000E+00 0.  1.
     999900   -1    0    0    0    0 -0.00000000000E+00 -0.00000000000E+00 -0.74505805969E-08  0.93827000000E+00  0.93827000000E+00 0.  1.
     999902    2    1    2    0    0 -0.49248401694E-03  0.20944541024E-01  0.10919969039E-01  0.10203045463E+01  0.10200309824E+01 0.  0.
     999903    2    3    3    0    0  0.35571003717E-01  0.16862778152E-01 -0.12180974666E+00  0.12961132561E+00  0.20293638209E-01 0.  0.
         14    1    1    2    0    0  0.49248401694E-03 -0.20944541024E-01 -0.10919969039E-01  0.23625453711E-01  0.00000000000E+00 0. -1.
     999901    1    3    3    0    0 -0.36063487734E-01  0.40817628721E-02  0.13272971570E+00  0.89069322068E+00  0.88000000000E+00 0. -1.
        -11    1    4    4    0    0  0.20638733040E-02 -0.26278482308E-02 -0.26565816409E-01  0.26780008996E-01  0.51100000000E-03 0. -1.
         11    1    4    4    0    0  0.33507130413E-01  0.19490626383E-01 -0.95243930253E-01  0.10283131661E+00  0.51100000000E-03 0.  1.
</event>
<event>
 8    1  0.1123285E+005  0.1043930E+01  0.7957747E-01            NaN
         13   -1    0    0    0    0  0.00000000000E+00  0.00000000000E+00  0.74505805969E-08  0.10566000000E+00  0.10566000000E+00 0. -1.
     999900   -1    0    0    0    0 -0.00000000000E+00 -0.00000000000E+00 -0.74505805969E-08  0.93827000000E+00  0.93827000000E+00 0. -1.
     999902    2    1    2    0    0 -0.12376191925E-01 -0.17082637425E-01 -0.91839384663E-02  0.10209227978E+01  0.10206635232E+01 0.  0.
     999903    2    3    3    0    0 -0.36388738205E-01 -0.11142043685E-01  0.12332408048E+00  0.13065864141E+00  0.20360902323E-01 0.  0.
         14    1    1    2    0    0  0.12376191925E-01  0.17082637425E-01  0.91839384663E-02  0.23007202214E-01  0.00000000000E+00 0. -1.
     999901    1    3    3    0    0  0.24012546279E-01 -0.59405937405E-02 -0.13250801895E+00  0.89026415637E+00  0.88000000000E+00 0. -1.
        -11    1    4    4    0    0 -0.29518907274E-01 -0.14692135216E-01  0.78121592754E-01  0.84796633774E-01  0.51100000000E-03 0.  1.
         11    1    4    4    0    0 -0.68698309309E-02  0.35500915311E-02  0.45202487730E-01  0.45862007641E-01  0.51100000000E-03 0. -1.
</event>
<event>
 8    1  0.1123285E+005  0.1043930E+01  0.7957747E-01            NaN
         13   -1    0    0    0    0  0.00000000000E+00  0.00000000000E+00  0.74505805969E-08  0.10566000000E+00  0.10566000000E+00 0.  1.
     999900   -1    0    0    0    0 -0.00000000000E+00 -0.00000000000E+00 -0.74505805969E-08  0.93827000000E+00  0.93827000000E+00 0.  1.
     999902    2    1    2    0    0 -0.15166583182E-01  0.32655557354E-02  0.19219192608E-01  0.10192304764E+01  0.10189311545E+01 0.  0.
     999903    2    3    3    0    0 -0.86946475465E-01 -0.18728454386E-01  0.96252181266E-01  0.13268088913E+00  0.20719347044E-01 0.  0.
         14    1    1    2    0    0  0.15166583182E-01 -0.32655557354E-02 -0.19219192608E-01  0.24699523562E-01  0.00000000000E+00 0. -1.
     999901    1    3    3    0    0  0.71779892283E-01  0.21994010121E-01 -0.77032988658E-01  0.88654958731E+00  0.88000000000E+00 0.  1.
        -11    1    4    4    0    0 -0.77278552889E-01 -0.10886397393E-01  0.88550235183E-01  0.11803344296E+00  0.51100000000E-03 0. -1.
         11    1    4    4    0    0 -0.96679225753E-02 -0.78420569930E-02  0.77019460835E-02  0.14647446169E-01  0.51100000000E-03 0.  1.
</event>
<event>
 8    1  0.1123285E+005  0.1043930E+01  0.7957747E-01            NaN
         13   -1    0    0    0    0  0.00000000000E+00  0.00000000000E+00  0.74505805969E-08  0.10566000000E+00  0.10566000000E+00 0. -1.
     999900   -1    0    0    0    0 -0.00000000000E+00 -0.00000000000E+00 -0.74505805969E-08  0.93827000000E+00  0.93827000000E+00 0. -1.
     999902    2    1    2    0    0  0.19528493743E-01  0.14448133601E-01 -0.24963333229E-02  0.10195098789E+01  0.10192173718E+01 0.  0.
     999903    2    3    3    0    0  0.95655928345E-02 -0.10300932057E+00  0.73031374783E-01  0.12844313193E+00  0.21485710317E-01 0.  0.
         14    1    1    2    0    0 -0.19528493743E-01 -0.14448133601E-01  0.24963333229E-02  0.24420121058E-01  0.00000000000E+00 0.  1.
     999901    1    3    3    0    0  0.99629009080E-02  0.11745745417E+00 -0.75527708106E-01  0.89106674701E+00  0.88000000000E+00 0. -1.
        -11    1    4    4    0    0 -0.54825163254E-02 -0.50169247446E-01  0.30596151162E-01  0.59020309738E-01  0.51100000000E-03 0.  1.
         11    1    4    4    0    0  0.15048109160E-01 -0.52840073122E-01  0.42435223620E-01  0.69422822195E-01  0.51100000000E-03 0. -1.
</event>
<event>
 8    1  0.1123285E+005  0.1043930E+01  0.7957747E-01            NaN
         13   -1    0    0    0    0  0.00000000000E+00  0.00000000000E+00  0.74505805969E-08  0.10566000000E+00  0.10566000000E+00 0. -1.
     999900   -1    0    0    0    0 -0.00000000000E+00 -0.00000000000E+00 -0.74505805969E-08  0.93827000000E+00  0.93827000000E+00 0. -1.
     999902    2    1    2    0    0  0.23976598702E-01 -0.33023738973E-03 -0.20147641237E-02  0.10198666333E+01  0.10195827108E+01 0.  0.
     999903    2    3    3    0    0 -0.19399896341E-02 -0.10286360633E+00  0.75468961548E-01  0.13015404542E+00  0.25687084608E-01 0.  0.
         14    1    1    2    0    0 -0.23976598702E-01  0.33023738973E-03  0.20147641237E-02  0.24063366692E-01  0.00000000000E+00 0. -1.
     999901    1    3    3    0    0  0.25916588337E-01  0.10253336894E+00 -0.77483725671E-01  0.88971258789E+00  0.88000000000E+00 0. -1.
        -11    1    4    4    0    0 -0.51576320569E-03 -0.62650432918E-01  0.60847195610E-01  0.87338336892E-01  0.51100000000E-03 0. -1.
         11    1    4    4    0    0 -0.14242264284E-02 -0.40213173413E-01  0.14621765938E-01  0.42815708531E-01  0.51100000000E-03 0.  1.
</event>
<event>
 8    1  0.1123285E+005  0.1043930E+01  0.7957747E-01            NaN
         13   -1    0    0    0    0  0.00000000000E+00  0.00000000000E+00  0.74505805969E-08  0.10566000000E+00  0.10566000000E+00 0. -1.
     999900   -1    0    0    0    0 -0.00000000000E+00 -0.00000000000E+00 -0.74505805969E-08  0.93827000000E+00  0.93827000000E+00 0.  1.
     999902    2    1    2    0    0 -0.24976490855E-01 -0.36966138142E-02  0.48540406051E-02  0.10182190732E+01  0.10178944096E+01 0.  0.
     999903    2    3    3    0    0  0.90642402349E-01 -0.63726187145E-01 -0.57375856023E-01  0.12645462097E+00  0.20535585681E-01 0.  0.
         14    1    1    2    0    0  0.24976490855E-01  0.36966138142E-02 -0.48540406051E-02  0.25710926847E-01  0.00000000000E+00 0. -1.
     999901    1    3    3    0    0 -0.11561889320E+00  0.60029573330E-01  0.62229896628E-01  0.89176445218E+00  0.88000000000E+00 0. -1.
        -11    1    4    4    0    0  0.29148951521E-01 -0.26964471422E-01 -0.29947828369E-01  0.49738090422E-01  0.51100000000E-03 0.  1.
         11    1    4    4    0    0  0.61493450828E-01 -0.36761715722E-01 -0.27428027654E-01  0.76716530549E-01  0.51100000000E-03 0. -1.
</event>
<event>
 8    1  0.1123285E+005  0.1043930E+01  0.7957747E-01            NaN
         13   -1    0    0    0    0  0.00000000000E+00  0.00000000000E+00  0.74505805969E-08  0.10566000000E+00  0.10566000000E+00 0. -1.
     999900   -1    0    0    0    0 -0.00000000000E+00 -0.00000000000E+00 -0.74505805969E-08  0.93827000000E+00  0.93827000000E+00 0.  1.
     999902    2    1    2    0    0 -0.74183794223E-02 -0.22218206960E-01 -0.42952052009E-02  0.10201155115E+01  0.10198375003E+01 0.  0.
     999903    2    3    3    0    0  0.67619807779E-01 -0.98460062469E-01 -0.53313270528E-01  0.13228313951E+00  0.19740868211E-01 0.  0.
         14    1    1    2    0    0  0.74183794223E-02  0.22218206960E-01  0.42952052009E-02  0.23814488478E-01  0.00000000000E+00 0. -1.
     999901    1    3    3    0    0 -0.75038187202E-01  0.76241855509E-01  0.49018065327E-01  0.88783237202E+00  0.88000000000E+00 0. -1.
        -11    1    4    4    0    0  0.12306441844E-01 -0.32274741436E-01 -0.19224602411E-01  0.39534211823E-01  0.51100000000E-03 0. -1.
         11    1    4    4    0    0  0.55313365936E-01 -0.66185321033E-01 -0.34088668117E-01  0.92748927683E-01  0.51100000000E-03 0.  1.
</event>
<event>
 8    1  0.1123285E+005  0.1043930E+01  0.7957747E-01            NaN
         13   -1    0    0    0    0  0.00000000000E+00  0.00000000000E+00  0.74505805969E-08  0.10566000000E+00  0.10566000000E+00 0.  1.
     999900   -1    0    0    0    0 -0.00000000000E+00 -0.00000000000E+00 -0.74505805969E-08  0.93827000000E+00  0.93827000000E+00 0. -1.
     999902    2    1    2    0    0 -0.22401084494E-02  0.20400992273E-02  0.24545057815E-01  0.10191986443E+01  0.10188985409E+01 0.  0.
     999903    2    3    3    0    0 -0.12237097499E+00  0.10727035905E-01  0.40637137821E-01  0.13084857649E+00  0.19499953361E-01 0.  0.
         14    1    1    2    0    0  0.22401084494E-02 -0.20400992273E-02 -0.24545057815E-01  0.24731355682E-01  0.00000000000E+00 0. -1.
     999901    1    3    3    0    0  0.12013086654E+00 -0.86869366773E-02 -0.16092080006E-01  0.88835006782E+00  0.88000000000E+00 0. -1.
        -11    1    4    4    0    0 -0.54342175942E-01  0.14453804385E-01  0.19271188833E-01  0.59444296509E-01  0.51100000000E-03 0. -1.
         11    1    4    4    0    0 -0.68028799047E-01 -0.37267684806E-02  0.21365948987E-01  0.71404279985E-01  0.51100000000E-03 0.  1.
</event>
<event>
 8    1  0.1123285E+005  0.1043930E+01  0.7957747E-01            NaN
         13   -1    0    0    0    0  0.00000000000E+00  0.00000000000E+00  0.74505805969E-08  0.10566000000E+00  0.10566000000E+00 0. -1.
     999900   -1    0    0    0    0 -0.00000000000E+00 -0.00000000000E+00 -0.74505805969E-08  0.93827000000E+00  0.93827000000E+00 0.  1.
     999902    2    1    2    0    0  0.14320076812E-01  0.15771694663E-01 -0.85054166376E-02  0.10209919734E+01  0.10207342733E+01 0.  0.
     999903    2    3    3    0    0  0.65664152511E-01  0.34114926991E-01 -0.10928551546E+00  0.13356348805E+00  0.20500543475E-01 0.  0.
         14    1    1    2    0    0 -0.14320076812E-01 -0.15771694663E-01  0.85054166376E-02  0.22938026607E-01  0.00000000000E+00 0.  1.
     999901    1    3    3    0    0 -0.51344075699E-01 -0.18343232329E-01  0.10078009882E+00  0.88742848534E+00  0.88000000000E+00 0. -1.
        -11    1    4    4    0    0  0.59056770793E-01  0.33002350527E-01 -0.10674618754E+00  0.12637985201E+00  0.51100000000E-03 0.  1.
         11    1    4    4    0    0  0.66073817186E-02  0.11125764647E-02 -0.25393279119E-02  0.71836360438E-02  0.51100000000E-03 0. -1.
</event>
<event>
 8    1  0.1123285E+005  0.1043930E+01  0.7957747E-01            NaN
         13   -1    0    0    0    0  0.00000000000E+00  0.00000000000E+00  0.74505805969E-08  0.10566000000E+00  0.10566000000E+00 0.  1.
     999900   -1    0    0    0    0 -0.00000000000E+00 -0.00000000000E+00 -0.74505805969E-08  0.93827000000E+00  0.93827000000E+00 0.  1.
     999902    2    1    2    0    0 -0.79166682066E-02  0.78610018603E-02  0.23068539489E-01  0.10183052756E+01  0.10179828131E+01 0.  0.
     999903    2    3    3    0    0  0.10841824201E+00  0.37564462419E-01  0.56179630763E-01  0.12953508525E+00  0.21391198208E-01 0.  0.
         14    1    1    2    0    0  0.79166682066E-02 -0.78610018603E-02 -0.23068539489E-01  0.25624724387E-01  0.00000000000E+00 0. -1.
     999901    1    3    3    0    0 -0.11633491022E+00 -0.29703460559E-01 -0.33111091274E-01  0.88877019036E+00  0.88000000000E+00 0.  1.
        -11    1    4    4    0    0  0.23351218421E-01  0.15906780575E-02  0.18267707188E-01  0.29694779092E-01  0.51100000000E-03 0.  1.
         11    1    4    4    0    0  0.85067023594E-01  0.35973784362E-01  0.37911923575E-01  0.99840306162E-01  0.51100000000E-03 0. -1.
</event>
<event>
 8    1  0.1123285E+005  0.1043930E+01  0.7957747E-01            NaN
         13   -1    0    0    0    0  0.00000000000E+00  0.00000000000E+00  0.74505805969E-08  0.10566000000E+00  0.10566000000E+00 0. -1.
     999900   -1    0    0    0    0 -0.00000000000E+00 -0.00000000000E+00 -0.74505805969E-08  0.93827000000E+00  0.93827000000E+00 0. -1.
     999902    2    1    2    0    0  0.16049935826E-01  0.10198581540E-01  0.13783221685E-01  0.10204440743E+01  0.10201737696E+01 0.  0.
     999903    2    3    3    0    0 -0.12015139492E+00  0.25618598759E-01 -0.32184283383E-01  0.12864724153E+00  0.20533249970E-01 0.  0.
         14    1    1    2    0    0 -0.16049935826E-01 -0.10198581540E-01 -0.13783221685E-01  0.23485925689E-01  0.00000000000E+00 0.  1.
     999901    1    3    3    0    0  0.13620133074E+00 -0.15420017219E-01  0.45967505068E-01  0.89179683278E+00  0.88000000000E+00 0.  1.
        -11    1    4    4    0    0 -0.42839836749E-01  0.84924415196E-02 -0.14374116091E-02  0.43700119551E-01  0.51100000000E-03 0.  1.
         11    1    4    4    0    0 -0.77311558170E-01  0.17126157239E-01 -0.30746871774E-01  0.84947121984E-01  0.51100000000E-03 0. -1.
</event>
<event>
 8    1  0.1123285E+005  0.1043930E+01  0.7957747E-01            NaN
         13   -1    0    0    0    0  0.00000000000E+00  0.00000000000E+00  0.74505805969E-08  0.10566000000E+00  0.10566000000E+00 0.  1.
     999900   -1    0    0    0    0 -0.00000000000E+00 -0.00000000000E+00 -0.74505805969E-08  0.93827000000E+00  0.93827000000E+00 0.  1.
     999902    2    1    2    0    0 -0.76976836653E-02 -0.18397049694E-02  0.21249430528E-01  0.10212545255E+01  0.10210027564E+01 0.  0.
     999903    2    3    3    0    0 -0.12594868600E+00 -0.21489900117E-01 -0.29870634510E-01  0.13165759944E+00  0.10797285449E-01 0.  0.
         14    1    1    2    0    0  0.76976836653E-02  0.18397049694E-02 -0.21249430528E-01  0.22675474548E-01  0.00000000000E+00 0. -1.
     999901    1    3    3    0    0  0.11825100233E+00  0.19650195147E-01  0.51120065038E-01  0.88959692601E+00  0.88000000000E+00 0. -1.
        -11    1    4    4    0    0 -0.87322365394E-01 -0.12251949540E-01 -0.24909951542E-01  0.91630085520E-01  0.51100000000E-03 0.  1.
         11    1    4    4    0    0 -0.38626320602E-01 -0.92379505763E-02 -0.49606829678E-02  0.40027513920E-01  0.51100000000E-03 0. -1.
</event>
<event>
 8    1  0.1123285E+005  0.1043930E+01  0.7957747E-01            NaN
         13   -1    0    0    0    0  0.00000000000E+00  0.00000000000E+00  0.74505805969E-08  0.10566000000E+00  0.10566000000E+00 0. -1.
     999900   -1    0    0    0    0 -0.00000000000E+00 -0.00000000000E+00 -0.74505805969E-08  0.93827000000E+00  0.93827000000E+00 0. -1.
     999902    2    1    2    0    0 -0.16251741447E-01 -0.16730235840E-01  0.38865720334E-02  0.10202841688E+01  0.10200101273E+01 0.  0.
     999903    2    3    3    0    0 -0.91268108300E-01 -0.92933892650E-01  0.21489381974E-01  0.13363637427E+00  0.20743938774E-01 0.  0.
         14    1    1    2    0    0  0.16251741447E-01  0.16730235840E-01 -0.38865720334E-02  0.23645831207E-01  0.00000000000E+00 0. -1.
     999901    1    3    3    0    0  0.75016366853E-01  0.76203656810E-01 -0.17602809941E-01  0.88664779452E+00  0.88000000000E+00 0.  1.
        -11    1    4    4    0    0 -0.69543107642E-01 -0.57072889771E-01  0.14570525563E-01  0.91137916937E-01  0.51100000000E-03 0.  1.
         11    1    4    4    0    0 -0.21725000657E-01 -0.35861002879E-01  0.69188564109E-02  0.42498457337E-01  0.51100000000E-03 0. -1.
</event>
<event>
 8    1  0.1123285E+005  0.1043930E+01  0.7957747E-01            NaN
         13   -1    0    0    0    0  0.00000000000E+00  0.00000000000E+00  0.74505805969E-08  0.10566000000E+00  0.10566000000E+00 0.  1.
     999900   -1    0    0    0    0 -0.00000000000E+00 -0.00000000000E+00 -0.74505805969E-08  0.93827000000E+00  0.93827000000E+00 0. -1.
     999902    2    1    2    0    0 -0.16893883097E-01 -0.99511644608E-02  0.11883522224E-01  0.10210030059E+01  0.10207455564E+01 0.  0.
     999903    2    3    3    0    0 -0.58403888433E-01 -0.11146484661E+00 -0.37755776523E-01  0.13280698684E+00  0.19410586779E-01 0.  0.
         14    1    1    2    0    0  0.16893883097E-01  0.99511644608E-02 -0.11883522224E-01  0.22926994148E-01  0.00000000000E+00 0. -1.
     999901    1    3    3    0    0  0.41510005337E-01  0.10151368215E+00  0.49639298747E-01  0.88819601901E+00  0.88000000000E+00 0.  1.
        -11    1    4    4    0    0 -0.11343868876E-01 -0.19146928852E-01  0.71958951940E-03  0.22272565537E-01  0.51100000000E-03 0.  1.
         11    1    4    4    0    0 -0.47060019558E-01 -0.92317917759E-01 -0.38475366043E-01  0.11053442130E+00  0.51100000000E-03 0. -1.
</event>
<event>
 8    1  0.1123285E+005  0.1043930E+01  0.7957747E-01            NaN
         13   -1    0    0    0    0  0.00000000000E+00  0.00000000000E+00  0.74505805969E-08  0.10566000000E+00  0.10566000000E+00 0. -1.
     999900   -1    0    0    0    0 -0.00000000000E+00 -0.00000000000E+00 -0.74505805969E-08  0.93827000000E+00  0.93827000000E+00 0. -1.
     999902    2    1    2    0    0 -0.77429860005E-03  0.29577598981E-02 -0.23441620066E-01  0.10202898343E+01  0.10200159257E+01 0.  0.
     999903    2    3    3    0    0  0.46172726758E-01 -0.42155035531E-02 -0.12338644371E+00  0.13336004755E+00  0.20273051646E-01 0.  0.
         14    1    1    2    0    0  0.77429860005E-03 -0.29577598981E-02  0.23441620066E-01  0.23640165677E-01  0.00000000000E+00 0. -1.
     999901    1    3    3    0    0 -0.46947025358E-01  0.71732634511E-02  0.99944823647E-01  0.88692978678E+00  0.88000000000E+00 0.  1.
        -11    1    4    4    0    0  0.20351872439E-01 -0.11947855959E-01 -0.60230040889E-01  0.64690562838E-01  0.51100000000E-03 0. -1.
         11    1    4    4    0    0  0.25820854319E-01  0.77323524063E-02 -0.63156402824E-01  0.68669484708E-01  0.51100000000E-03 0.  1.
</event>
<event>
 8    1  0.1123285E+005  0.1043930E+01  0.7957747E-01            NaN
         13   -1    0    0    0    0  0.00000000000E+00  0.00000000000E+00  0.74505805969E-08  0.10566000000E+00  0.10566000000E+00 0.  1.
     999900   -1    0    0    0    0 -0.00000000000E+00 -0.00000000000E+00 -0.74505805969E-08  0.93827000000E+00  0.93827000000E+00 0. -1.
     999902    2    1    2    0    0  0.17103652035E-01  0.16813819153E-01  0.20450212145E-03  0.10199449787E+01  0.10196629238E+01 0.  0.
     999903    2    3    3    0    0 -0.79868066436E-01 -0.92688542667E-01 -0.29231278020E-01  0.12738643908E+00  0.20068962831E-01 0.  0.
         14    1    1    2    0    0 -0.17103652035E-01 -0.16813819153E-01 -0.20450212145E-03  0.23985021337E-01  0.00000000000E+00 0.  1.
     999901    1    3    3    0    0  0.96971718471E-01  0.10950236182E+00  0.29435780141E-01  0.89255853958E+00  0.88000000000E+00 0.  1.
        -11    1    4    4    0    0 -0.30852992498E-01 -0.26247615174E-01 -0.16943537437E-01  0.43911149271E-01  0.51100000000E-03 0. -1.
         11    1    4    4    0    0 -0.49015073938E-01 -0.66440927493E-01 -0.12287740583E-01  0.83475289810E-01  0.51100000000E-03 0.  1.
</event>
<event>
 8    1  0.1123285E+005  0.1043930E+01  0.7957747E-01            NaN
         13   -1    0    0    0    0  0.00000000000E+00  0.00000000000E+00  0.74505805969E-08  0.10566000000E+00  0.10566000000E+00 0. -1.
     999900   -1    0    0    0    0 -0.00000000000E+00 -0.00000000000E+00 -0.74505805969E-08  0.93827000000E+00  0.93827000000E+00 0. -1.
     999902    2    1    2    0    0 -0.30891797140E-02  0.17456935565E-01  0.15418667965E-01  0.10204348313E+01  0.10201643113E+01 0.  0.
     999903    2    3    3    0    0  0.12309985379E-01  0.82993468689E-01  0.10210380764E+00  0.13361665100E+00  0.19717259060E-01 0.  0.
         14    1    1    2    0    0  0.30891797140E-02 -0.17456935565E-01 -0.15418667965E-01  0.23495168704E-01  0.00000000000E+00 0.  1.
     999901    1    3    3    0    0 -0.15399165093E-01 -0.65536533124E-01 -0.86685139678E-01  0.88681818029E+00  0.88000000000E+00 0. -1.
        -11    1    4    4    0    0  0.17577001807E-01  0.66636915617E-01  0.79392787604E-01  0.10513279869E+00  0.51100000000E-03 0.  1.
         11    1    4    4    0    0 -0.52670164278E-02  0.16356553072E-01  0.22711020039E-01  0.28483852314E-01  0.51100000000E-03 0. -1.
</event>
<event>
 8    1  0.1123285E+005  0.1043930E+01  0.7957747E-01            NaN
         13   -1    0    0    0    0  0.00000000000E+00  0.00000000000E+00  0.74505805969E-08  0.10566000000E+00  0.10566000000E+00 0. -1.
     999900   -1    0    0    0    0 -0.00000000000E+00 -0.00000000000E+00 -0.74505805969E-08  0.93827000000E+00  0.93827000000E+00 0.  1.
     999902    2    1    2    0    0 -0.12800130949E-01 -0.77709185846E-02 -0.18453657993E-01  0.10201651516E+01  0.10198883117E+01 0.  0.
     999903    2    3    3    0    0 -0.91423695734E-01 -0.76718738337E-01 -0.55603886398E-01  0.13319525001E+00  0.20127729355E-01 0.  0.
         14    1    1    2    0    0  0.12800130949E-01  0.77709185846E-02  0.18453657993E-01  0.23764848438E-01  0.00000000000E+00 0. -1.
     999901    1    3    3    0    0  0.78623564785E-01  0.68947819753E-01  0.37150228404E-01  0.88696990155E+00  0.88000000000E+00 0.  1.
        -11    1    4    4    0    0 -0.51461621474E-01 -0.55254272002E-01 -0.38035000918E-01  0.84547356405E-01  0.51100000000E-03 0.  1.
         11    1    4    4    0    0 -0.39962074260E-01 -0.21464466335E-01 -0.17568885479E-01  0.48647893605E-01  0.51100000000E-03 0. -1.
</event>
<event>
 8    1  0.1123285E+005  0.1043930E+01  0.7957747E-01            NaN
         13   -1    0    0    0    0  0.00000000000E+00  0.00000000000E+00  0.74505805969E-08  0.10566000000E+00  0.10566000000E+00 0. -1.
     999900   -1    0    0    0    0 -0.00000000000E+00 -0.00000000000E+00 -0.74505805969E-08  0.93827000000E+00  0.93827000000E+00 0.  1.
     999902    2    1    2    0    0 -0.70662933378E-02  0.16449021092E-01  0.15974208767E-01  0.10199367063E+01  0.10196544546E+01 0.  0.
     999903    2    3    3    0    0  0.91358011906E-01  0.86771420477E-02  0.91615762241E-01  0.13119074115E+00  0.19899335168E-01 0.  0.
         14    1    1    2    0    0  0.70662933378E-02 -0.16449021092E-01 -0.15974208767E-01  0.23993293691E-01  0.00000000000E+00 0.  1.
     999901    1    3    3    0    0 -0.98424305243E-01  0.77718790447E-02 -0.75641553474E-01  0.88874596515E+00  0.88000000000E+00 0.  1.
        -11    1    4    4    0    0  0.52371864597E-01 -0.33940371581E-02  0.44103726330E-01  0.68554587642E-01  0.51100000000E-03 0. -1.
         11    1    4    4    0    0  0.38986147309E-01  0.12071179206E-01  0.47512035911E-01  0.62636153512E-01  0.51100000000E-03 0.  1.
</event>
<event>
 8    1  0.1123285E+005  0.1043930E+01  0.7957747E-01            NaN
         13   -1    0    0    0    0  0.00000000000E+00  0.00000000000E+00  0.74505805969E-08  0.10566000000E+00  0.10566000000E+00 0.  1.
     999900   -1    0    0    0    0 -0.00000000000E+00 -0.00000000000E+00 -0.74505805969E-08  0.93827000000E+00  0.93827000000E+00 0. -1.
     999902    2    1    2    0    0 -0.25592138208E-02  0.21204979920E-01 -0.11797761040E-01  0.10195294280E+01  0.10192373946E+01 0.  0.
     999903    2    3    3    0    0  0.71294412805E-01 -0.16947474432E-01  0.10323899245E+00  0.12815777565E+00  0.19900143498E-01 0.  0.
         14    1    1    2    0    0  0.25592138208E-02 -0.21204979920E-01  0.11797761040E-01  0.24400572008E-01  0.00000000000E+00 0. -1.
     999901    1    3    3    0    0 -0.73853626626E-01  0.38152454351E-01 -0.11503675349E+00  0.89137165234E+00  0.88000000000E+00 0. -1.
        -11    1    4    4    0    0  0.16584495549E-01 -0.10002429960E-01  0.38589976663E-01  0.43180337164E-01  0.51100000000E-03 0. -1.
         11    1    4    4    0    0  0.54709917256E-01 -0.69450444715E-02  0.64649015788E-01  0.84977438489E-01  0.51100000000E-03 0.  1.
</event>
<event>
 8    1  0.1123285E+005  0.1043930E+01  0.7957747E-01            NaN
         13   -1    0    0    0    0  0.00000000000E+00  0.00000000000E+00  0.74505805969E-08  0.10566000000E+00  0.10566000000E+00 0.  1.
     999900   -1    0    0    0    0 -0.00000000000E+00 -0.00000000000E+00 -0.74505805969E-08  0.93827000000E+00  0.93827000000E+00 0.  1.
     999902    2    1    2    0    0 -0.86625809944E-02 -0.26175998063E-01  0.27518210232E-02  0.10162208733E+01  0.10158430330E+01 0.  0.
     999903    2    3    3    0    0 -0.49507046150E-01 -0.11188793994E+00 -0.39393947768E-01  0.13011079371E+00  0.20176144227E-01 0.  0.
         14    1    1    2    0    0  0.86625809944E-02  0.26175998063E-01 -0.27518210232E-02  0.27709126710E-01  0.00000000000E+00 0.  1.
     999901    1    3    3    0    0  0.40844465155E-01  0.85711941876E-01  0.42145768791E-01  0.88611007958E+00  0.88000000000E+00 0. -1.
        -11    1    4    4    0    0 -0.16064858971E-01 -0.17026454289E-01 -0.70191403795E-02  0.24444003193E-01  0.51100000000E-03 0. -1.
         11    1    4    4    0    0 -0.33442187179E-01 -0.94861485649E-01 -0.32374807388E-01  0.10566679051E+00  0.51100000000E-03 0.  1.
</event>
<event>
 8    1  0.1123285E+005  0.1043930E+01  0.7957747E-01            NaN
         13   -1    0    0    0    0  0.00000000000E+00  0.00000000000E+00  0.74505805969E-08  0.10566000000E+00  0.10566000000E+00 0. -1.
     999900   -1    0    0    0    0 -0.00000000000E+00 -0.00000000000E+00 -0.74505805969E-08  0.93827000000E+00  0.93827000000E+00 0.  1.
     999902    2    1    2    0    0  0.12589251013E-01  0.18146795088E-01 -0.23436505556E-02  0.10217199097E+01  0.10214784803E+01 0.  0.
     999903    2    3    3    0    0 -0.96562654085E-01 -0.82076389006E-01  0.15275013143E-01  0.12915661093E+00  0.19678016234E-01 0.  0.
         14    1    1    2    0    0 -0.12589251013E-01 -0.18146795088E-01  0.23436505556E-02  0.22210090296E-01  0.00000000000E+00 0. -1.
     999901    1    3    3    0    0  0.10915190510E+00  0.10022318409E+00 -0.17618663699E-01  0.89256329878E+00  0.88000000000E+00 0.  1.
        -11    1    4    4    0    0 -0.57016385653E-01 -0.52548669370E-01  0.16959075016E-03  0.77540446011E-01  0.51100000000E-03 0.  1.
         11    1    4    4    0    0 -0.39546268432E-01 -0.29527719636E-01  0.15105422393E-01  0.51616164914E-01  0.51100000000E-03 0. -1.
</event>
<event>
 8    1  0.1123285E+005  0.1043930E+01  0.7957747E-01            NaN
         13   -1    0    0    0    0  0.00000000000E+00  0.00000000000E+00  0.74505805969E-08  0.10566000000E+00  0.10566000000E+00 0. -1.
     999900   -1    0    0    0    0 -0.00000000000E+00 -0.00000000000E+00 -0.74505805969E-08  0.93827000000E+00  0.93827000000E+00 0. -1.
     999902    2    1    2    0    0  0.97508373640E-02 -0.90540939231E-02 -0.20644576462E-01  0.10193687707E+01  0.10190728319E+01 0.  0.
     999903    2    3    3    0    0 -0.30746062591E-02 -0.45312292156E-01 -0.12294560428E+00  0.13260800861E+00  0.20164456649E-01 0.  0.
         14    1    1    2    0    0 -0.97508373640E-02  0.90540939231E-02  0.20644576462E-01  0.24561229272E-01  0.00000000000E+00 0.  1.
     999901    1    3    3    0    0  0.12825443623E-01  0.36258198233E-01  0.10230102781E+00  0.88676076212E+00  0.88000000000E+00 0.  1.
        -11    1    4    4    0    0 -0.47692444490E-02 -0.35221955514E-01 -0.11247862859E+00  0.11796200597E+00  0.51100000000E-03 0. -1.
         11    1    4    4    0    0  0.16946381899E-02 -0.10090336642E-01 -0.10466975687E-01  0.14646002634E-01  0.51100000000E-03 0.  1.
</event>
<event>
 8    1  0.1123285E+005  0.1043930E+01  0.7957747E-01            NaN
         13   -1    0    0    0    0  0.00000000000E+00  0.00000000000E+00  0.74505805969E-08  0.10566000000E+00  0.10566000000E+00 0. -1.
     999900   -1    0    0    0    0 -0.00000000000E+00 -0.00000000000E+00 -0.74505805969E-08  0.93827000000E+00  0.93827000000E+00 0. -1.
     999902    2    1    2    0    0 -0.21939049531E-01 -0.16794776747E-02  0.10571341731E-01  0.10195190228E+01  0.10192267374E+01 0.  0.
     999903    2    3    3    0    0  0.74259152716E-01  0.27618503906E-01  0.10016915356E+00  0.12927173488E+00  0.20002964634E-01 0.  0.
         14    1    1    2    0    0  0.21939049531E-01  0.16794776747E-02 -0.10571341731E-01  0.24410977153E-01  0.00000000000E+00 0. -1.
     999901    1    3    3    0    0 -0.96198202247E-01 -0.29297981581E-01 -0.89597811832E-01  0.89024728796E+00  0.88000000000E+00 0. -1.
        -11    1    4    4    0    0  0.10154402204E-01  0.99234269839E-02  0.26183980513E-01  0.29790069549E-01  0.51100000000E-03 0.  1.
         11    1    4    4    0    0  0.64104750512E-01  0.17695076922E-01  0.73985173050E-01  0.99481665335E-01  0.51100000000E-03 0. -1.
</event>
<event>
 8    1  0.1123285E+005  0.1043930E+01  0.7957747E-01            NaN
         13   -1    0    0    0    0  0.00000000000E+00  0.00000000000E+00  0.74505805969E-08  0.10566000000E+00  0.10566000000E+00 0. -1.
     999900   -1    0    0    0    0 -0.00000000000E+00 -0.00000000000E+00 -0.74505805969E-08  0.93827000000E+00  0.93827000000E+00 0.  1.
     999902    2    1    2    0    0  0.88594732231E-02 -0.86017569760E-02  0.20102990540E-01  0.10203374012E+01  0.10200646066E+01 0.  0.
     999903    2    3    3    0    0 -0.42825260762E-02  0.26771928677E-01  0.12853108169E+00  0.13287998774E+00  0.20044350503E-01 0.  0.
         14    1    1    2    0    0 -0.88594732231E-02  0.86017569760E-02 -0.20102990540E-01  0.23592598787E-01  0.00000000000E+00 0. -1.
     999901    1    3    3    0    0  0.13141999299E-01 -0.35373685653E-01 -0.10842809115E+00  0.88745741348E+00  0.88000000000E+00 0.  1.
        -11    1    4    4    0    0 -0.11480639587E-01  0.22386616346E-01  0.91394798863E-01  0.94795759699E-01  0.51100000000E-03 0. -1.
         11    1    4    4    0    0  0.71981135111E-02  0.43853123303E-02  0.37136282824E-01  0.38084228039E-01  0.51100000000E-03 0.  1.
</event>
<event>
 8    1  0.1123285E+005  0.1043930E+01  0.7957747E-01            NaN
         13   -1    0    0    0    0  0.00000000000E+00  0.00000000000E+00  0.74505805969E-08  0.10566000000E+00  0.10566000000E+00 0. -1.
     999900   -1    0    0    0    0 -0.00000000000E+00 -0.00000000000E+00 -0.74505805969E-08  0.93827000000E+00  0.93827000000E+00 0. -1.
     999902    2    1    2    0    0 -0.44280272846E-02 -0.12603862057E-01 -0.19333409142E-01  0.10204300963E+01  0.10201594660E+01 0.  0.
     999903    2    3    3    0    0  0.90263330244E-01 -0.82880213958E-01 -0.45610906466E-01  0.13217578267E+00  0.19325736325E-01 0.  0.
         14    1    1    2    0    0  0.44280272846E-02  0.12603862057E-01  0.19333409142E-01  0.23499903689E-01  0.00000000000E+00 0. -1.
     999901    1    3    3    0    0 -0.94691357529E-01  0.70276351901E-01  0.26277497324E-01  0.88825431364E+00  0.88000000000E+00 0.  1.
        -11    1    4    4    0    0  0.53125129425E-01 -0.55571573046E-01 -0.36823966006E-01  0.85245203387E-01  0.51100000000E-03 0.  1.
         11    1    4    4    0    0  0.37138200820E-01 -0.27308640912E-01 -0.87869404604E-02  0.46930579287E-01  0.51100000000E-03 0. -1.
</event>
<event>
 8    1  0.1123285E+005  0.1043930E+01  0.7957747E-01            NaN
         13   -1    0    0    0    0  0.00000000000E+00  0.00000000000E+00  0.74505805969E-08  0.10566000000E+00  0.10566000000E+00 0. -1.
     999900   -1    0    0    0    0 -0.00000000000E+00 -0.00000000000E+00 -0.74505805969E-08  0.93827000000E+00  0.93827000000E+00 0.  1.
     999902    2    1    2    0    0 -0.15899279739E-01 -0.18703762414E-01 -0.13572209584E-01  0.10158796400E+01  0.10154923044E+01 0.  0.
     999903    2    3    3    0    0  0.11827065132E+00  0.10465576483E-01 -0.33653765119E-01  0.12500608575E+00  0.19911562301E-01 0.  0.
         14    1    1    2    0    0  0.15899279739E-01  0.18703762414E-01  0.13572209584E-01  0.28050360027E-01  0.00000000000E+00 0. -1.
     999901    1    3    3    0    0 -0.13416993106E+00 -0.29169338897E-01  0.20081555534E-01  0.89087355422E+00  0.88000000000E+00 0.  1.
        -11    1    4    4    0    0  0.95054811139E-01  0.81042766873E-02 -0.18502988198E-01  0.97178794572E-01  0.51100000000E-03 0.  1.
         11    1    4    4    0    0  0.23215840185E-01  0.23612997961E-02 -0.15150776921E-01  0.27827291182E-01  0.51100000000E-03 0. -1.
</event>
<event>
 8    1  0.1123285E+005  0.1043930E+01  0.7957747E-01            NaN
         13   -1    0    0    0    0  0.00000000000E+00  0.00000000000E+00  0.74505805969E-08  0.10566000000E+00  0.10566000000E+00 0.  1.
     999900   -1    0    0    0    0 -0.00000000000E+00 -0.00000000000E+00 -0.74505805969E-08  0.93827000000E+00  0.93827000000E+00 0.  1.
     999902    2    1    2    0    0  0.11649813807E-01  0.11853697725E-01 -0.15821747652E-01  0.10209831917E+01  0.10207252920E+01 0.  0.
     999903    2    3    3    0    0  0.11440092837E+00 -0.10472033424E-02  0.61581749854E-01  0.13153643883E+00  0.20514721028E-01 0.  0.
         14    1    1    2    0    0 -0.11649813807E-01 -0.11853697725E-01  0.15821747652E-01  0.22946808280E-01  0.00000000000E+00 0.  1.
     999901    1    3    3    0    0 -0.10275111457E+00  0.12900901067E-01 -0.77403497506E-01  0.88944675289E+00  0.88000000000E+00 0.  1.
        -11    1    4    4    0    0  0.88710736885E-01 -0.73960296829E-02  0.53511370522E-01  0.10386541287E+00  0.51100000000E-03 0.  1.
         11    1    4    4    0    0  0.25690191487E-01  0.63488263405E-02  0.80703793317E-02  0.27671025968E-01  0.51100000000E-03 0. -1.
</event>
<event>
 8    1  0.1123285E+005  0.1043930E+01  0.7957747E-01            NaN
         13   -1    0    0    0    0  0.00000000000E+00  0.00000000000E+00  0.74505805969E-08  0.10566000000E+00  0.10566000000E+00 0. -1.
     999900   -1    0    0    0    0 -0.00000000000E+00 -0.00000000000E+00 -0.74505805969E-08  0.93827000000E+00  0.93827000000E+00 0.  1.
     999902    2    1    2    0    0  0.48992863536E-02 -0.16302420704E-01  0.15722138728E-01  0.10207576550E+01  0.10204946020E+01 0.  0.
     999903    2    3    3    0    0 -0.20077490522E-02 -0.10592156142E+00  0.79332929456E-01  0.13389485261E+00  0.20265972239E-01 0.  0.
         14    1    1    2    0    0 -0.48992863536E-02  0.16302420704E-01 -0.15722138728E-01  0.23172345021E-01  0.00000000000E+00 0.  1.
     999901    1    3    3    0    0  0.69070354058E-02  0.89619140715E-01 -0.63610790728E-01  0.88686280236E+00  0.88000000000E+00 0.  1.
        -11    1    4    4    0    0 -0.90189908484E-02 -0.59551350943E-01  0.36826076598E-01  0.70598347245E-01  0.51100000000E-03 0. -1.
         11    1    4    4    0    0  0.70112417962E-02 -0.46370210476E-01  0.42506852858E-01  0.63296505369E-01  0.51100000000E-03 0.  1.
</event>
<event>
 8    1  0.1123285E+005  0.1043930E+01  0.7957747E-01            NaN
         13   -1    0    0    0    0  0.00000000000E+00  0.00000000000E+00  0.74505805969E-08  0.10566000000E+00  0.10566000000E+00 0.  1.
     999900   -1    0    0    0    0 -0.00000000000E+00 -0.00000000000E+00 -0.74505805969E-08  0.93827000000E+00  0.93827000000E+00 0.  1.
     999902    2    1    2    0    0 -0.12487370227E-01  0.19931608112E-01 -0.27290371712E-02  0.10202519287E+01  0.10199771306E+01 0.  0.
     999903    2    3    3    0    0  0.81760187871E-01 -0.88982501169E-01  0.35998201364E-01  0.12770238698E+00  0.20234013517E-01 0.  0.
         14    1    1    2    0    0  0.12487370227E-01 -0.19931608112E-01  0.27290371712E-02  0.23678071310E-01  0.00000000000E+00 0.  1.
     999901    1    3    3    0    0 -0.94247558098E-01  0.10891410928E+00 -0.38727238535E-01  0.89254954171E+00  0.88000000000E+00 0.  1.
        -11    1    4    4    0    0  0.32815814703E-01 -0.46794539154E-01  0.98783844244E-02  0.58003880811E-01  0.51100000000E-03 0.  1.
         11    1    4    4    0    0  0.48944373168E-01 -0.42187962015E-01  0.26119816939E-01  0.69698506166E-01  0.51100000000E-03 0. -1.
</event>
<event>
 8    1  0.1123285E+005  0.1043930E+01  0.7957747E-01            NaN
         13   -1    0    0    0    0  0.00000000000E+00  0.00000000000E+00  0.74505805969E-08  0.10566000000E+00  0.10566000000E+00 0. -1.
     999900   -1    0    0    0    0 -0.00000000000E+00 -0.00000000000E+00 -0.74505805969E-08  0.93827000000E+00  0.93827000000E+00 0. -1.
     999902    2    1    2    0    0  0.14751707586E-01 -0.31044485429E-02 -0.18828693145E-01  0.10198100878E+01  0.10195248134E+01 0.  0.
     999903    2    3    3    0    0  0.10364393435E+00 -0.76046635928E-01  0.21023418922E-01  0.13143483969E+00  0.17549272854E-01 0.  0.
         14    1    1    2    0    0 -0.14751707586E-01  0.31044485429E-02  0.18828693145E-01  0.24119912168E-01  0.00000000000E+00 0. -1.
     999901    1    3    3    0    0 -0.88892226761E-01  0.72942187385E-01 -0.39852112067E-01  0.88837524814E+00  0.88000000000E+00 0. -1.
        -11    1    4    4    0    0  0.79554331745E-01 -0.66865180769E-01  0.18040933558E-01  0.10547786736E+00  0.51100000000E-03 0.  1.
         11    1    4    4    0    0  0.24089602602E-01 -0.91814551589E-02  0.29824853642E-02  0.25956972325E-01  0.51100000000E-03 0. -1.
</event>
<event>
 8    1  0.1123285E+005  0.1043930E+01  0.7957747E-01            NaN
         13   -1    0    0    0    0  0.00000000000E+00  0.00000000000E+00  0.74505805969E-08  0.10566000000E+00  0.10566000000E+00 0. -1.
     999900   -1    0    0    0    0 -0.00000000000E+00 -0.00000000000E+00 -0.74505805969E-08  0.93827000000E+00  0.93827000000E+00 0.  1.
     999902    2    1    2    0    0  0.18132300035E-01 -0.17440022084E-01  0.13519418257E-01  0.10153693742E+01  0.10149676137E+01 0.  0.
     999903    2    3    3    0    0  0.37240832025E-01 -0.11398467145E+00 -0.41030184115E-01  0.12820441525E+00  0.19326437443E-01 0.  0.
         14    1    1    2    0    0 -0.18132300035E-01  0.17440022084E-01 -0.13519418257E-01  0.28560625778E-01  0.00000000000E+00 0.  1.
     999901    1    3    3    0    0 -0.19108531990E-01  0.96544649367E-01  0.54549602372E-01  0.88716495898E+00  0.88000000000E+00 0.  1.
        -11    1    4    4    0    0  0.30629023262E-01 -0.77590459605E-01 -0.36058200156E-01  0.90878332991E-01  0.51100000000E-03 0.  1.
         11    1    4    4    0    0  0.66118087632E-02 -0.36394211846E-01 -0.49719839592E-02  0.37326082255E-01  0.51100000000E-03 0. -1.
</event>
<event>
 8    1  0.1123285E+005  0.1043930E+01  0.7957747E-01            NaN
         13   -1    0    0    0    0  0.00000000000E+00  0.00000000000E+00  0.74505805969E-08  0.10566000000E+00  0.10566000000E+00 0.  1.
     999900   -1    0    0    0    0 -0.00000000000E+00 -0.00000000000E+00 -0.74505805969E-08  0.93827000000E+00  0.93827000000E+00 0. -1.
     999902    2    1    2    0    0 -0.22390076004E-01  0.70303752582E-02  0.56674054794E-02  0.10197874822E+01  0.10195016664E+01 0.  0.
     999903    2    3    3    0    0 -0.96664284030E-01  0.88874779773E-01 -0.37988485166E-02  0.13282368674E+00  0.19621167731E-01 0.  0.
         14    1    1    2    0    0  0.22390076004E-01 -0.70303752582E-02 -0.56674054794E-02  0.24142517777E-01  0.00000000000E+00 0.  1.
     999901    1    3    3    0    0  0.74274208026E-01 -0.81844404515E-01  0.94662539960E-02  0.88696379548E+00  0.88000000000E+00 0.  1.
        -11    1    4    4    0    0 -0.41096783899E-01  0.43781910013E-01  0.69720823082E-02  0.60453886094E-01  0.51100000000E-03 0. -1.
         11    1    4    4    0    0 -0.55567500131E-01  0.45092869760E-01 -0.10770930825E-01  0.72369800648E-01  0.51100000000E-03 0.  1.
</event>
<event>
 8    1  0.1123285E+005  0.1043930E+01  0.7957747E-01            NaN
         13   -1    0    0    0    0  0.00000000000E+00  0.00000000000E+00  0.74505805969E-08  0.10566000000E+00  0.10566000000E+00 0.  1.
     999900   -1    0    0    0    0 -0.00000000000E+00 -0.00000000000E+00 -0.74505805969E-08  0.93827000000E+00  0.93827000000E+00 0.  1.
     999902    2    1    2    0    0  0.12302607956E-01 -0.27746054392E-01 -0.68513704190E-02  0.10128150683E+01  0.10123370109E+01 0.  0.
     999903    2    3    3    0    0 -0.43827832383E-01  0.75452442366E-01  0.80897873762E-01  0.12068251880E+00  0.20145828689E-01 0.  0.
         14    1    1    2    0    0 -0.12302607956E-01  0.27746054392E-01  0.68513704190E-02  0.31114931680E-01  0.00000000000E+00 0. -1.
     999901    1    3    3    0    0  0.56130440339E-01 -0.10319849676E+00 -0.87749244181E-01  0.89213254952E+00  0.88000000000E+00 0.  1.
        -11    1    4    4    0    0 -0.99048131955E-02  0.72714498892E-02  0.53507117655E-02  0.13411582506E-01  0.51100000000E-03 0. -1.
         11    1    4    4    0    0 -0.33923019187E-01  0.68180992476E-01  0.75547161996E-01  0.10727093629E+00  0.51100000000E-03 0.  1.
</event>
<event>
 8    1  0.1123285E+005  0.1043930E+01  0.7957747E-01            NaN
         13   -1    0    0    0    0  0.00000000000E+00  0.00000000000E+00  0.74505805969E-08  0.10566000000E+00  0.10566000000E+00 0. -1.
     999900   -1    0    0    0    0 -0.00000000000E+00 -0.00000000000E+00 -0.74505805969E-08  0.93827000000E+00  0.93827000000E+00 0.  1.
     999902    2    1    2    0    0  0.15233331348E-01  0.42429644293E-02  0.17968788707E-01  0.10199939498E+01  0.10197130592E+01 0.  0.
     999903    2    3    3    0    0 -0.49010387335E-01 -0.74488295875E-01 -0.88988900038E-01  0.12771270832E+00  0.20999696346E-01 0.  0.
         14    1    1    2    0    0 -0.15233331348E-01 -0.42429644293E-02 -0.17968788707E-01  0.23936050189E-01  0.00000000000E+00 0.  1.
     999901    1    3    3    0    0  0.64243718683E-01  0.78731260305E-01  0.10695768874E+00  0.89228124149E+00  0.88000000000E+00 0. -1.
        -11    1    4    4    0    0 -0.30270955769E-01 -0.33088685830E-01 -0.54968159461E-01  0.70943298264E-01  0.51100000000E-03 0. -1.
         11    1    4    4    0    0 -0.18739431566E-01 -0.41399610046E-01 -0.34020740577E-01  0.56769410053E-01  0.51100000000E-03 0.  1.
</event>
<event>
 8    1  0.1123285E+005  0.1043930E+01  0.7957747E-01            NaN
         13   -1    0    0    0    0  0.00000000000E+00  0.00000000000E+00  0.74505805969E-08  0.10566000000E+00  0.10566000000E+00 0. -1.
     999900   -1    0    0    0    0 -0.00000000000E+00 -0.00000000000E+00 -0.74505805969E-08  0.93827000000E+00  0.93827000000E+00 0. -1.
     999902    2    1    2    0    0  0.51849974937E-02 -0.20396913649E-01 -0.93109913657E-02  0.10209166811E+01  0.10206572671E+01 0.  0.
     999903    2    3    3    0    0  0.12050939354E+00 -0.49729207294E-01  0.15788121254E-01  0.13255298014E+00  0.18042166771E-01 0.  0.
         14    1    1    2    0    0 -0.51849974937E-02  0.20396913649E-01  0.93109913657E-02  0.23013318875E-01  0.00000000000E+00 0.  1.
     999901    1    3    3    0    0 -0.11532439605E+00  0.29332293645E-01 -0.25099112620E-01  0.88836370099E+00  0.88000000000E+00 0. -1.
        -11    1    4    4    0    0  0.10585168242E+00 -0.42378132546E-01  0.19642990921E-01  0.11570044512E+00  0.51100000000E-03 0. -1.
         11    1    4    4    0    0  0.14657711124E-01 -0.73510747481E-02 -0.38548696666E-02  0.16852535016E-01  0.51100000000E-03 0.  1.
</event>
<event>
 8    1  0.1123285E+005  0.1043930E+01  0.7957747E-01            NaN
         13   -1    0    0    0    0  0.00000000000E+00  0.00000000000E+00  0.74505805969E-08  0.10566000000E+00  0.10566000000E+00 0. -1.
     999900   -1    0    0    0    0 -0.00000000000E+00 -0.00000000000E+00 -0.74505805969E-08  0.93827000000E+00  0.93827000000E+00 0. -1.
     999902    2    1    2    0    0 -0.12173419573E-01 -0.25354984757E-02  0.19776221103E-01  0.10205693532E+01  0.10203019577E+01 0.  0.
     999903    2    3    3    0    0  0.11469048764E+00 -0.40291101344E-02  0.59343953062E-01  0.13059054042E+00  0.19027422268E-01 0.  0.
         14    1    1    2    0    0  0.12173419573E-01  0.25354984757E-02 -0.19776221103E-01  0.23360646775E-01  0.00000000000E+00 0.  1.
     999901    1    3    3    0    0 -0.12686390722E+00  0.14936116587E-02 -0.39567731959E-01  0.88997881281E+00  0.88000000000E+00 0. -1.
        -11    1    4    4    0    0  0.47029044780E-01 -0.28034889376E-02  0.34913755760E-01  0.58641470526E-01  0.51100000000E-03 0.  1.
         11    1    4    4    0    0  0.67661442862E-01 -0.12256211968E-02  0.24430197302E-01  0.71949069895E-01  0.51100000000E-03 0. -1.
</event>
<event>
 8    1  0.1123285E+005  0.1043930E+01  0.7957747E-01            NaN
         13   -1    0    0    0    0  0.00000000000E+00  0.00000000000E+00  0.74505805969E-08  0.10566000000E+00  0.10566000000E+00 0. -1.
     999900   -1    0    0    0    0 -0.00000000000E+00 -0.00000000000E+00 -0.74505805969E-08  0.93827000000E+00  0.93827000000E+00 0. -1.
     999902    2    1    2    0    0  0.11035375833E-01  0.20105744824E-01 -0.22434907093E-02  0.10208853966E+01  0.10206252688E+01 0.  0.
     999903    2    3    3    0    0 -0.50490939189E-02 -0.11863060673E+00 -0.45714731355E-01  0.12881127740E+00  0.20094634087E-01 0.  0.
         14    1    1    2    0    0 -0.11035375833E-01 -0.20105744824E-01  0.22434907093E-02  0.23044603387E-01  0.00000000000E+00 0.  1.
     999901    1    3    3    0    0  0.16084469752E-01  0.13873635156E+00  0.43471240646E-01  0.89207411922E+00  0.88000000000E+00 0.  1.
        -11    1    4    4    0    0 -0.34811032855E-02 -0.10927001835E+00 -0.47397201155E-01  0.11915876296E+00  0.51100000000E-03 0.  1.
         11    1    4    4    0    0 -0.15679906334E-02 -0.93605883783E-02  0.16824697997E-02  0.96525144414E-02  0.51100000000E-03 0. -1.
</event>
<event>
 8    1  0.1123285E+005  0.1043930E+01  0.7957747E-01            NaN
         13   -1    0    0    0    0  0.00000000000E+00  0.00000000000E+00  0.74505805969E-08  0.10566000000E+00  0.10566000000E+00 0. -1.
     999900   -1    0    0    0    0 -0.00000000000E+00 -0.00000000000E+00 -0.74505805969E-08  0.93827000000E+00  0.93827000000E+00 0. -1.
     999902    2    1    2    0    0 -0.49024328764E-02 -0.12764508984E-01 -0.17553012913E-01  0.10216797236E+01  0.10214374101E+01 0.  0.
     999903    2    3    3    0    0  0.99804091780E-01  0.43818572881E-01 -0.71830778073E-01  0.13201058439E+00  0.19652217383E-01 0.  0.
         14    1    1    2    0    0  0.49024328764E-02  0.12764508984E-01  0.17553012913E-01  0.22250276403E-01  0.00000000000E+00 0. -1.
     999901    1    3    3    0    0 -0.10470652466E+00 -0.56583081865E-01  0.54277765160E-01  0.88966913920E+00  0.88000000000E+00 0.  1.
        -11    1    4    4    0    0  0.76543929888E-01  0.24655632643E-01 -0.55696207079E-01  0.97822298213E-01  0.51100000000E-03 0. -1.
         11    1    4    4    0    0  0.23260161892E-01  0.19162940238E-01 -0.16134570994E-01  0.34188286181E-01  0.51100000000E-03 0.  1.
</event>
<event>
 8    1  0.1123285E+005  0.1043930E+01  0.7957747E-01            NaN
         13   -1    0    0    0    0  0.00000000000E+00  0.00000000000E+00  0.74505805969E-08  0.10566000000E+00  0.10566000000E+00 0. -1.
     999900   -1    0    0    0    0 -0.00000000000E+00 -0.00000000000E+00 -0.74505805969E-08  0.93827000000E+00  0.93827000000E+00 0. -1.
     999902    2    1    2    0    0 -0.22130748112E-01  0.14950996755E-02  0.13764041980E-01  0.10178253225E+01  0.10174905076E+01 0.  0.
     999903    2    3    3    0    0 -0.68328347092E-01 -0.80989139157E-02  0.11005513169E+00  0.13131630552E+00  0.19937017354E-01 0.  0.
         14    1    1    2    0    0  0.22130748112E-01 -0.14950996755E-02 -0.13764041980E-01  0.26104677487E-01  0.00000000000E+00 0.  1.
     999901    1    3    3    0    0  0.46197598979E-01  0.95940135912E-02 -0.96291089713E-01  0.88650901699E+00  0.88000000000E+00 0. -1.
        -11    1    4    4    0    0 -0.20455537614E-01 -0.26825269280E-02  0.17867004521E-01  0.27296811926E-01  0.51100000000E-03 0. -1.
         11    1    4    4    0    0 -0.47872809478E-01 -0.54163869877E-02  0.92188127173E-01  0.10401949360E+00  0.51100000000E-03 0.  1.
</event>
<event>
 7    1  0.1123285E+005  0.1043930E+01  0.7957747E-01            NaN
         13   -1    0    0    0    0  0.00000000000E+00  0.00000000000E+00  0.74505805969E-08  0.10566000000E+00  0.10566000000E+00 0. -1.
     999900   -1    0    0    0    0 -0.00000000000E+00 -0.00000000000E+00 -0.74505805969E-08  0.93827000000E+00  0.93827000000E+00 0. -1.
     999903    2    1    2    0    0  0.62231110742E-01  0.97273174059E-01 -0.81925143516E-02  0.11740596354E+00  0.19551507534E-01 0.  0.
         14    1    1    2    0    0 -0.80463894519E-02 -0.39528345496E-02  0.38385498457E-01  0.39418469985E-01  0.00000000000E+00 0. -1.
     999901    1    1    2    0    0 -0.54184721290E-01 -0.93320339510E-01 -0.30192984105E-01  0.88710556648E+00  0.88000000000E+00 0. -1.
        -11    1    3    3    0    0  0.59382365180E-01  0.86038931665E-01 -0.11921143437E-01  0.10522042500E+00  0.51100000000E-03 0. -1.
         11    1    3    3    0    0  0.28487455623E-02  0.11234242395E-01  0.37286290854E-02  0.12185538532E-01  0.51100000000E-03 0.  1.
</event>
<event>
 8    1  0.1123285E+005  0.1043930E+01  0.7957747E-01            NaN
         13   -1    0    0    0    0  0.00000000000E+00  0.00000000000E+00  0.74505805969E-08  0.10566000000E+00  0.10566000000E+00 0.  1.
     999900   -1    0    0    0    0 -0.00000000000E+00 -0.00000000000E+00 -0.74505805969E-08  0.93827000000E+00  0.93827000000E+00 0. -1.
     999902    2    1    2    0    0  0.22599154002E-01  0.50615424283E-02 -0.43503501135E-02  0.10203659061E+01  0.10200937780E+01 0.  0.
     999903    2    3    3    0    0 -0.13866676429E-01  0.12809119821E+00  0.11593600950E-01  0.13091649073E+00  0.20126504658E-01 0.  0.
         14    1    1    2    0    0 -0.22599154002E-01 -0.50615424283E-02  0.43503501135E-02  0.23564093860E-01  0.00000000000E+00 0.  1.
     999901    1    3    3    0    0  0.36465830431E-01 -0.12302965578E+00 -0.15943951064E-01  0.88944941541E+00  0.88000000000E+00 0.  1.
        -11    1    4    4    0    0  0.41141742367E-02  0.53022177733E-01  0.59644286642E-02  0.53517411106E-01  0.51100000000E-03 0.  1.
         11    1    4    4    0    0 -0.17980850666E-01  0.75069020474E-01  0.56291722861E-02  0.77399079628E-01  0.51100000000E-03 0. -1.
</event>
<event>
 8    1  0.1123285E+005  0.1043930E+01  0.7957747E-01            NaN
         13   -1    0    0    0    0  0.00000000000E+00  0.00000000000E+00  0.74505805969E-08  0.10566000000E+00  0.10566000000E+00 0.  1.
     999900   -1    0    0    0    0 -0.00000000000E+00 -0.00000000000E+00 -0.74505805969E-08  0.93827000000E+00  0.93827000000E+00 0.  1.
     999902    2    1    2    0    0  0.10553019338E-01  0.70155816281E-02  0.19639701422E-01  0.10205568856E+01  0.10202892013E+01 0.  0.
     999903    2    3    3    0    0  0.56917871675E-01  0.81813616689E-01  0.87897303318E-01  0.13353741247E+00  0.13160266177E-01 0.  0.
         14    1    1    2    0    0 -0.10553019338E-01 -0.70155816281E-02 -0.19639701422E-01  0.23373114355E-01  0.00000000000E+00 0. -1.
     999901    1    3    3    0    0 -0.46364852337E-01 -0.74798035061E-01 -0.68257601896E-01  0.88701947318E+00  0.88000000000E+00 0.  1.
        -11    1    4    4    0    0  0.71334520104E-02  0.76962937875E-02  0.47471348040E-02  0.11528897844E-01  0.51100000000E-03 0. -1.
         11    1    4    4    0    0  0.49784419664E-01  0.74117322902E-01  0.83150168514E-01  0.12200851462E+00  0.51100000000E-03 0.  1.
</event>
<event>
 8    1  0.1123285E+005  0.1043930E+01  0.7957747E-01            NaN
         13   -1    0    0    0    0  0.00000000000E+00  0.00000000000E+00  0.74505805969E-08  0.10566000000E+00  0.10566000000E+00 0. -1.
     999900   -1    0    0    0    0 -0.00000000000E+00 -0.00000000000E+00 -0.74505805969E-08  0.93827000000E+00  0.93827000000E+00 0. -1.
     999902    2    1    2    0    0  0.13321711112E-01  0.18990297206E-01  0.17308457891E-02  0.10206685469E+01  0.10204034434E+01 0.  0.
     999903    2    3    3    0    0 -0.98381258333E-01  0.56512012547E-01 -0.61272963022E-01  0.13058152166E+00  0.20607723039E-01 0.  0.
         14    1    1    2    0    0 -0.13321711112E-01 -0.18990297206E-01 -0.17308457891E-02  0.23261453137E-01  0.00000000000E+00 0.  1.
     999901    1    3    3    0    0  0.11170296945E+00 -0.37521715341E-01  0.63003808812E-01  0.89008702520E+00  0.88000000000E+00 0.  1.
        -11    1    4    4    0    0 -0.29048303665E-01  0.80873006409E-02 -0.10463177460E-01  0.31920958335E-01  0.51100000000E-03 0.  1.
         11    1    4    4    0    0 -0.69332954668E-01  0.48424711906E-01 -0.50809785563E-01  0.98660563327E-01  0.51100000000E-03 0. -1.
</event>
<event>
 8    1  0.1123285E+005  0.1043930E+01  0.7957747E-01            NaN
         13   -1    0    0    0    0  0.00000000000E+00  0.00000000000E+00  0.74505805969E-08  0.10566000000E+00  0.10566000000E+00 0.  1.
     999900   -1    0    0    0    0 -0.00000000000E+00 -0.00000000000E+00 -0.74505805969E-08  0.93827000000E+00  0.93827000000E+00 0.  1.
     999902    2    1    2    0    0 -0.25860215209E-01 -0.31507713963E-02 -0.10254983710E-01  0.10159328076E+01  0.10155469594E+01 0.  0.
     999903    2    3    3    0    0 -0.86519468923E-01 -0.93646974702E-01  0.40542863209E-02  0.12909919126E+00  0.19869312340E-01 0.  0.
         14    1    1    2    0    0  0.25860215209E-01  0.31507713963E-02  0.10254983710E-01  0.27997192394E-01  0.00000000000E+00 0. -1.
     999901    1    3    3    0    0  0.60659253714E-01  0.90496203305E-01 -0.14309270031E-01  0.88683361635E+00  0.88000000000E+00 0.  1.
        -11    1    4    4    0    0 -0.11343697136E-01 -0.23848097124E-01 -0.42878706166E-03  0.26416967663E-01  0.51100000000E-03 0.  1.
         11    1    4    4    0    0 -0.75175771787E-01 -0.69798877578E-01  0.44830733825E-02  0.10268222360E+00  0.51100000000E-03 0. -1.
</event>
<event>
 8    1  0.1123285E+005  0.1043930E+01  0.7957747E-01            NaN
         13   -1    0    0    0    0  0.00000000000E+00  0.00000000000E+00  0.74505805969E-08  0.10566000000E+00  0.10566000000E+00 0.  1.
     999900   -1    0    0    0    0 -0.00000000000E+00 -0.00000000000E+00 -0.74505805969E-08  0.93827000000E+00  0.93827000000E+00 0. -1.
     999902    2    1    2    0    0  0.24348027552E-01 -0.51740132567E-03 -0.81741431303E-02  0.10182412716E+01  0.10179171756E+01 0.  0.
     999903    2    3    3    0    0  0.53786647928E-01  0.83714760909E-01 -0.82369403303E-01  0.13062275776E+00  0.19401586375E-01 0.  0.
         14    1    1    2    0    0 -0.24348027552E-01  0.51740132567E-03  0.81741431303E-02  0.25688728379E-01  0.00000000000E+00 0.  1.
     999901    1    3    3    0    0 -0.29438620375E-01 -0.84232162235E-01  0.74195260173E-01  0.88761851387E+00  0.88000000000E+00 0.  1.
        -11    1    4    4    0    0  0.34544149057E-01  0.68904368021E-01 -0.63437182656E-01  0.99828089388E-01  0.51100000000E-03 0. -1.
         11    1    4    4    0    0  0.19242498870E-01  0.14810392888E-01 -0.18932220647E-01  0.30794668368E-01  0.51100000000E-03 0.  1.
</event>
<event>
 8    1  0.1123285E+005  0.1043930E+01  0.7957747E-01            NaN
         13   -1    0    0    0    0  0.00000000000E+00  0.00000000000E+00  0.74505805969E-08  0.10566000000E+00  0.10566000000E+00 0. -1.
     999900   -1    0    0    0    0 -0.00000000000E+00 -0.00000000000E+00 -0.74505805969E-08  0.93827000000E+00  0.93827000000E+00 0.  1.
     999902    2    1    2    0    0  0.71780441683E-02  0.24714207495E-01 -0.31799325259E-02  0.10179987767E+01  0.10176684534E+01 0.  0.
     999903    2    3    3    0    0 -0.11864281313E+00  0.39191557393E-01 -0.22493742194E-01  0.12872182040E+00  0.21242488778E-01 0.  0.
         14    1    1    2    0    0 -0.71780441683E-02 -0.24714207495E-01  0.31799325259E-02  0.25931223285E-01  0.00000000000E+00 0.  1.
     999901    1    3    3    0    0  0.12582085730E+00 -0.14477349898E-01  0.19313809668E-01  0.88927695632E+00  0.88000000000E+00 0. -1.
        -11    1    4    4    0    0 -0.36504412407E-01  0.18694292853E-01 -0.15228735798E-01  0.43751848252E-01  0.51100000000E-03 0. -1.
         11    1    4    4    0    0 -0.82138400727E-01  0.20497264540E-01 -0.72650063967E-02  0.84969972146E-01  0.51100000000E-03 0.  1.
</event>
<event>
 8    1  0.1123285E+005  0.1043930E+01  0.7957747E-01            NaN
         13   -1    0    0    0    0  0.00000000000E+00  0.00000000000E+00  0.74505805969E-08  0.10566000000E+00  0.10566000000E+00 0.  1.
     999900   -1    0    0    0    0 -0.00000000000E+00 -0.00000000000E+00 -0.74505805969E-08  0.93827000000E+00  0.93827000000E+00 0. -1.
     999902    2    1    2    0    0  0.34099574237E-03  0.77549521733E-02  0.22281150007E-01  0.10203353988E+01  0.10200625573E+01 0.  0.
     999903    2    3    3    0    0 -0.11907574752E+00  0.66504828007E-02  0.52213076005E-01  0.13176491839E+00  0.20310732215E-01 0.  0.
         14    1    1    2    0    0 -0.34099574237E-03 -0.77549521733E-02 -0.22281150007E-01  0.23594601224E-01  0.00000000000E+00 0. -1.
     999901    1    3    3    0    0  0.11941674326E+00  0.11044693726E-02 -0.29931925998E-01  0.88857048039E+00  0.88000000000E+00 0. -1.
        -11    1    4    4    0    0 -0.50422717518E-01 -0.67044656586E-02  0.25419887141E-01  0.56866792462E-01  0.51100000000E-03 0.  1.
         11    1    4    4    0    0 -0.68653030000E-01  0.13354948459E-01  0.26793188864E-01  0.74898125925E-01  0.51100000000E-03 0. -1.
</event>
<event>
 8    1  0.1123285E+005  0.1043930E+01  0.7957747E-01            NaN
         13   -1    0    0    0    0  0.00000000000E+00  0.00000000000E+00  0.74505805969E-08  0.10566000000E+00  0.10566000000E+00 0. -1.
     999900   -1    0    0    0    0 -0.00000000000E+00 -0.00000000000E+00 -0.74505805969E-08  0.93827000000E+00  0.93827000000E+00 0.  1.
     999902    2    1    2    0    0  0.29763878819E-02  0.97619340030E-02  0.21347624196E-01  0.10202683158E+01  0.10199939024E+01 0.  0.
     999903    2    3    3    0    0  0.47293932838E-01 -0.11872274275E+00  0.12637786508E-01  0.12979191621E+00  0.18826102559E-01 0.  0.
         14    1    1    2    0    0 -0.29763878819E-02 -0.97619340030E-02 -0.21347624196E-01  0.23661684198E-01  0.00000000000E+00 0.  1.
     999901    1    3    3    0    0 -0.44317544956E-01  0.12848467675E+00  0.87098376877E-02  0.89047639959E+00  0.88000000000E+00 0.  1.
        -11    1    4    4    0    0  0.38690362603E-02 -0.72016624530E-02  0.55688343709E-02  0.99048685464E-02  0.51100000000E-03 0.  1.
         11    1    4    4    0    0  0.43424896578E-01 -0.11152108030E+00  0.70689521372E-02  0.11988704767E+00  0.51100000000E-03 0. -1.
</event>
<event>
 7    1  0.1123285E+005  0.1043930E+01  0.7957747E-01            NaN
         13   -1    0    0    0    0  0.00000000000E+00  0.00000000000E+00  0.74505805969E-08  0.10566000000E+00  0.10566000000E+00 0. -1.
     999900   -1    0    0    0    0 -0.00000000000E+00 -0.00000000000E+00 -0.74505805969E-08  0.93827000000E+00  0.93827000000E+00 0. -1.
     999903    2    1    2    0    0 -0.45870137586E-01 -0.31967121508E-01  0.81866781515E-01  0.10123389916E+00  0.20497952177E-01 0.  0.
         14    1    1    2    0    0 -0.30621990978E-01 -0.41006893654E-01  0.80942363436E-02  0.51814943024E-01  0.00000000000E+00 0.  1.
     999901    1    1    2    0    0  0.76492128564E-01  0.72974015162E-01 -0.89961017859E-01  0.89088115782E+00  0.88000000000E+00 0. -1.
        -11    1    3    3    0    0 -0.17990058351E-01 -0.93565288363E-02  0.46994106684E-01  0.51184900267E-01  0.51100000000E-03 0.  1.
         11    1    3    3    0    0 -0.27880079235E-01 -0.22610592672E-01  0.34872674831E-01  0.50048998891E-01  0.51100000000E-03 0. -1.
</event>
<event>
 8    1  0.1123285E+005  0.1043930E+01  0.7957747E-01            NaN
         13   -1    0    0    0    0  0.00000000000E+00  0.00000000000E+00  0.74505805969E-08  0.10566000000E+00  0.10566000000E+00 0.  1.
     999900   -1    0    0    0    0 -0.00000000000E+00 -0.00000000000E+00 -0.74505805969E-08  0.93827000000E+00  0.93827000000E+00 0.  1.
     999902    2    1    2    0    0  0.61062760170E-02 -0.18585726771E-01  0.16474041780E-01  0.10183544277E+01  0.10180332168E+01 0.  0.
     999903    2    3    3    0    0  0.93845064001E-01 -0.85395752167E-02 -0.84651850052E-01  0.12817160036E+00  0.19550013782E-01 0.  0.
         14    1    1    2    0    0 -0.61062760170E-02  0.18585726771E-01 -0.16474041780E-01  0.25575572310E-01  0.00000000000E+00 0. -1.
     999901    1    3    3    0    0 -0.87738787984E-01 -0.10046151555E-01  0.10112589183E+00  0.89018282733E+00  0.88000000000E+00 0. -1.
        -11    1    4    4    0    0  0.66352420180E-01 -0.23915483206E-02 -0.69739609168E-01  0.96292457519E-01  0.51100000000E-03 0.  1.
         11    1    4    4    0    0  0.27492643821E-01 -0.61480268961E-02 -0.14912240884E-01  0.31879142839E-01  0.51100000000E-03 0. -1.
</event>
<event>
 8    1  0.1123285E+005  0.1043930E+01  0.7957747E-01            NaN
         13   -1    0    0    0    0  0.00000000000E+00  0.00000000000E+00  0.74505805969E-08  0.10566000000E+00  0.10566000000E+00 0.  1.
     999900   -1    0    0    0    0 -0.00000000000E+00 -0.00000000000E+00 -0.74505805969E-08  0.93827000000E+00  0.93827000000E+00 0.  1.
     999902    2    1    2    0    0  0.18667485155E-01  0.83022459952E-03  0.16271903033E-01  0.10191522054E+01  0.10188509600E+01 0.  0.
     999903    2    3    3    0    0 -0.10735409860E+00  0.27410247834E-01 -0.57983765647E-01  0.12668268689E+00  0.20252454326E-01 0.  0.
         14    1    1    2    0    0 -0.18667485155E-01 -0.83022459952E-03 -0.16271903033E-01  0.24777794559E-01  0.00000000000E+00 0.  1.
     999901    1    3    3    0    0  0.12602158376E+00 -0.26580023235E-01  0.74255668680E-01  0.89246951855E+00  0.88000000000E+00 0. -1.
        -11    1    4    4    0    0 -0.21718694541E-01 -0.53026384643E-03 -0.54526069011E-02  0.22404796703E-01  0.51100000000E-03 0. -1.
         11    1    4    4    0    0 -0.85635404063E-01  0.27940511681E-01 -0.52531158746E-01  0.10427789019E+00  0.51100000000E-03 0.  1.
</event>
<event>
 8    1  0.1123285E+005  0.1043930E+01  0.7957747E-01            NaN
         13   -1    0    0    0    0  0.00000000000E+00  0.00000000000E+00  0.74505805969E-08  0.10566000000E+00  0.10566000000E+00 0.  1.
     999900   -1    0    0    0    0 -0.00000000000E+00 -0.00000000000E+00 -0.74505805969E-08  0.93827000000E+00  0.93827000000E+00 0. -1.
     999902    2    1    2    0    0  0.31741390904E-03 -0.14166487431E-01 -0.18786851960E-01  0.10203984058E+01  0.10201270365E+01 0.  0.
     999903    2    3    3    0    0 -0.52585683633E-01 -0.83659416387E-02  0.11543638524E+00  0.12863147357E+00  0.19627884554E-01 0.  0.
         14    1    1    2    0    0 -0.31741390904E-03  0.14166487431E-01  0.18786851960E-01  0.23531594172E-01  0.00000000000E+00 0.  1.
     999901    1    3    3    0    0  0.52903097543E-01 -0.58005457920E-02 -0.13422323720E+00  0.89176693226E+00  0.88000000000E+00 0. -1.
        -11    1    4    4    0    0 -0.37457653764E-01 -0.14663685956E-01  0.85793826671E-01  0.94757275853E-01  0.51100000000E-03 0.  1.
         11    1    4    4    0    0 -0.15128029870E-01  0.62977443178E-02  0.29642558573E-01  0.33874197718E-01  0.51100000000E-03 0. -1.
</event>
<event>
 8    1  0.1123285E+005  0.1043930E+01  0.7957747E-01            NaN
         13   -1    0    0    0    0  0.00000000000E+00  0.00000000000E+00  0.74505805969E-08  0.10566000000E+00  0.10566000000E+00 0.  1.
     999900   -1    0    0    0    0 -0.00000000000E+00 -0.00000000000E+00 -0.74505805969E-08  0.93827000000E+00  0.93827000000E+00 0. -1.
     999902    2    1    2    0    0  0.15407613901E-01  0.15908720306E-01 -0.79388862325E-02  0.10204032522E+01  0.10201319960E+01 0.  0.
     999903    2    3    3    0    0  0.78656191049E-01  0.10589760168E+00  0.44770543352E-02  0.13346890464E+00  0.19819335479E-01 0.  0.
         14    1    1    2    0    0 -0.15407613901E-01 -0.15908720306E-01  0.79388862325E-02  0.23526747809E-01  0.00000000000E+00 0.  1.
     999901    1    3    3    0    0 -0.63248577148E-01 -0.89988881374E-01 -0.12415940568E-01  0.88693434755E+00  0.88000000000E+00 0.  1.
        -11    1    4    4    0    0  0.19476001343E-01  0.13632506659E-01  0.92553937293E-03  0.23796588206E-01  0.51100000000E-03 0. -1.
         11    1    4    4    0    0  0.59180189706E-01  0.92265095020E-01  0.35515149623E-02  0.10967231644E+00  0.51100000000E-03 0.  1.
</event>
<event>
 8    1  0.1123285E+005  0.1043930E+01  0.7957747E-01            NaN
         13   -1    0    0    0    0  0.00000000000E+00  0.00000000000E+00  0.74505805969E-08  0.10566000000E+00  0.10566000000E+00 0. -1.
     999900   -1    0    0    0    0 -0.00000000000E+00 -0.00000000000E+00 -0.74505805969E-08  0.93827000000E+00  0.93827000000E+00 0.  1.
     999902    2    1    2    0    0 -0.17654250532E-01 -0.14153958613E-01 -0.74200262527E-02  0.10201168966E+01  0.10198389180E+01 0.  0.
     999903    2    3    3    0    0  0.15779823865E-01  0.11094631413E+00 -0.60759300991E-01  0.12904282904E+00  0.20056709835E-01 0.  0.
         14    1    1    2    0    0  0.17654250532E-01  0.14153958613E-01  0.74200262527E-02  0.23813103448E-01  0.00000000000E+00 0.  1.
     999901    1    3    3    0    0 -0.33434074397E-01 -0.12510027274E+00  0.53339274739E-01  0.89107406752E+00  0.88000000000E+00 0. -1.
        -11    1    4    4    0    0 -0.45973445566E-02  0.26778006387E-01 -0.12634102630E-01  0.29967964117E-01  0.51100000000E-03 0.  1.
         11    1    4    4    0    0  0.20377168422E-01  0.84168307738E-01 -0.48125198362E-01  0.99074864919E-01  0.51100000000E-03 0. -1.
</event>
<event>
 8    1  0.1123285E+005  0.1043930E+01  0.7957747E-01            NaN
         13   -1    0    0    0    0  0.00000000000E+00  0.00000000000E+00  0.74505805969E-08  0.10566000000E+00  0.10566000000E+00 0.  1.
     999900   -1    0    0    0    0 -0.00000000000E+00 -0.00000000000E+00 -0.74505805969E-08  0.93827000000E+00  0.93827000000E+00 0.  1.
     999902    2    1    2    0    0  0.97930974874E-02  0.24899645034E-02 -0.19099603504E-01  0.10223221418E+01  0.10220937638E+01 0.  0.
     999903    2    3    3    0    0  0.46643913212E-01 -0.90783914268E-01 -0.85214859372E-01  0.13416155603E+00  0.17899081757E-01 0.  0.
         14    1    1    2    0    0 -0.97930974874E-02 -0.24899645034E-02  0.19099603504E-01  0.21607858191E-01  0.00000000000E+00 0.  1.
     999901    1    3    3    0    0 -0.36850815725E-01  0.93273878772E-01  0.66115255868E-01  0.88816058578E+00  0.88000000000E+00 0.  1.
        -11    1    4    4    0    0  0.42448232277E-01 -0.66337871693E-01 -0.62889600106E-01  0.10078654953E+00  0.51100000000E-03 0.  1.
         11    1    4    4    0    0  0.41956809355E-02 -0.24446042575E-01 -0.22325259265E-01  0.33375006492E-01  0.51100000000E-03 0. -1.
</event>
<event>
 8    1  0.1123285E+005  0.1043930E+01  0.7957747E-01            NaN
         13   -1    0    0    0    0  0.00000000000E+00  0.00000000000E+00  0.74505805969E-08  0.10566000000E+00  0.10566000000E+00 0. -1.
     999900   -1    0    0    0    0 -0.00000000000E+00 -0.00000000000E+00 -0.74505805969E-08  0.93827000000E+00  0.93827000000E+00 0. -1.
     999902    2    1    2    0    0  0.14638983085E-01 -0.99753196767E-02 -0.15848543581E-01  0.10201606255E+01  0.10198836790E+01 0.  0.
     999903    2    3    3    0    0  0.91357554677E-01  0.35282876399E-01 -0.87427632034E-01  0.13277254277E+00  0.19846236618E-01 0.  0.
         14    1    1    2    0    0 -0.14638983085E-01  0.99753196767E-02  0.15848543581E-01  0.23769374456E-01  0.00000000000E+00 0. -1.
     999901    1    3    3    0    0 -0.76718571591E-01 -0.45258196076E-01  0.71579088453E-01  0.88738808277E+00  0.88000000000E+00 0.  1.
        -11    1    4    4    0    0  0.14389115710E-01 -0.15845622437E-03 -0.19095374057E-01  0.23915814656E-01  0.51100000000E-03 0. -1.
         11    1    4    4    0    0  0.76968438967E-01  0.35441332624E-01 -0.68332257977E-01  0.10885672812E+00  0.51100000000E-03 0.  1.
</event>
<event>
 8    1  0.1123285E+005  0.1043930E+01  0.7957747E-01            NaN
         13   -1    0    0    0    0  0.00000000000E+00  0.00000000000E+00  0.74505805969E-08  0.10566000000E+00  0.10566000000E+00 0.  1.
     999900   -1    0    0    0    0 -0.00000000000E+00 -0.00000000000E+00 -0.74505805969E-08  0.93827000000E+00  0.93827000000E+00 0.  1.
     999902    2    1    2    0    0  0.92838600260E-02 -0.17297832190E-01  0.14031584343E-01  0.10197993056E+01  0.10195137729E+01 0.  0.
     999903    2    3    3    0    0 -0.31468164371E-01  0.12233802619E+00  0.19287057073E-02  0.12777611072E+00  0.19135739963E-01 0.  0.
         14    1    1    2    0    0 -0.92838600260E-02  0.17297832190E-01 -0.14031584343E-01  0.24130694450E-01  0.00000000000E+00 0. -1.
     999901    1    3    3    0    0  0.40752024397E-01 -0.13963585838E+00  0.12102878636E-01  0.89202319483E+00  0.88000000000E+00 0.  1.
        -11    1    4    4    0    0 -0.18616070019E-01  0.10141345864E+00  0.34549963546E-02  0.10316707700E+00  0.51100000000E-03 0. -1.
         11    1    4    4    0    0 -0.12852094352E-01  0.20924567551E-01 -0.15262906473E-02  0.24609033719E-01  0.51100000000E-03 0.  1.
</event>
<event>
 8    1  0.1123285E+005  0.1043930E+01  0.7957747E-01            NaN
         13   -1    0    0    0    0  0.00000000000E+00  0.00000000000E+00  0.74505805969E-08  0.10566000000E+00  0.10566000000E+00 0. -1.
     999900   -1    0    0    0    0 -0.00000000000E+00 -0.00000000000E+00 -0.74505805969E-08  0.93827000000E+00  0.93827000000E+00 0.  1.
     999902    2    1    2    0    0  0.51848150936E-02  0.71642237020E-02  0.21533296973E-01  0.10206514415E+01  0.10203859435E+01 0.  0.
     999903    2    3    3    0    0  0.11190736360E+00 -0.64681292005E-01 -0.90361451778E-02  0.13077169045E+00  0.17682068317E-01 0.  0.
         14    1    1    2    0    0 -0.51848150936E-02 -0.71642237020E-02 -0.21533296973E-01  0.23278558532E-01  0.00000000000E+00 0.  1.
     999901    1    3    3    0    0 -0.10672254850E+00  0.71845515707E-01  0.30569442151E-01  0.88987975102E+00  0.88000000000E+00 0. -1.
        -11    1    4    4    0    0  0.54676591867E-01 -0.35390375825E-01  0.36668802664E-02  0.65235845447E-01  0.51100000000E-03 0.  1.
         11    1    4    4    0    0  0.57230771729E-01 -0.29290916180E-01 -0.12703025444E-01  0.65535844999E-01  0.51100000000E-03 0. -1.
</event>
<event>
 8    1  0.1123285E+005  0.1043930E+01  0.7957747E-01            NaN
         13   -1    0    0    0    0  0.00000000000E+00  0.00000000000E+00  0.74505805969E-08  0.10566000000E+00  0.10566000000E+00 0. -1.
     999900   -1    0    0    0    0 -0.00000000000E+00 -0.00000000000E+00 -0.74505805969E-08  0.93827000000E+00  0.93827000000E+00 0. -1.
     999902    2    1    2    0    0  0.13858582675E-01  0.98021493818E-02 -0.16757771238E-01  0.10200770056E+01  0.10197980839E+01 0.  0.
     999903    2    3    3    0    0 -0.93426756225E-01 -0.62406160842E-01  0.57171080345E-01  0.12755828918E+00  0.19480683305E-01 0.  0.
         14    1    1    2    0    0 -0.13858582675E-01 -0.98021493818E-02  0.16757771238E-01  0.23852994427E-01  0.00000000000E+00 0. -1.
     999901    1    3    3    0    0  0.10728533890E+00  0.72208310223E-01 -0.73928851583E-01  0.89251871639E+00  0.88000000000E+00 0. -1.
        -11    1    4    4    0    0 -0.27328406190E-01 -0.11503748583E-01  0.22443089146E-01  0.37190474422E-01  0.51100000000E-03 0. -1.
         11    1    4    4    0    0 -0.66098350036E-01 -0.50902412259E-01  0.34727991199E-01  0.90367814762E-01  0.51100000000E-03 0.  1.
</event>
<event>
 8    1  0.1123285E+005  0.1043930E+01  0.7957747E-01            NaN
         13   -1    0    0    0    0  0.00000000000E+00  0.00000000000E+00  0.74505805969E-08  0.10566000000E+00  0.10566000000E+00 0.  1.
     999900   -1    0    0    0    0 -0.00000000000E+00 -0.00000000000E+00 -0.74505805969E-08  0.93827000000E+00  0.93827000000E+00 0. -1.
     999902    2    1    2    0    0 -0.97432650944E-03  0.18811806356E-01 -0.14771100381E-01  0.10199921894E+01  0.10197112570E+01 0.  0.
     999903    2    3    3    0    0 -0.81221902558E-01 -0.95327484486E-01  0.21123109656E-01  0.12827707485E+00  0.18013756335E-01 0.  0.
         14    1    1    2    0    0  0.97432650944E-03 -0.18811806356E-01  0.14771100381E-01  0.23937810614E-01  0.00000000000E+00 0. -1.
     999901    1    3    3    0    0  0.80247576049E-01  0.11413929084E+00 -0.35894210038E-01  0.89171511453E+00  0.88000000000E+00 0. -1.
        -11    1    4    4    0    0 -0.28858993188E-01 -0.41023621539E-01  0.87416136331E-03  0.50167761472E-01  0.51100000000E-03 0. -1.
         11    1    4    4    0    0 -0.52362909370E-01 -0.54303862946E-01  0.20248948293E-01  0.78109313379E-01  0.51100000000E-03 0.  1.
</event>
<event>
 8    1  0.1123285E+005  0.1043930E+01  0.7957747E-01            NaN
         13   -1    0    0    0    0  0.00000000000E+00  0.00000000000E+00  0.74505805969E-08  0.10566000000E+00  0.10566000000E+00 0. -1.
     999900   -1    0    0    0    0 -0.00000000000E+00 -0.00000000000E+00 -0.74505805969E-08  0.93827000000E+00  0.93827000000E+00 0.  1.
     999902    2    1    2    0    0 -0.32261184210E-02 -0.70034492059E-02  0.21893004195E-01  0.10207188007E+01  0.10204548546E+01 0.  0.
     999903    2    3    3    0    0  0.10182684177E+00  0.53093442548E-01  0.60959772077E-01  0.13157653243E+00  0.20215606070E-01 0.  0.
         14    1    1    2    0    0  0.32261184210E-02  0.70034492059E-02 -0.21893004195E-01  0.23211199313E-01  0.00000000000E+00 0.  1.
     999901    1    3    3    0    0 -0.10505296019E+00 -0.60096891754E-01 -0.39066767882E-01  0.88914226825E+00  0.88000000000E+00 0.  1.
        -11    1    4    4    0    0  0.45621115590E-01  0.12936180421E-01  0.27518265835E-01  0.54828341458E-01  0.51100000000E-03 0. -1.
         11    1    4    4    0    0  0.56205726182E-01  0.40157262128E-01  0.33441506242E-01  0.76748190975E-01  0.51100000000E-03 0.  1.
</event>
<event>
 8    1  0.1123285E+005  0.1043930E+01  0.7957747E-01            NaN
         13   -1    0    0    0    0  0.00000000000E+00  0.00000000000E+00  0.74505805969E-08  0.10566000000E+00  0.10566000000E+00 0.  1.
     999900   -1    0    0    0    0 -0.00000000000E+00 -0.00000000000E+00 -0.74505805969E-08  0.93827000000E+00  0.93827000000E+00 0. -1.
     999902    2    1    2    0    0 -0.88244010310E-02  0.16257324048E-01  0.15331748866E-01  0.10199043229E+01  0.10196212996E+01 0.  0.
     999903    2    3    3    0    0 -0.10511870308E+00 -0.69477665620E-01  0.27090918415E-01  0.13043180551E+00  0.20036223951E-01 0.  0.
         14    1    1    2    0    0  0.88244010310E-02 -0.16257324048E-01 -0.15331748866E-01  0.24025677140E-01  0.00000000000E+00 0. -1.
     999901    1    3    3    0    0  0.96294302046E-01  0.85734989668E-01 -0.11759169550E-01  0.88947251735E+00  0.88000000000E+00 0. -1.
        -11    1    4    4    0    0 -0.83353181788E-01 -0.45322902890E-01  0.17060004920E-01  0.96401365807E-01  0.51100000000E-03 0. -1.
         11    1    4    4    0    0 -0.21765521289E-01 -0.24154762730E-01  0.10030913495E-01  0.34030439698E-01  0.51100000000E-03 0.  1.
</event>
<event>
 8    1  0.1123285E+005  0.1043930E+01  0.7957747E-01            NaN
         13   -1    0    0    0    0  0.00000000000E+00  0.00000000000E+00  0.74505805969E-08  0.10566000000E+00  0.10566000000E+00 0.  1.
     999900   -1    0    0    0    0 -0.00000000000E+00 -0.00000000000E+00 -0.74505805969E-08  0.93827000000E+00  0.93827000000E+00 0.  1.
     999902    2    1    2    0    0 -0.77248374077E-02 -0.20942558493E-01  0.74727199325E-02  0.10203905562E+01  0.10201190038E+01 0.  0.
     999903    2    3    3    0    0  0.80490488449E-01  0.81334188973E-01  0.55845866885E-01  0.12877267950E+00  0.19226885082E-01 0.  0.
         14    1    1    2    0    0  0.77248374077E-02  0.20942558493E-01 -0.74727199325E-02  0.23539443757E-01  0.00000000000E+00 0.  1.
     999901    1    3    3    0    0 -0.88215325857E-01 -0.10227674747E+00 -0.48373146952E-01  0.89161787675E+00  0.88000000000E+00 0.  1.
        -11    1    4    4    0    0  0.59652904366E-01  0.64304334274E-01  0.50877831898E-01  0.10140183088E+00  0.51100000000E-03 0.  1.
         11    1    4    4    0    0  0.20837584084E-01  0.17029854698E-01  0.49680349872E-02  0.27370848619E-01  0.51100000000E-03 0. -1.
</event>
<event>
 8    1  0.1123285E+005  0.1043930E+01  0.7957747E-01            NaN
         13   -1    0    0    0    0  0.00000000000E+00  0.00000000000E+00  0.74505805969E-08  0.10566000000E+00  0.10566000000E+00 0. -1.
     999900   -1    0    0    0    0 -0.00000000000E+00 -0.00000000000E+00 -0.74505805969E-08  0.93827000000E+00  0.93827000000E+00 0. -1.
     999902    2    1    2    0    0  0.15320914185E-01  0.86279913678E-02  0.69642529352E-02  0.10250177430E+01  0.10248432563E+01 0.  0.
     999903    2    3    3    0    0 -0.57428536445E-01 -0.84195285686E-01 -0.82475312626E-01  0.13265678507E+00  0.20217875785E-01 0.  0.
         14    1    1    2    0    0 -0.15320914185E-01 -0.86279913678E-02 -0.69642529352E-02  0.18912257016E-01  0.00000000000E+00 0.  1.
     999901    1    3    3    0    0  0.72749450630E-01  0.92823277053E-01  0.89439565561E-01  0.89236095792E+00  0.88000000000E+00 0.  1.
        -11    1    4    4    0    0 -0.38720009268E-01 -0.39592828815E-01 -0.40451780636E-01  0.68581622093E-01  0.51100000000E-03 0.  1.
         11    1    4    4    0    0 -0.18708527177E-01 -0.44602456871E-01 -0.42023531990E-01  0.64075162972E-01  0.51100000000E-03 0. -1.
</event>
<event>
 8    1  0.1123285E+005  0.1043930E+01  0.7957747E-01            NaN
         13   -1    0    0    0    0  0.00000000000E+00  0.00000000000E+00  0.74505805969E-08  0.10566000000E+00  0.10566000000E+00 0.  1.
     999900   -1    0    0    0    0 -0.00000000000E+00 -0.00000000000E+00 -0.74505805969E-08  0.93827000000E+00  0.93827000000E+00 0.  1.
     999902    2    1    2    0    0  0.10214385664E-01  0.77379919765E-02 -0.19483829300E-01  0.10206098414E+01  0.10203433826E+01 0.  0.
     999903    2    3    3    0    0 -0.21033763127E-03  0.12818245692E+00  0.22731257302E-01  0.13134179543E+00  0.17411796690E-01 0.  0.
         14    1    1    2    0    0 -0.10214385664E-01 -0.77379919765E-02  0.19483829300E-01  0.23320158630E-01  0.00000000000E+00 0.  1.
     999901    1    3    3    0    0  0.10424723295E-01 -0.12044446495E+00 -0.42215086602E-01  0.88926804594E+00  0.88000000000E+00 0. -1.
        -11    1    4    4    0    0  0.12321418567E-02  0.10334869973E+00  0.25060737305E-01  0.10635212073E+00  0.51100000000E-03 0. -1.
         11    1    4    4    0    0 -0.14424794879E-02  0.24833757194E-01 -0.23294800032E-02  0.24989674699E-01  0.51100000000E-03 0.  1.
</event>
<event>
 8    1  0.1123285E+005  0.1043930E+01  0.7957747E-01            NaN
         13   -1    0    0    0    0  0.00000000000E+00  0.00000000000E+00  0.74505805969E-08  0.10566000000E+00  0.10566000000E+00 0.  1.
     999900   -1    0    0    0    0 -0.00000000000E+00 -0.00000000000E+00 -0.74505805969E-08  0.93827000000E+00  0.93827000000E+00 0. -1.
     999902    2    1    2    0    0 -0.22302618020E-01  0.71273566572E-02  0.29079675835E-02  0.10203363089E+01  0.10200634887E+01 0.  0.
     999903    2    3    3    0    0 -0.30500425787E-01 -0.52037739570E-02 -0.12556036566E+00  0.13088514473E+00  0.20202981176E-01 0.  0.
         14    1    1    2    0    0  0.22302618020E-01 -0.71273566572E-02 -0.29079675835E-02  0.23593691083E-01  0.00000000000E+00 0.  1.
     999901    1    3    3    0    0  0.81978077670E-02  0.12331130614E-01  0.12846833324E+00  0.88945116419E+00  0.88000000000E+00 0.  1.
        -11    1    4    4    0    0 -0.67673737440E-05 -0.60511138264E-02 -0.28613938413E-01  0.29251232740E-01  0.51100000000E-03 0.  1.
         11    1    4    4    0    0 -0.30493658413E-01  0.84733986934E-03 -0.96946427248E-01  0.10163391199E+00  0.51100000000E-03 0. -1.
</event>
<event>
 8    1  0.1123285E+005  0.1043930E+01  0.7957747E-01            NaN
         13   -1    0    0    0    0  0.00000000000E+00  0.00000000000E+00  0.74505805969E-08  0.10566000000E+00  0.10566000000E+00 0. -1.
     999900   -1    0    0    0    0 -0.00000000000E+00 -0.00000000000E+00 -0.74505805969E-08  0.93827000000E+00  0.93827000000E+00 0. -1.
     999902    2    1    2    0    0 -0.11820391355E-01 -0.19941408018E-01 -0.39253855574E-02  0.10204185122E+01  0.10201476119E+01 0.  0.
     999903    2    3    3    0    0 -0.54538330372E-01  0.76666875310E-01  0.86758726647E-01  0.12947429909E+00  0.19603015715E-01 0.  0.
         14    1    1    2    0    0  0.11820391355E-01  0.19941408018E-01  0.39253855574E-02  0.23511487773E-01  0.00000000000E+00 0. -1.
     999901    1    3    3    0    0  0.42717939017E-01 -0.96608283328E-01 -0.90684112205E-01  0.89094421314E+00  0.88000000000E+00 0. -1.
        -11    1    4    4    0    0 -0.47657641579E-01  0.72350908090E-01  0.72128325219E-01  0.11273269766E+00  0.51100000000E-03 0. -1.
         11    1    4    4    0    0 -0.68806887926E-02  0.43159672197E-02  0.14630401429E-01  0.16741601425E-01  0.51100000000E-03 0.  1.
</event>
<event>
 8    1  0.1123285E+005  0.1043930E+01  0.7957747E-01            NaN
         13   -1    0    0    0    0  0.00000000000E+00  0.00000000000E+00  0.74505805969E-08  0.10566000000E+00  0.10566000000E+00 0. -1.
     999900   -1    0    0    0    0 -0.00000000000E+00 -0.00000000000E+00 -0.74505805969E-08  0.93827000000E+00  0.93827000000E+00 0. -1.
     999902    2    1    2    0    0  0.16238452282E-02  0.22832608806E-01  0.65592190203E-03  0.10210303246E+01  0.10207734953E+01 0.  0.
     999903    2    3    3    0    0  0.66926212074E-01 -0.17395667900E-02 -0.11127179626E+00  0.13120112472E+00  0.18713057743E-01 0.  0.
         14    1    1    2    0    0 -0.16238452282E-02 -0.22832608806E-01 -0.65592190203E-03  0.22899675364E-01  0.00000000000E+00 0.  1.
     999901    1    3    3    0    0 -0.65302366846E-01  0.24572175596E-01  0.11192771816E+00  0.88982919992E+00  0.88000000000E+00 0.  1.
        -11    1    4    4    0    0  0.28152674971E-01 -0.81115825753E-02 -0.58243613338E-01  0.65199313612E-01  0.51100000000E-03 0.  1.
         11    1    4    4    0    0  0.38773537103E-01  0.63720157853E-02 -0.53028182922E-01  0.66001811109E-01  0.51100000000E-03 0. -1.
</event>
<event>
 8    1  0.1123285E+005  0.1043930E+01  0.7957747E-01            NaN
         13   -1    0    0    0    0  0.00000000000E+00  0.00000000000E+00  0.74505805969E-08  0.10566000000E+00  0.10566000000E+00 0. -1.
     999900   -1    0    0    0    0 -0.00000000000E+00 -0.00000000000E+00 -0.74505805969E-08  0.93827000000E+00  0.93827000000E+00 0.  1.
     999902    2    1    2    0    0  0.12342437656E-02 -0.64694749033E-02 -0.23293837956E-01  0.10197229690E+01  0.10194356052E+01 0.  0.
     999903    2    3    3    0    0  0.12160702710E+00 -0.28489063204E-01  0.28510250267E-01  0.12974649021E+00  0.20528555500E-01 0.  0.
         14    1    1    2    0    0 -0.12342437656E-02  0.64694749033E-02  0.23293837956E-01  0.24207031002E-01  0.00000000000E+00 0. -1.
     999901    1    3    3    0    0 -0.12037278333E+00  0.22019588301E-01 -0.51804088223E-01  0.88997647879E+00  0.88000000000E+00 0. -1.
        -11    1    4    4    0    0  0.17094689800E-01  0.29217125050E-02  0.22089271045E-02  0.17490148750E-01  0.51100000000E-03 0.  1.
         11    1    4    4    0    0  0.10451233730E+00 -0.31410775709E-01  0.26301323163E-01  0.11225634146E+00  0.51100000000E-03 0. -1.
</event>
<event>
 8    1  0.1123285E+005  0.1043930E+01  0.7957747E-01            NaN
         13   -1    0    0    0    0  0.00000000000E+00  0.00000000000E+00  0.74505805969E-08  0.10566000000E+00  0.10566000000E+00 0. -1.
     999900   -1    0    0    0    0 -0.00000000000E+00 -0.00000000000E+00 -0.74505805969E-08  0.93827000000E+00  0.93827000000E+00 0.  1.
     999902    2    1    2    0    0  0.22629222603E-01 -0.27558280711E-02  0.28405324145E-02  0.10209573004E+01  0.10206988117E+01 0.  0.
     999903    2    3    3    0    0  0.11158653373E+00 -0.63761912352E-01 -0.31149884507E-01  0.13371973694E+00  0.19837256979E-01 0.  0.
         14    1    1    2    0    0 -0.22629222603E-01  0.27558280711E-02 -0.28405324145E-02  0.22972699632E-01  0.00000000000E+00 0.  1.
     999901    1    3    3    0    0 -0.88957311128E-01  0.61006084281E-01  0.33990416922E-01  0.88723756343E+00  0.88000000000E+00 0. -1.
        -11    1    4    4    0    0  0.50735834414E-01 -0.19557451561E-01 -0.76021172115E-02  0.54906029836E-01  0.51100000000E-03 0.  1.
         11    1    4    4    0    0  0.60850699317E-01 -0.44204460791E-01 -0.23547767296E-01  0.78813707100E-01  0.51100000000E-03 0. -1.
</event>
<event>
 8    1  0.1123285E+005  0.1043930E+01  0.7957747E-01            NaN
         13   -1    0    0    0    0  0.00000000000E+00  0.00000000000E+00  0.74505805969E-08  0.10566000000E+00  0.10566000000E+00 0.  1.
     999900   -1    0    0    0    0 -0.00000000000E+00 -0.00000000000E+00 -0.74505805969E-08  0.93827000000E+00  0.93827000000E+00 0. -1.
     999902    2    1    2    0    0 -0.88057274306E-02  0.10510647367E-01  0.19438800978E-01  0.10201417355E+01  0.10198643434E+01 0.  0.
     999903    2    3    3    0    0 -0.12972218761E+00  0.90767343965E-02 -0.18888624750E-02  0.13161615025E+00  0.20223999104E-01 0.  0.
         14    1    1    2    0    0  0.88057274306E-02 -0.10510647367E-01 -0.19438800978E-01  0.23788264483E-01  0.00000000000E+00 0. -1.
     999901    1    3    3    0    0  0.12091646018E+00  0.14339129704E-02  0.21327663453E-01  0.88852558527E+00  0.88000000000E+00 0.  1.
        -11    1    4    4    0    0 -0.71734850716E-01  0.18086901015E-02  0.84848138432E-02  0.72259347866E-01  0.51100000000E-03 0. -1.
         11    1    4    4    0    0 -0.57987336892E-01  0.72680442950E-02 -0.10373676318E-01  0.59356802382E-01  0.51100000000E-03 0.  1.
</event>
<event>
 8    1  0.1123285E+005  0.1043930E+01  0.7957747E-01            NaN
         13   -1    0    0    0    0  0.00000000000E+00  0.00000000000E+00  0.74505805969E-08  0.10566000000E+00  0.10566000000E+00 0. -1.
     999900   -1    0    0    0    0 -0.00000000000E+00 -0.00000000000E+00 -0.74505805969E-08  0.93827000000E+00  0.93827000000E+00 0. -1.
     999902    2    1    2    0    0  0.20803532462E-01  0.11855057061E-01  0.47015502761E-02  0.10195284854E+01  0.10192364292E+01 0.  0.
     999903    2    3    3    0    0  0.69495167370E-01 -0.21656605532E-01 -0.10619001938E+00  0.13060169027E+00  0.21952094085E-01 0.  0.
         14    1    1    2    0    0 -0.20803532462E-01 -0.11855057061E-01 -0.47015502761E-02  0.24401514621E-01  0.00000000000E+00 0. -1.
     999901    1    3    3    0    0 -0.48691634908E-01  0.33511662593E-01  0.11089156966E+00  0.88892679511E+00  0.88000000000E+00 0.  1.
        -11    1    4    4    0    0  0.22517895467E-01 -0.14004760150E-01 -0.52712385538E-01  0.59008860633E-01  0.51100000000E-03 0. -1.
         11    1    4    4    0    0  0.46977271903E-01 -0.76518453822E-02 -0.53477633842E-01  0.71592829638E-01  0.51100000000E-03 0.  1.
</event>
<event>
 8    1  0.1123285E+005  0.1043930E+01  0.7957747E-01            NaN
         13   -1    0    0    0    0  0.00000000000E+00  0.00000000000E+00  0.74505805969E-08  0.10566000000E+00  0.10566000000E+00 0. -1.
     999900   -1    0    0    0    0 -0.00000000000E+00 -0.00000000000E+00 -0.74505805969E-08  0.93827000000E+00  0.93827000000E+00 0. -1.
     999902    2    1    2    0    0  0.21531323819E-02 -0.21883663391E-01 -0.92088848089E-02  0.10200902378E+01  0.10198116292E+01 0.  0.
     999903    2    3    3    0    0 -0.95414737219E-02  0.58679585387E-01 -0.11405929875E+00  0.13013472758E+00  0.19778529468E-01 0.  0.
         14    1    1    2    0    0 -0.21531323819E-02  0.21883663391E-01  0.92088848089E-02  0.23839762203E-01  0.00000000000E+00 0. -1.
     999901    1    3    3    0    0  0.11694606104E-01 -0.80563248779E-01  0.10485041394E+00  0.88995551022E+00  0.88000000000E+00 0.  1.
        -11    1    4    4    0    0 -0.60222814468E-02  0.58749453407E-01 -0.10647263000E+00  0.12175569066E+00  0.51100000000E-03 0.  1.
         11    1    4    4    0    0 -0.35191922751E-02 -0.69868020010E-04 -0.75866687556E-02  0.83790369146E-02  0.51100000000E-03 0. -1.
</event>
<event>
 8    1  0.1123285E+005  0.1043930E+01  0.7957747E-01            NaN
         13   -1    0    0    0    0  0.00000000000E+00  0.00000000000E+00  0.74505805969E-08  0.10566000000E+00  0.10566000000E+00 0. -1.
     999900   -1    0    0    0    0 -0.00000000000E+00 -0.00000000000E+00 -0.74505805969E-08  0.93827000000E+00  0.93827000000E+00 0.  1.
     999902    2    1    2    0    0 -0.23197056436E-01  0.82693140993E-03  0.16925869879E-02  0.10206565797E+01  0.10203912002E+01 0.  0.
     999903    2    3    3    0    0  0.65837499267E-01  0.10429025246E+00 -0.34391742542E-01  0.12940246903E+00  0.18739636281E-01 0.  0.
         14    1    1    2    0    0  0.23197056436E-01 -0.82693140993E-03 -0.16925869879E-02  0.23273420323E-01  0.00000000000E+00 0.  1.
     999901    1    3    3    0    0 -0.89034555702E-01 -0.10346332105E+00  0.36084329530E-01  0.89125411065E+00  0.88000000000E+00 0. -1.
        -11    1    4    4    0    0  0.56137708104E-01  0.75628903454E-01 -0.29823190462E-01  0.98797050154E-01  0.51100000000E-03 0.  1.
         11    1    4    4    0    0  0.96997911631E-02  0.28661349004E-01 -0.45685520800E-02  0.30605418874E-01  0.51100000000E-03 0. -1.
</event>
<event>
 8    1  0.1123285E+005  0.1043930E+01  0.7957747E-01            NaN
         13   -1    0    0    0    0  0.00000000000E+00  0.00000000000E+00  0.74505805969E-08  0.10566000000E+00  0.10566000000E+00 0.  1.
     999900   -1    0    0    0    0 -0.00000000000E+00 -0.00000000000E+00 -0.74505805969E-08  0.93827000000E+00  0.93827000000E+00 0. -1.
     999902    2    1    2    0    0 -0.73313885022E-02 -0.13488339413E-02 -0.22263719019E-01  0.10204514610E+01  0.10201813282E+01 0.  0.
     999903    2    3    3    0    0 -0.96322137872E-01  0.46069652116E-01  0.71068445121E-01  0.12978948291E+00  0.19854946310E-01 0.  0.
         14    1    1    2    0    0  0.73313885022E-02  0.13488339413E-02  0.22263719019E-01  0.23478539029E-01  0.00000000000E+00 0.  1.
     999901    1    3    3    0    0  0.88990749369E-01 -0.47418486057E-01 -0.93332164140E-01  0.89066197806E+00  0.88000000000E+00 0. -1.
        -11    1    4    4    0    0 -0.43934487397E-01  0.22534691861E-01  0.44643609288E-01  0.66568494735E-01  0.51100000000E-03 0. -1.
         11    1    4    4    0    0 -0.52387650475E-01  0.23534960255E-01  0.26424835832E-01  0.63220988178E-01  0.51100000000E-03 0.  1.
</event>
<event>
 8    1  0.1123285E+005  0.1043930E+01  0.7957747E-01            NaN
         13   -1    0    0    0    0  0.00000000000E+00  0.00000000000E+00  0.74505805969E-08  0.10566000000E+00  0.10566000000E+00 0. -1.
     999900   -1    0    0    0    0 -0.00000000000E+00 -0.00000000000E+00 -0.74505805969E-08  0.93827000000E+00  0.93827000000E+00 0.  1.
     999902    2    1    2    0    0 -0.12192781770E-01  0.99220673413E-02 -0.15499155337E-01  0.10218543310E+01  0.10216158468E+01 0.  0.
     999903    2    3    3    0    0  0.14586509628E-01  0.12653717424E+00 -0.33568294482E-01  0.13357357163E+00  0.22150528537E-01 0.  0.
         14    1    1    2    0    0  0.12192781770E-01 -0.99220673413E-02  0.15499155337E-01  0.22075669045E-01  0.00000000000E+00 0. -1.
     999901    1    3    3    0    0 -0.26779291398E-01 -0.11661510690E+00  0.18069139145E-01  0.88828075933E+00  0.88000000000E+00 0. -1.
        -11    1    4    4    0    0  0.96799610455E-02  0.19038884780E-01 -0.90625069589E-02  0.23207131079E-01  0.51100000000E-03 0.  1.
         11    1    4    4    0    0  0.49065485825E-02  0.10749828946E+00 -0.24505787523E-01  0.11036644055E+00  0.51100000000E-03 0. -1.
</event>
<event>
 8    1  0.1123285E+005  0.1043930E+01  0.7957747E-01            NaN
         13   -1    0    0    0    0  0.00000000000E+00  0.00000000000E+00  0.74505805969E-08  0.10566000000E+00  0.10566000000E+00 0.  1.
     999900   -1    0    0    0    0 -0.00000000000E+00 -0.00000000000E+00 -0.74505805969E-08  0.93827000000E+00  0.93827000000E+00 0. -1.
     999902    2    1    2    0    0  0.65559870881E-02  0.86714345201E-02 -0.22285981102E-01  0.10191340387E+01  0.10188323459E+01 0.  0.
     999903    2    3    3    0    0 -0.10820182920E+00  0.23547508172E-01  0.60445255033E-01  0.12771095654E+00  0.19857960156E-01 0.  0.
         14    1    1    2    0    0 -0.65559870881E-02 -0.86714345201E-02  0.22285981102E-01  0.24795961304E-01  0.00000000000E+00 0.  1.
     999901    1    3    3    0    0  0.11475781629E+00 -0.14876073652E-01 -0.82731236135E-01  0.89142308215E+00  0.88000000000E+00 0. -1.
        -11    1    4    4    0    0 -0.50701790731E-01  0.27167199179E-02  0.21084742978E-01  0.54980720784E-01  0.51100000000E-03 0.  1.
         11    1    4    4    0    0 -0.57500038467E-01  0.20830788254E-01  0.39360512055E-01  0.72730235757E-01  0.51100000000E-03 0. -1.
</event>
<event>
 8    1  0.1123285E+005  0.1043930E+01  0.7957747E-01            NaN
         13   -1    0    0    0    0  0.00000000000E+00  0.00000000000E+00  0.74505805969E-08  0.10566000000E+00  0.10566000000E+00 0.  1.
     999900   -1    0    0    0    0 -0.00000000000E+00 -0.00000000000E+00 -0.74505805969E-08  0.93827000000E+00  0.93827000000E+00 0.  1.
     999902    2    1    2    0    0  0.53700088602E-02 -0.12319243741E-01 -0.19656389750E-01  0.10201187753E+01  0.10198408412E+01 0.  0.
     999903    2    3    3    0    0  0.35764772889E-01  0.11704209663E-01  0.12054751329E+00  0.12817813695E+00  0.21950497227E-01 0.  0.
         14    1    1    2    0    0 -0.53700088602E-02  0.12319243741E-01  0.19656389750E-01  0.23811224654E-01  0.00000000000E+00 0.  1.
     999901    1    3    3    0    0 -0.30394764028E-01 -0.24023453405E-01 -0.14020390304E+00  0.89194063840E+00  0.88000000000E+00 0.  1.
        -11    1    4    4    0    0  0.31472294109E-01  0.17398259565E-01  0.92826261095E-01  0.99549890016E-01  0.51100000000E-03 0.  1.
         11    1    4    4    0    0  0.42924787798E-02 -0.56940499021E-02  0.27721252193E-01  0.28628246934E-01  0.51100000000E-03 0. -1.
</event>
<event>
 8    1  0.1123285E+005  0.1043930E+01  0.7957747E-01            NaN
         13   -1    0    0    0    0  0.00000000000E+00  0.00000000000E+00  0.74505805969E-08  0.10566000000E+00  0.10566000000E+00 0.  1.
     999900   -1    0    0    0    0 -0.00000000000E+00 -0.00000000000E+00 -0.74505805969E-08  0.93827000000E+00  0.93827000000E+00 0. -1.
     999902    2    1    2    0    0  0.13738853172E-01  0.95635005233E-02  0.16132973468E-01  0.10206815708E+01  0.10204167675E+01 0.  0.
     999903    2    3    3    0    0 -0.37398167647E-01  0.11028079155E+00 -0.55650139839E-01  0.13056259953E+00  0.19727605104E-01 0.  0.
         14    1    1    2    0    0 -0.13738853172E-01 -0.95635005233E-02 -0.16132973468E-01  0.23248429230E-01  0.00000000000E+00 0. -1.
     999901    1    3    3    0    0  0.51137020819E-01 -0.10071729103E+00  0.71783113306E-01  0.89011897124E+00  0.88000000000E+00 0.  1.
        -11    1    4    4    0    0 -0.20766175877E-01  0.53385872966E-01 -0.37886537094E-01  0.68679955642E-01  0.51100000000E-03 0.  1.
         11    1    4    4    0    0 -0.16631991770E-01  0.56894918583E-01 -0.17763602744E-01  0.61882643886E-01  0.51100000000E-03 0. -1.
</event>
<event>
 8    1  0.1123285E+005  0.1043930E+01  0.7957747E-01            NaN
         13   -1    0    0    0    0  0.00000000000E+00  0.00000000000E+00  0.74505805969E-08  0.10566000000E+00  0.10566000000E+00 0.  1.
     999900   -1    0    0    0    0 -0.00000000000E+00 -0.00000000000E+00 -0.74505805969E-08  0.93827000000E+00  0.93827000000E+00 0.  1.
     999902    2    1    2    0    0 -0.11099261888E-01  0.11586484099E-03 -0.21762473409E-01  0.10195002581E+01  0.10192075176E+01 0.  0.
     999903    2    3    3    0    0  0.75779426874E-01  0.53368007920E-01  0.84679745618E-01  0.12724825152E+00  0.20755538779E-01 0.  0.
         14    1    1    2    0    0  0.11099261888E-01 -0.11586484099E-03  0.21762473409E-01  0.24429741873E-01  0.00000000000E+00 0.  1.
     999901    1    3    3    0    0 -0.86878688762E-01 -0.53252143079E-01 -0.10644221903E+00  0.89225200661E+00  0.88000000000E+00 0.  1.
        -11    1    4    4    0    0  0.45295712914E-01  0.20312454610E-01  0.50006756991E-01  0.70464418584E-01  0.51100000000E-03 0.  1.
         11    1    4    4    0    0  0.30483713960E-01  0.33055553310E-01  0.34672988627E-01  0.56783832935E-01  0.51100000000E-03 0. -1.
</event>
<event>
 8    1  0.1123285E+005  0.1043930E+01  0.7957747E-01            NaN
         13   -1    0    0    0    0  0.00000000000E+00  0.00000000000E+00  0.74505805969E-08  0.10566000000E+00  0.10566000000E+00 0. -1.
     999900   -1    0    0    0    0 -0.00000000000E+00 -0.00000000000E+00 -0.74505805969E-08  0.93827000000E+00  0.93827000000E+00 0. -1.
     999902    2    1    2    0    0  0.48271048177E-02  0.51635512186E-02  0.23036502726E-01  0.10198334513E+01  0.10195487358E+01 0.  0.
     999903    2    3    3    0    0 -0.12082357793E+00  0.21765727308E-01 -0.33681470500E-01  0.12894588553E+00  0.20506488555E-01 0.  0.
         14    1    1    2    0    0 -0.48271048177E-02 -0.51635512186E-02 -0.23036502726E-01  0.24096548715E-01  0.00000000000E+00 0.  1.
     999901    1    3    3    0    0  0.12565068274E+00 -0.16602176089E-01  0.56717973226E-01  0.89088756575E+00  0.88000000000E+00 0. -1.
        -11    1    4    4    0    0 -0.20859515454E-01  0.10265134873E-01 -0.11335422288E-01  0.25869775770E-01  0.51100000000E-03 0.  1.
         11    1    4    4    0    0 -0.99964062472E-01  0.11500592435E-01 -0.22346048212E-01  0.10307610976E+00  0.51100000000E-03 0. -1.
</event>
<event>
 8    1  0.1138263E+005  0.1043930E+01  0.7957747E-01            NaN
         13   -1    0    0    0    0  0.00000000000E+00  0.00000000000E+00  0.74505805969E-08  0.10566000000E+00  0.10566000000E+00 0.  1.
     999900   -1    0    0    0    0 -0.00000000000E+00 -0.00000000000E+00 -0.74505805969E-08  0.93827000000E+00  0.93827000000E+00 0. -1.
     999902    2    1    2    0    0  0.64967061125E-02  0.11273357233E-01  0.19705606204E-01  0.10203163029E+01  0.10200430144E+01 0.  0.
     999903    2    3    3    0    0  0.89968853808E-01 -0.87257650278E-01 -0.26740874909E-01  0.12967988188E+00  0.19836965156E-01 0.  0.
         14    1    1    2    0    0 -0.64967061125E-02 -0.11273357233E-01 -0.19705606204E-01  0.23613697074E-01  0.00000000000E+00 0. -1.
     999901    1    3    3    0    0 -0.83472147695E-01  0.98531007511E-01  0.46446481113E-01  0.89063642104E+00  0.88000000000E+00 0.  1.
        -11    1    4    4    0    0  0.54309408180E-01 -0.42398868330E-01 -0.78925127901E-02  0.69352207835E-01  0.51100000000E-03 0. -1.
         11    1    4    4    0    0  0.35659445628E-01 -0.44858781948E-01 -0.18848362119E-01  0.60327674047E-01  0.51100000000E-03 0.  1.
</event>
<event>
 8    1  0.1123285E+005  0.1043930E+01  0.7957747E-01            NaN
         13   -1    0    0    0    0  0.00000000000E+00  0.00000000000E+00  0.74505805969E-08  0.10566000000E+00  0.10566000000E+00 0.  1.
     999900   -1    0    0    0    0 -0.00000000000E+00 -0.00000000000E+00 -0.74505805969E-08  0.93827000000E+00  0.93827000000E+00 0.  1.
     999902    2    1    2    0    0  0.13388781660E-01  0.17255655644E-01  0.81179506532E-02  0.10206293938E+01  0.10203633869E+01 0.  0.
     999903    2    3    3    0    0 -0.81660434656E-01 -0.67319126888E-01 -0.69235255000E-01  0.12812126175E+00  0.20524272098E-01 0.  0.
         14    1    1    2    0    0 -0.13388781660E-01 -0.17255655644E-01 -0.81179506532E-02  0.23300606190E-01  0.00000000000E+00 0.  1.
     999901    1    3    3    0    0  0.95049216316E-01  0.84574782532E-01  0.77353205653E-01  0.89250813206E+00  0.88000000000E+00 0.  1.
        -11    1    4    4    0    0 -0.67302288824E-01 -0.53495389543E-01 -0.64893628746E-01  0.10771628919E+00  0.51100000000E-03 0.  1.
         11    1    4    4    0    0 -0.14358145832E-01 -0.13823737345E-01 -0.43416262538E-02  0.20404972566E-01  0.51100000000E-03 0. -1.
</event>
<event>
 8    1  0.1123285E+005  0.1043930E+01  0.7957747E-01            NaN
         13   -1    0    0    0    0  0.00000000000E+00  0.00000000000E+00  0.74505805969E-08  0.10566000000E+00  0.10566000000E+00 0. -1.
     999900   -1    0    0    0    0 -0.00000000000E+00 -0.00000000000E+00 -0.74505805969E-08  0.93827000000E+00  0.93827000000E+00 0. -1.
     999902    2    1    2    0    0 -0.23230288749E-01 -0.15982710939E-02 -0.36040371928E-02  0.10203675326E+01  0.10200954425E+01 0.  0.
     999903    2    3    3    0    0 -0.53219737495E-01  0.23472568056E-01 -0.11710305883E+00  0.13221780315E+00  0.19624453393E-01 0.  0.
         14    1    1    2    0    0  0.23230288749E-01  0.15982710939E-02  0.36040371928E-02  0.23562467399E-01  0.00000000000E+00 0. -1.
     999901    1    3    3    0    0  0.29989448746E-01 -0.25070839150E-01  0.11349902164E+00  0.88814972945E+00  0.88000000000E+00 0. -1.
        -11    1    4    4    0    0 -0.28970896441E-01  0.22640714308E-01 -0.77282325225E-01  0.85584658077E-01  0.51100000000E-03 0.  1.
         11    1    4    4    0    0 -0.24248841053E-01  0.83185374828E-03 -0.39820733609E-01  0.46633145072E-01  0.51100000000E-03 0. -1.
</event>
<event>
 8    1  0.1123285E+005  0.1043930E+01  0.7957747E-01            NaN
         13   -1    0    0    0    0  0.00000000000E+00  0.00000000000E+00  0.74505805969E-08  0.10566000000E+00  0.10566000000E+00 0.  1.
     999900   -1    0    0    0    0 -0.00000000000E+00 -0.00000000000E+00 -0.74505805969E-08  0.93827000000E+00  0.93827000000E+00 0.  1.
     999902    2    1    2    0    0  0.10570814438E-01 -0.19093921009E-01  0.94741320563E-02  0.10201375828E+01  0.10198600927E+01 0.  0.
     999903    2    3    3    0    0 -0.11637543831E+00 -0.16982086981E-01  0.52346662284E-01  0.12999272675E+00  0.18063832271E-01 0.  0.
         14    1    1    2    0    0 -0.10570814438E-01  0.19093921009E-01 -0.94741320563E-02  0.23792417187E-01  0.00000000000E+00 0. -1.
     999901    1    3    3    0    0  0.12694625274E+00 -0.21118340274E-02 -0.42872530228E-01  0.89014485606E+00  0.88000000000E+00 0.  1.
        -11    1    4    4    0    0 -0.20319226240E-01 -0.93831201198E-03  0.16570700136E-01  0.26241200590E-01  0.51100000000E-03 0.  1.
         11    1    4    4    0    0 -0.96056212066E-01 -0.16043774969E-01  0.35775962149E-01  0.10375152616E+00  0.51100000000E-03 0. -1.
</event>
<event>
 8    1  0.1123285E+005  0.1043930E+01  0.7957747E-01            NaN
         13   -1    0    0    0    0  0.00000000000E+00  0.00000000000E+00  0.74505805969E-08  0.10566000000E+00  0.10566000000E+00 0.  1.
     999900   -1    0    0    0    0 -0.00000000000E+00 -0.00000000000E+00 -0.74505805969E-08  0.93827000000E+00  0.93827000000E+00 0. -1.
     999902    2    1    2    0    0  0.11784464884E-01  0.78334653565E-02  0.18951558015E-01  0.10202783966E+01  0.10200042197E+01 0.  0.
     999903    2    3    3    0    0 -0.97162586078E-01 -0.81987949376E-01  0.84171092212E-02  0.12896009147E+00  0.19931519944E-01 0.  0.
         14    1    1    2    0    0 -0.11784464884E-01 -0.78334653565E-02 -0.18951558015E-01  0.23651603398E-01  0.00000000000E+00 0. -1.
     999901    1    3    3    0    0  0.10894705096E+00  0.89821414733E-01  0.10534448794E-01  0.89131830514E+00  0.88000000000E+00 0.  1.
        -11    1    4    4    0    0 -0.43582286478E-01 -0.48356273014E-01 -0.29109645373E-03  0.65100619755E-01  0.51100000000E-03 0. -1.
         11    1    4    4    0    0 -0.53580299600E-01 -0.33631676363E-01  0.87082056750E-02  0.63859471711E-01  0.51100000000E-03 0.  1.
</event>
<event>
 8    1  0.1123285E+005  0.1043930E+01  0.7957747E-01            NaN
         13   -1    0    0    0    0  0.00000000000E+00  0.00000000000E+00  0.74505805969E-08  0.10566000000E+00  0.10566000000E+00 0. -1.
     999900   -1    0    0    0    0 -0.00000000000E+00 -0.00000000000E+00 -0.74505805969E-08  0.93827000000E+00  0.93827000000E+00 0. -1.
     999902    2    1    2    0    0  0.96117588244E-02 -0.17580734699E-01 -0.12003188390E-01  0.10205731023E+01  0.10203057936E+01 0.  0.
     999903    2    3    3    0    0 -0.40119958877E-01  0.92343505558E-01 -0.79475201932E-01  0.12978185009E+00  0.19750614458E-01 0.  0.
         14    1    1    2    0    0 -0.96117588244E-02  0.17580734699E-01  0.12003188390E-01  0.23356897735E-01  0.00000000000E+00 0. -1.
     999901    1    3    3    0    0  0.49731717702E-01 -0.10992424026E+00  0.67472013542E-01  0.89079125218E+00  0.88000000000E+00 0.  1.
        -11    1    4    4    0    0 -0.29688365902E-01  0.48339846798E-01 -0.36950987651E-01  0.67703592725E-01  0.51100000000E-03 0.  1.
         11    1    4    4    0    0 -0.10431592975E-01  0.44003658759E-01 -0.42524214281E-01  0.62078257365E-01  0.51100000000E-03 0. -1.
</event>
<event>
 8    1  0.1123285E+005  0.1043930E+01  0.7957747E-01            NaN
         13   -1    0    0    0    0  0.00000000000E+00  0.00000000000E+00  0.74505805969E-08  0.10566000000E+00  0.10566000000E+00 0. -1.
     999900   -1    0    0    0    0 -0.00000000000E+00 -0.00000000000E+00 -0.74505805969E-08  0.93827000000E+00  0.93827000000E+00 0.  1.
     999902    2    1    2    0    0 -0.19124363744E-01  0.78894924744E-02 -0.10922036939E-01  0.10205360634E+01  0.10202678964E+01 0.  0.
     999903    2    3    3    0    0  0.45193119256E-01 -0.93401533241E-01 -0.75953584800E-01  0.13001615190E+00  0.19209067412E-01 0.  0.
         14    1    1    2    0    0  0.19124363744E-01 -0.78894924744E-02  0.10922036939E-01  0.23393936629E-01  0.00000000000E+00 0. -1.
     999901    1    3    3    0    0 -0.64317483000E-01  0.10129102572E+00  0.65031547861E-01  0.89051991147E+00  0.88000000000E+00 0. -1.
        -11    1    4    4    0    0  0.31341045621E-01 -0.42754559367E-01 -0.38287186364E-01  0.65394061260E-01  0.51100000000E-03 0.  1.
         11    1    4    4    0    0  0.13852073636E-01 -0.50646973874E-01 -0.37666398436E-01  0.64622090640E-01  0.51100000000E-03 0. -1.
</event>
<event>
 8    1  0.1123285E+005  0.1043930E+01  0.7957747E-01            NaN
         13   -1    0    0    0    0  0.00000000000E+00  0.00000000000E+00  0.74505805969E-08  0.10566000000E+00  0.10566000000E+00 0.  1.
     999900   -1    0    0    0    0 -0.00000000000E+00 -0.00000000000E+00 -0.74505805969E-08  0.93827000000E+00  0.93827000000E+00 0. -1.
     999902    2    1    2    0    0 -0.43867561003E-03 -0.14059794595E-02 -0.23697291796E-01  0.10201869831E+01  0.10199106576E+01 0.  0.
     999903    2    3    3    0    0  0.42054591759E-01 -0.10311665423E+00 -0.68132156293E-01  0.13219757079E+00  0.20798411837E-01 0.  0.
         14    1    1    2    0    0  0.43867561003E-03  0.14059794595E-02  0.23697291796E-01  0.23743016931E-01  0.00000000000E+00 0.  1.
     999901    1    3    3    0    0 -0.42493267370E-01  0.10171067477E+00  0.44434864498E-01  0.88798941228E+00  0.88000000000E+00 0.  1.
        -11    1    4    4    0    0  0.11834980442E-01 -0.12581097090E-01 -0.15430919145E-01  0.23167329426E-01  0.51100000000E-03 0. -1.
         11    1    4    4    0    0  0.30219611317E-01 -0.90535557138E-01 -0.52701237148E-01  0.10903024137E+00  0.51100000000E-03 0.  1.
</event>
<event>
 8    1  0.1123285E+005  0.1043930E+01  0.7957747E-01            NaN
         13   -1    0    0    0    0  0.00000000000E+00  0.00000000000E+00  0.74505805969E-08  0.10566000000E+00  0.10566000000E+00 0. -1.
     999900   -1    0    0    0    0 -0.00000000000E+00 -0.00000000000E+00 -0.74505805969E-08  0.93827000000E+00  0.93827000000E+00 0.  1.
     999902    2    1    2    0    0  0.20973418592E-01 -0.93379336656E-02  0.38992306363E-02  0.10206429802E+01  0.10203772869E+01 0.  0.
     999903    2    3    3    0    0 -0.54662627761E-01 -0.91775151820E-01  0.72978811002E-01  0.13087408048E+00  0.19784759820E-01 0.  0.
         14    1    1    2    0    0 -0.20973418592E-01  0.93379336656E-02 -0.38992306363E-02  0.23287019821E-01  0.00000000000E+00 0. -1.
     999901    1    3    3    0    0  0.75636046354E-01  0.82437218155E-01 -0.69079580366E-01  0.88976889970E+00  0.88000000000E+00 0.  1.
        -11    1    4    4    0    0 -0.29263651290E-01 -0.35629303903E-01  0.39652150533E-01  0.60814165671E-01  0.51100000000E-03 0.  1.
         11    1    4    4    0    0 -0.25398976472E-01 -0.56145847917E-01  0.33326660469E-01  0.70059914810E-01  0.51100000000E-03 0. -1.
</event>
<event>
 8    1  0.1123285E+005  0.1043930E+01  0.7957747E-01            NaN
         13   -1    0    0    0    0  0.00000000000E+00  0.00000000000E+00  0.74505805969E-08  0.10566000000E+00  0.10566000000E+00 0.  1.
     999900   -1    0    0    0    0 -0.00000000000E+00 -0.00000000000E+00 -0.74505805969E-08  0.93827000000E+00  0.93827000000E+00 0.  1.
     999902    2    1    2    0    0 -0.11156020916E-01 -0.62337991702E-02 -0.19183262473E-01  0.10208797372E+01  0.10206194802E+01 0.  0.
     999903    2    3    3    0    0  0.22656869375E-01  0.12649661538E+00 -0.90525137505E-02  0.13022643399E+00  0.19032831417E-01 0.  0.
         14    1    1    2    0    0  0.11156020916E-01  0.62337991702E-02  0.19183262473E-01  0.23050262772E-01  0.00000000000E+00 0.  1.
     999901    1    3    3    0    0 -0.33812890291E-01 -0.13273041455E+00 -0.10130748722E-01  0.89065330324E+00  0.88000000000E+00 0.  1.
        -11    1    4    4    0    0  0.18843196018E-01  0.91860132381E-01 -0.14708909683E-01  0.94920825441E-01  0.51100000000E-03 0. -1.
         11    1    4    4    0    0  0.38136733570E-02  0.34636483001E-01  0.56563959330E-02  0.35305608550E-01  0.51100000000E-03 0.  1.
</event>
<event>
 8    1  0.1123285E+005  0.1043930E+01  0.7957747E-01            NaN
         13   -1    0    0    0    0  0.00000000000E+00  0.00000000000E+00  0.74505805969E-08  0.10566000000E+00  0.10566000000E+00 0. -1.
     999900   -1    0    0    0    0 -0.00000000000E+00 -0.00000000000E+00 -0.74505805969E-08  0.93827000000E+00  0.93827000000E+00 0.  1.
     999902    2    1    2    0    0  0.10294329354E-01  0.15198904107E-01  0.14606598822E-01  0.10204708305E+01  0.10202011485E+01 0.  0.
     999903    2    3    3    0    0  0.11939538260E+00  0.49895942132E-02  0.54430752570E-01  0.13278100123E+00  0.19696040852E-01 0.  0.
         14    1    1    2    0    0 -0.10294329354E-01 -0.15198904107E-01 -0.14606598822E-01  0.23459169466E-01  0.00000000000E+00 0.  1.
     999901    1    3    3    0    0 -0.10910105325E+00  0.10209309893E-01 -0.39824153748E-01  0.88768982930E+00  0.88000000000E+00 0.  1.
        -11    1    4    4    0    0  0.99398108466E-01  0.17853995135E-02  0.37072573048E-01  0.10610282000E+00  0.51100000000E-03 0.  1.
         11    1    4    4    0    0  0.19997274136E-01  0.32041946997E-02  0.17358179523E-01  0.26678181232E-01  0.51100000000E-03 0. -1.
</event>
<event>
 8    1  0.1123285E+005  0.1043930E+01  0.7957747E-01            NaN
         13   -1    0    0    0    0  0.00000000000E+00  0.00000000000E+00  0.74505805969E-08  0.10566000000E+00  0.10566000000E+00 0. -1.
     999900   -1    0    0    0    0 -0.00000000000E+00 -0.00000000000E+00 -0.74505805969E-08  0.93827000000E+00  0.93827000000E+00 0. -1.
     999902    2    1    2    0    0 -0.20499959867E-01  0.49197398801E-02 -0.85268431149E-02  0.10211888644E+01  0.10209356187E+01 0.  0.
     999903    2    3    3    0    0 -0.11474999999E-01 -0.83508640487E-01 -0.99716843923E-01  0.13202260064E+00  0.19523049376E-01 0.  0.
         14    1    1    2    0    0  0.20499959867E-01 -0.49197398801E-02  0.85268431149E-02  0.22741135603E-01  0.00000000000E+00 0. -1.
     999901    1    3    3    0    0 -0.90249598680E-02  0.88428380368E-01  0.91190000808E-01  0.88916626376E+00  0.88000000000E+00 0.  1.
        -11    1    4    4    0    0 -0.26554574102E-02 -0.47814776071E-01 -0.42618311973E-01  0.64108391816E-01  0.51100000000E-03 0.  1.
         11    1    4    4    0    0 -0.88195425884E-02 -0.35693864416E-01 -0.57098531950E-01  0.67914208824E-01  0.51100000000E-03 0. -1.
</event>
<event>
 8    1  0.1123285E+005  0.1043930E+01  0.7957747E-01            NaN
         13   -1    0    0    0    0  0.00000000000E+00  0.00000000000E+00  0.74505805969E-08  0.10566000000E+00  0.10566000000E+00 0. -1.
     999900   -1    0    0    0    0 -0.00000000000E+00 -0.00000000000E+00 -0.74505805969E-08  0.93827000000E+00  0.93827000000E+00 0. -1.
     999902    2    1    2    0    0  0.57938563522E-03  0.24363471440E-01  0.45125281288E-02  0.10191453810E+01  0.10188439676E+01 0.  0.
     999903    2    3    3    0    0  0.79987281912E-01 -0.74855412507E-01 -0.62010164412E-01  0.12753152426E+00  0.20438472080E-01 0.  0.
         14    1    1    2    0    0 -0.57938563522E-03 -0.24363471440E-01 -0.45125281288E-02  0.24784618989E-01  0.00000000000E+00 0.  1.
     999901    1    3    3    0    0 -0.79407896277E-01  0.99218883947E-01  0.66522692541E-01  0.89161385675E+00  0.88000000000E+00 0.  1.
        -11    1    4    4    0    0  0.46358883479E-01 -0.40343749993E-01 -0.23322255413E-01  0.65733955909E-01  0.51100000000E-03 0.  1.
         11    1    4    4    0    0  0.33628398434E-01 -0.34511662513E-01 -0.38687908999E-01  0.61797568353E-01  0.51100000000E-03 0. -1.
</event>
<event>
 8    1  0.1123285E+005  0.1043930E+01  0.7957747E-01            NaN
         13   -1    0    0    0    0  0.00000000000E+00  0.00000000000E+00  0.74505805969E-08  0.10566000000E+00  0.10566000000E+00 0. -1.
     999900   -1    0    0    0    0 -0.00000000000E+00 -0.00000000000E+00 -0.74505805969E-08  0.93827000000E+00  0.93827000000E+00 0. -1.
     999902    2    1    2    0    0 -0.20005028655E-01  0.11191908718E-01  0.63926090709E-02  0.10201324068E+01  0.10198547945E+01 0.  0.
     999903    2    3    3    0    0 -0.62534202680E-01  0.10999198938E-01  0.11455096210E+00  0.13249115205E+00  0.20011835738E-01 0.  0.
         14    1    1    2    0    0  0.20005028655E-01 -0.11191908718E-01 -0.63926090709E-02  0.23797593218E-01  0.00000000000E+00 0. -1.
     999901    1    3    3    0    0  0.42529174025E-01  0.19270977975E-03 -0.10815835303E+00  0.88764125474E+00  0.88000000000E+00 0. -1.
        -11    1    4    4    0    0 -0.20472591926E-01  0.12922041523E-01  0.36419785302E-01  0.43735203895E-01  0.51100000000E-03 0.  1.
         11    1    4    4    0    0 -0.42061610754E-01 -0.19228425854E-02  0.78131176800E-01  0.88755948150E-01  0.51100000000E-03 0. -1.
</event>
<event>
 8    1  0.1123285E+005  0.1043930E+01  0.7957747E-01            NaN
         13   -1    0    0    0    0  0.00000000000E+00  0.00000000000E+00  0.74505805969E-08  0.10566000000E+00  0.10566000000E+00 0.  1.
     999900   -1    0    0    0    0 -0.00000000000E+00 -0.00000000000E+00 -0.74505805969E-08  0.93827000000E+00  0.93827000000E+00 0. -1.
     999902    2    1    2    0    0  0.20241729891E-01  0.30290648057E-02  0.11498620271E-01  0.10204540308E+01  0.10201839578E+01 0.  0.
     999903    2    3    3    0    0 -0.64964061448E-01  0.11053294132E+00 -0.42280076957E-02  0.12968782286E+00  0.19057674389E-01 0.  0.
         14    1    1    2    0    0 -0.20241729891E-01 -0.30290648057E-02 -0.11498620271E-01  0.23475969218E-01  0.00000000000E+00 0.  1.
     999901    1    3    3    0    0  0.85205791340E-01 -0.10750387651E+00  0.15726627966E-01  0.89076620792E+00  0.88000000000E+00 0.  1.
        -11    1    4    4    0    0 -0.28307425376E-01  0.30655592113E-01 -0.10989971975E-02  0.41743796845E-01  0.51100000000E-03 0.  1.
         11    1    4    4    0    0 -0.36656636072E-01  0.79877349207E-01 -0.31290104981E-02  0.87944026018E-01  0.51100000000E-03 0. -1.
</event>
<event>
 8    1  0.1123285E+005  0.1043930E+01  0.7957747E-01            NaN
         13   -1    0    0    0    0  0.00000000000E+00  0.00000000000E+00  0.74505805969E-08  0.10566000000E+00  0.10566000000E+00 0. -1.
     999900   -1    0    0    0    0 -0.00000000000E+00 -0.00000000000E+00 -0.74505805969E-08  0.93827000000E+00  0.93827000000E+00 0. -1.
     999902    2    1    2    0    0  0.17207064104E-01  0.14585633932E-01 -0.73752365278E-02  0.10201977880E+01  0.10199217170E+01 0.  0.
     999903    2    3    3    0    0  0.18045316875E-01 -0.54910507232E-01 -0.11569885353E+00  0.13083598182E+00  0.19774533238E-01 0.  0.
         14    1    1    2    0    0 -0.17207064104E-01 -0.14585633932E-01  0.73752365278E-02  0.23732211994E-01  0.00000000000E+00 0.  1.
     999901    1    3    3    0    0 -0.83825277087E-03  0.69496141164E-01  0.10832361700E+00  0.88936180619E+00  0.88000000000E+00 0.  1.
        -11    1    4    4    0    0  0.17298361037E-02 -0.49783872049E-02 -0.28876284496E-01  0.29357751947E-01  0.51100000000E-03 0. -1.
         11    1    4    4    0    0  0.16315480771E-01 -0.49932120027E-01 -0.86822569034E-01  0.10147822987E+00  0.51100000000E-03 0.  1.
</event>
<event>
 8    1  0.1123285E+005  0.1043930E+01  0.7957747E-01            NaN
         13   -1    0    0    0    0  0.00000000000E+00  0.00000000000E+00  0.74505805969E-08  0.10566000000E+00  0.10566000000E+00 0.  1.
     999900   -1    0    0    0    0 -0.00000000000E+00 -0.00000000000E+00 -0.74505805969E-08  0.93827000000E+00  0.93827000000E+00 0.  1.
     999902    2    1    2    0    0 -0.15323525893E-01 -0.41780182248E-02  0.17863150320E-01  0.10200268952E+01  0.10197467864E+01 0.  0.
     999903    2    3    3    0    0  0.76632656639E-02 -0.10460614654E+00  0.77599601129E-01  0.13200513579E+00  0.20062059827E-01 0.  0.
         14    1    1    2    0    0  0.15323525893E-01  0.41780182248E-02 -0.17863150320E-01  0.23903104849E-01  0.00000000000E+00 0. -1.
     999901    1    3    3    0    0 -0.22986791557E-01  0.10042812832E+00 -0.59736450809E-01  0.88802175936E+00  0.88000000000E+00 0.  1.
        -11    1    4    4    0    0  0.90603690347E-02 -0.75488183260E-01  0.45347927620E-01  0.88528254018E-01  0.51100000000E-03 0. -1.
         11    1    4    4    0    0 -0.13971033707E-02 -0.29117963282E-01  0.32251673509E-01  0.43476881772E-01  0.51100000000E-03 0.  1.
</event>
<event>
 8    1  0.1123285E+005  0.1043930E+01  0.7957747E-01            NaN
         13   -1    0    0    0    0  0.00000000000E+00  0.00000000000E+00  0.74505805969E-08  0.10566000000E+00  0.10566000000E+00 0.  1.
     999900   -1    0    0    0    0 -0.00000000000E+00 -0.00000000000E+00 -0.74505805969E-08  0.93827000000E+00  0.93827000000E+00 0.  1.
     999902    2    1    2    0    0 -0.13349216803E-01  0.96233932088E-02 -0.17224959072E-01  0.10201075211E+01  0.10198293211E+01 0.  0.
     999903    2    3    3    0    0 -0.59994543906E-01 -0.11106518391E+00 -0.27400062542E-01  0.13058795868E+00  0.19173709835E-01 0.  0.
         14    1    1    2    0    0  0.13349216803E-01 -0.96233932088E-02  0.17224959072E-01  0.23822478904E-01  0.00000000000E+00 0.  1.
     999901    1    3    3    0    0  0.46645327103E-01  0.12068857712E+00  0.10175103469E-01  0.88951956241E+00  0.88000000000E+00 0.  1.
        -11    1    4    4    0    0 -0.16293550037E-01 -0.17733949159E-01 -0.56617506872E-03  0.24094696528E-01  0.51100000000E-03 0.  1.
         11    1    4    4    0    0 -0.43700993870E-01 -0.93331234754E-01 -0.26833887473E-01  0.10649326215E+00  0.51100000000E-03 0. -1.
</event>
<event>
 8    1  0.1123285E+005  0.1043930E+01  0.7957747E-01            NaN
         13   -1    0    0    0    0  0.00000000000E+00  0.00000000000E+00  0.74505805969E-08  0.10566000000E+00  0.10566000000E+00 0.  1.
     999900   -1    0    0    0    0 -0.00000000000E+00 -0.00000000000E+00 -0.74505805969E-08  0.93827000000E+00  0.93827000000E+00 0. -1.
     999902    2    1    2    0    0 -0.11935797773E-01  0.17617611623E-01 -0.81111701098E-02  0.10211564498E+01  0.10209024735E+01 0.  0.
     999903    2    3    3    0    0  0.59304024445E-01 -0.98940104067E-01  0.53749722992E-01  0.12847084813E+00  0.17595868492E-01 0.  0.
         14    1    1    2    0    0  0.11935797773E-01 -0.17617611623E-01  0.81111701098E-02  0.22773550192E-01  0.00000000000E+00 0.  1.
     999901    1    3    3    0    0 -0.71239822219E-01  0.11655771569E+00 -0.61860893102E-01  0.89268560168E+00  0.88000000000E+00 0. -1.
        -11    1    4    4    0    0  0.54296831846E-01 -0.87218836747E-01  0.53214104722E-01  0.11570338584E+00  0.51100000000E-03 0. -1.
         11    1    4    4    0    0  0.50071925996E-02 -0.11721267321E-01  0.53561827005E-03  0.12767462287E-01  0.51100000000E-03 0.  1.
</event>
<event>
 8    1  0.1123285E+005  0.1043930E+01  0.7957747E-01            NaN
         13   -1    0    0    0    0  0.00000000000E+00  0.00000000000E+00  0.74505805969E-08  0.10566000000E+00  0.10566000000E+00 0. -1.
     999900   -1    0    0    0    0 -0.00000000000E+00 -0.00000000000E+00 -0.74505805969E-08  0.93827000000E+00  0.93827000000E+00 0.  1.
     999902    2    1    2    0    0  0.12870102885E-01 -0.16740977819E-01  0.10814975997E-01  0.10202052536E+01  0.10199293583E+01 0.  0.
     999903    2    3    3    0    0  0.12698541845E-01  0.14221540337E-01  0.12882053768E+00  0.13178867362E+00  0.20248910933E-01 0.  0.
         14    1    1    2    0    0 -0.12870102885E-01  0.16740977819E-01 -0.10814975997E-01  0.23724746414E-01  0.00000000000E+00 0.  1.
     999901    1    3    3    0    0  0.17156103929E-03 -0.30962518156E-01 -0.11800556168E+00  0.88841657996E+00  0.88000000000E+00 0.  1.
        -11    1    4    4    0    0 -0.34345518291E-02  0.10285673101E-01  0.61320667042E-01  0.62274204490E-01  0.51100000000E-03 0.  1.
         11    1    4    4    0    0  0.16133093674E-01  0.39358672361E-02  0.67499870634E-01  0.69514469134E-01  0.51100000000E-03 0. -1.
</event>
<event>
 8    1  0.1123285E+005  0.1043930E+01  0.7957747E-01            NaN
         13   -1    0    0    0    0  0.00000000000E+00  0.00000000000E+00  0.74505805969E-08  0.10566000000E+00  0.10566000000E+00 0. -1.
     999900   -1    0    0    0    0 -0.00000000000E+00 -0.00000000000E+00 -0.74505805969E-08  0.93827000000E+00  0.93827000000E+00 0. -1.
     999902    2    1    2    0    0 -0.13507238438E-01 -0.15345332825E-01  0.96496625993E-02  0.10213237903E+01  0.10210735742E+01 0.  0.
     999903    2    3    3    0    0  0.96344095037E-01 -0.54453771312E-01 -0.65994755559E-01  0.13041478066E+00  0.20132297278E-01 0.  0.
         14    1    1    2    0    0  0.13507238438E-01  0.15345332825E-01 -0.96496625993E-02  0.22606209722E-01  0.00000000000E+00 0.  1.
     999901    1    3    3    0    0 -0.10985133348E+00  0.39108438487E-01  0.75644418158E-01  0.89090900962E+00  0.88000000000E+00 0.  1.
        -11    1    4    4    0    0  0.50451213350E-01 -0.24091408411E-01 -0.22485967791E-01  0.60262764259E-01  0.51100000000E-03 0.  1.
         11    1    4    4    0    0  0.45892881687E-01 -0.30362362901E-01 -0.43508787768E-01  0.70152016397E-01  0.51100000000E-03 0. -1.
</event>
<event>
 8    1  0.1123285E+005  0.1043930E+01  0.7957747E-01            NaN
         13   -1    0    0    0    0  0.00000000000E+00  0.00000000000E+00  0.74505805969E-08  0.10566000000E+00  0.10566000000E+00 0.  1.
     999900   -1    0    0    0    0 -0.00000000000E+00 -0.00000000000E+00 -0.74505805969E-08  0.93827000000E+00  0.93827000000E+00 0.  1.
     999902    2    1    2    0    0 -0.61521439507E-02  0.22198403594E-01  0.61111319092E-02  0.10200980062E+01  0.10198195812E+01 0.  0.
     999903    2    3    3    0    0  0.63050397246E-01 -0.72851467668E-01  0.83053091584E-01  0.12895069236E+00  0.21160720771E-01 0.  0.
         14    1    1    2    0    0  0.61521439507E-02 -0.22198403594E-01 -0.61111319092E-02  0.23831993843E-01  0.00000000000E+00 0. -1.
     999901    1    3    3    0    0 -0.69202541197E-01  0.95049871262E-01 -0.76941959675E-01  0.89114731380E+00  0.88000000000E+00 0.  1.
        -11    1    4    4    0    0  0.44380620934E-01 -0.35466297630E-01  0.49638334011E-01  0.75443509373E-01  0.51100000000E-03 0.  1.
         11    1    4    4    0    0  0.18669776312E-01 -0.37385170038E-01  0.33414757572E-01  0.53507182985E-01  0.51100000000E-03 0. -1.
</event>
<event>
 7    1  0.1409902E+005  0.1043930E+01  0.7957747E-01            NaN
         13   -1    0    0    0    0  0.00000000000E+00  0.00000000000E+00  0.74505805969E-08  0.10566000000E+00  0.10566000000E+00 0. -1.
     999900   -1    0    0    0    0 -0.00000000000E+00 -0.00000000000E+00 -0.74505805969E-08  0.93827000000E+00  0.93827000000E+00 0. -1.
     999903    2    1    2    0    0 -0.16125985547E-02 -0.10459105978E+00  0.28311189748E-01  0.11030508815E+00  0.20586372840E-01 0.  0.
         14    1    1    2    0    0  0.78956022938E-02  0.43086073279E-01 -0.26997195023E-01  0.51454822761E-01  0.00000000000E+00 0.  1.
     999901    1    1    2    0    0 -0.62830037391E-02  0.61504986502E-01 -0.13139947248E-02  0.88217008909E+00  0.88000000000E+00 0. -1.
        -11    1    3    3    0    0 -0.10863859350E-01 -0.56497376115E-01  0.12942891028E-01  0.58972506281E-01  0.51100000000E-03 0.  1.
         11    1    3    3    0    0  0.92512607951E-02 -0.48093683666E-01  0.15368298720E-01  0.51332581870E-01  0.51100000000E-03 0. -1.
</event>
<event>
 8    1  0.1123285E+005  0.1043930E+01  0.7957747E-01            NaN
         13   -1    0    0    0    0  0.00000000000E+00  0.00000000000E+00  0.74505805969E-08  0.10566000000E+00  0.10566000000E+00 0. -1.
     999900   -1    0    0    0    0 -0.00000000000E+00 -0.00000000000E+00 -0.74505805969E-08  0.93827000000E+00  0.93827000000E+00 0. -1.
     999902    2    1    2    0    0 -0.53941814536E-02  0.66113786325E-02 -0.21771525118E-01  0.10205460990E+01  0.10202781647E+01 0.  0.
     999903    2    3    3    0    0  0.10758773423E+00 -0.70803948086E-01 -0.10912576696E-01  0.12988569072E+00  0.12762785798E-01 0.  0.
         14    1    1    2    0    0  0.53941814536E-02 -0.66113786325E-02  0.21771525118E-01  0.23383901020E-01  0.00000000000E+00 0. -1.
     999901    1    3    3    0    0 -0.11298191569E+00  0.77415326719E-01 -0.10858948421E-01  0.89066040826E+00  0.88000000000E+00 0. -1.
        -11    1    4    4    0    0  0.54100380016E-01 -0.32450374790E-01  0.46721822554E-03  0.63090073353E-01  0.51100000000E-03 0. -1.
         11    1    4    4    0    0  0.53487354218E-01 -0.38353573296E-01 -0.11379794922E-01  0.66795617365E-01  0.51100000000E-03 0.  1.
</event>
<event>
 8    1  0.1123285E+005  0.1043930E+01  0.7957747E-01            NaN
         13   -1    0    0    0    0  0.00000000000E+00  0.00000000000E+00  0.74505805969E-08  0.10566000000E+00  0.10566000000E+00 0. -1.
     999900   -1    0    0    0    0 -0.00000000000E+00 -0.00000000000E+00 -0.74505805969E-08  0.93827000000E+00  0.93827000000E+00 0.  1.
     999902    2    1    2    0    0 -0.13137419552E-01  0.20194383823E-01  0.58531459041E-04  0.10198383343E+01  0.10195537356E+01 0.  0.
     999903    2    3    3    0    0 -0.98041559105E-01 -0.14710970905E-01 -0.83372891285E-01  0.13113821671E+00  0.20436068674E-01 0.  0.
         14    1    1    2    0    0  0.13137419552E-01 -0.20194383823E-01 -0.58531459040E-04  0.24091665705E-01  0.00000000000E+00 0.  1.
     999901    1    3    3    0    0  0.84904139553E-01  0.34905354729E-01  0.83431422744E-01  0.88870011759E+00  0.88000000000E+00 0. -1.
        -11    1    4    4    0    0 -0.52488447932E-01  0.15347353214E-02 -0.37991171474E-01  0.64814989082E-01  0.51100000000E-03 0. -1.
         11    1    4    4    0    0 -0.45553111173E-01 -0.16245706227E-01 -0.45381719812E-01  0.66323227624E-01  0.51100000000E-03 0.  1.
</event>
<event>
 8    1  0.1123285E+005  0.1043930E+01  0.7957747E-01            NaN
         13   -1    0    0    0    0  0.00000000000E+00  0.00000000000E+00  0.74505805969E-08  0.10566000000E+00  0.10566000000E+00 0. -1.
     999900   -1    0    0    0    0 -0.00000000000E+00 -0.00000000000E+00 -0.74505805969E-08  0.93827000000E+00  0.93827000000E+00 0.  1.
     999902    2    1    2    0    0 -0.11317270714E-01 -0.78159939672E-02  0.16939020901E-01  0.10221102656E+01  0.10218773382E+01 0.  0.
     999903    2    3    3    0    0 -0.50517854385E-01 -0.34610607853E-01 -0.11421664579E+00  0.13112404465E+00  0.19953073008E-01 0.  0.
         14    1    1    2    0    0  0.11317270714E-01  0.78159939672E-02 -0.16939020901E-01  0.21819734352E-01  0.00000000000E+00 0.  1.
     999901    1    3    3    0    0  0.39200583672E-01  0.26794613886E-01  0.13115566670E+00  0.89098622099E+00  0.88000000000E+00 0.  1.
        -11    1    4    4    0    0 -0.11058120538E-01 -0.98096087495E-02 -0.47421140718E-01  0.49674300817E-01  0.51100000000E-03 0. -1.
         11    1    4    4    0    0 -0.39459733848E-01 -0.24800999103E-01 -0.66795505076E-01  0.81449743838E-01  0.51100000000E-03 0.  1.
</event>
<event>
 8    1  0.1123285E+005  0.1043930E+01  0.7957747E-01            NaN
         13   -1    0    0    0    0  0.00000000000E+00  0.00000000000E+00  0.74505805969E-08  0.10566000000E+00  0.10566000000E+00 0.  1.
     999900   -1    0    0    0    0 -0.00000000000E+00 -0.00000000000E+00 -0.74505805969E-08  0.93827000000E+00  0.93827000000E+00 0.  1.
     999902    2    1    2    0    0 -0.68197328356E-02  0.58855306412E-02 -0.22328814567E-01  0.10198525378E+01  0.10195682786E+01 0.  0.
     999903    2    3    3    0    0  0.10837428414E+00 -0.67161523395E-01  0.14106550191E-02  0.12902758524E+00  0.19760367394E-01 0.  0.
         14    1    1    2    0    0  0.68197328356E-02 -0.58855306412E-02  0.22328814567E-01  0.24077462217E-01  0.00000000000E+00 0.  1.
     999901    1    3    3    0    0 -0.11519401697E+00  0.73047054036E-01 -0.23739469586E-01  0.89082495254E+00  0.88000000000E+00 0.  1.
        -11    1    4    4    0    0  0.32015880946E-01 -0.21448907514E-01 -0.85427960818E-02  0.39475470260E-01  0.51100000000E-03 0. -1.
         11    1    4    4    0    0  0.76358403190E-01 -0.45712615881E-01  0.99534511010E-02  0.89552114984E-01  0.51100000000E-03 0.  1.
</event>
<event>
 8    1  0.1123285E+005  0.1043930E+01  0.7957747E-01            NaN
         13   -1    0    0    0    0  0.00000000000E+00  0.00000000000E+00  0.74505805969E-08  0.10566000000E+00  0.10566000000E+00 0. -1.
     999900   -1    0    0    0    0 -0.00000000000E+00 -0.00000000000E+00 -0.74505805969E-08  0.93827000000E+00  0.93827000000E+00 0. -1.
     999902    2    1    2    0    0 -0.22080438988E-02  0.61505851352E-02 -0.24049205869E-01  0.10190087348E+01  0.10187039473E+01 0.  0.
     999903    2    3    3    0    0 -0.10322478052E-01  0.47822586143E-01  0.11533150839E+00  0.12702813906E+00  0.21005665575E-01 0.  0.
         14    1    1    2    0    0  0.22080438988E-02 -0.61505851352E-02  0.24049205869E-01  0.24921265182E-01  0.00000000000E+00 0. -1.
     999901    1    3    3    0    0  0.81144341528E-02 -0.41672001007E-01 -0.13938071426E+00  0.89198059576E+00  0.88000000000E+00 0. -1.
        -11    1    4    4    0    0 -0.80712358834E-02  0.24959281538E-01  0.85110783540E-01  0.89062995567E-01  0.51100000000E-03 0. -1.
         11    1    4    4    0    0 -0.22512421683E-02  0.22863304604E-01  0.30220724849E-01  0.37965143489E-01  0.51100000000E-03 0.  1.
</event>
<event>
 8    1  0.1123285E+005  0.1043930E+01  0.7957747E-01            NaN
         13   -1    0    0    0    0  0.00000000000E+00  0.00000000000E+00  0.74505805969E-08  0.10566000000E+00  0.10566000000E+00 0. -1.
     999900   -1    0    0    0    0 -0.00000000000E+00 -0.00000000000E+00 -0.74505805969E-08  0.93827000000E+00  0.93827000000E+00 0. -1.
     999902    2    1    2    0    0  0.12958919480E-02 -0.19046422722E-01 -0.13394686267E-01  0.10206091258E+01  0.10203426505E+01 0.  0.
     999903    2    3    3    0    0 -0.71418947149E-01  0.94804235844E-01  0.44321857747E-01  0.12843166600E+00  0.21018006828E-01 0.  0.
         14    1    1    2    0    0 -0.12958919480E-02  0.19046422722E-01  0.13394686267E-01  0.23320874225E-01  0.00000000000E+00 0. -1.
     999901    1    3    3    0    0  0.72714839097E-01 -0.11385065857E+00 -0.57716544015E-01  0.89217745978E+00  0.88000000000E+00 0. -1.
        -11    1    4    4    0    0 -0.28364123331E-01  0.35381915214E-01  0.63063968536E-02  0.45786845041E-01  0.51100000000E-03 0. -1.
         11    1    4    4    0    0 -0.43054823819E-01  0.59422320630E-01  0.38015460894E-01  0.82644820957E-01  0.51100000000E-03 0.  1.
</event>
<event>
 8    1  0.1123285E+005  0.1043930E+01  0.7957747E-01            NaN
         13   -1    0    0    0    0  0.00000000000E+00  0.00000000000E+00  0.74505805969E-08  0.10566000000E+00  0.10566000000E+00 0. -1.
     999900   -1    0    0    0    0 -0.00000000000E+00 -0.00000000000E+00 -0.74505805969E-08  0.93827000000E+00  0.93827000000E+00 0. -1.
     999902    2    1    2    0    0  0.46312061612E-02  0.22267517703E-01 -0.98304587540E-02  0.10191524227E+01  0.10188511827E+01 0.  0.
     999903    2    3    3    0    0 -0.49461472228E-01 -0.14330988747E-01  0.11530562052E+00  0.12790357598E+00  0.20300841168E-01 0.  0.
         14    1    1    2    0    0 -0.46312061612E-02 -0.22267517703E-01  0.98304587540E-02  0.24777577252E-01  0.00000000000E+00 0.  1.
     999901    1    3    3    0    0  0.54092678389E-01  0.36598506451E-01 -0.12513607927E+00  0.89124884677E+00  0.88000000000E+00 0. -1.
        -11    1    4    4    0    0 -0.74975842409E-02 -0.65354987405E-02  0.41172484054E-01  0.42359899403E-01  0.51100000000E-03 0. -1.
         11    1    4    4    0    0 -0.41963887987E-01 -0.77954900066E-02  0.74133136463E-01  0.85543676577E-01  0.51100000000E-03 0.  1.
</event>
<event>
 8    1  0.1123285E+005  0.1043930E+01  0.7957747E-01            NaN
         13   -1    0    0    0    0  0.00000000000E+00  0.00000000000E+00  0.74505805969E-08  0.10566000000E+00  0.10566000000E+00 0.  1.
     999900   -1    0    0    0    0 -0.00000000000E+00 -0.00000000000E+00 -0.74505805969E-08  0.93827000000E+00  0.93827000000E+00 0.  1.
     999902    2    1    2    0    0  0.71673494020E-02 -0.20649840024E-01  0.88720863766E-02  0.10203397328E+01  0.10200669927E+01 0.  0.
     999903    2    3    3    0    0 -0.94930647633E-01  0.52754933094E-01 -0.65362534963E-01  0.12830663883E+00  0.19885214721E-01 0.  0.
         14    1    1    2    0    0 -0.71673494020E-02  0.20649840024E-01 -0.88720863766E-02  0.23590267213E-01  0.00000000000E+00 0.  1.
     999901    1    3    3    0    0  0.10209799703E+00 -0.73404773119E-01  0.74234621340E-01  0.89203309396E+00  0.88000000000E+00 0. -1.
        -11    1    4    4    0    0 -0.45927590638E-01  0.23607345873E-01 -0.42474786851E-01  0.66865678790E-01  0.51100000000E-03 0. -1.
         11    1    4    4    0    0 -0.49003056994E-01  0.29147587221E-01 -0.22887748112E-01  0.61440960037E-01  0.51100000000E-03 0.  1.
</event>
<event>
 8    1  0.1123285E+005  0.1043930E+01  0.7957747E-01            NaN
         13   -1    0    0    0    0  0.00000000000E+00  0.00000000000E+00  0.74505805969E-08  0.10566000000E+00  0.10566000000E+00 0. -1.
     999900   -1    0    0    0    0 -0.00000000000E+00 -0.00000000000E+00 -0.74505805969E-08  0.93827000000E+00  0.93827000000E+00 0. -1.
     999902    2    1    2    0    0 -0.29702570372E-01  0.18368803218E-01 -0.20111909540E-02  0.10089485691E+01  0.10083419631E+01 0.  0.
     999903    2    3    3    0    0  0.98837887584E-01  0.51377952440E-01  0.34392605509E-01  0.11825362152E+00  0.19810241524E-01 0.  0.
         14    1    1    2    0    0  0.29702570372E-01 -0.18368803218E-01  0.20111909540E-02  0.34981430894E-01  0.00000000000E+00 0.  1.
     999901    1    3    3    0    0 -0.12854045796E+00 -0.33009149222E-01 -0.36403796464E-01  0.89069494759E+00  0.88000000000E+00 0.  1.
        -11    1    4    4    0    0  0.89372942588E-01  0.50966151107E-01  0.35179694000E-01  0.10873335926E+00  0.51100000000E-03 0.  1.
         11    1    4    4    0    0  0.94649449952E-02  0.41180133288E-03 -0.78708849079E-03  0.95202622544E-02  0.51100000000E-03 0. -1.
</event>
<event>
 8    1  0.1123285E+005  0.1043930E+01  0.7957747E-01            NaN
         13   -1    0    0    0    0  0.00000000000E+00  0.00000000000E+00  0.74505805969E-08  0.10566000000E+00  0.10566000000E+00 0.  1.
     999900   -1    0    0    0    0 -0.00000000000E+00 -0.00000000000E+00 -0.74505805969E-08  0.93827000000E+00  0.93827000000E+00 0. -1.
     999902    2    1    2    0    0  0.10246409168E-01  0.52060542950E-02 -0.22212904579E-01  0.10189199014E+01  0.10186129100E+01 0.  0.
     999903    2    3    3    0    0 -0.46294788203E-01  0.11906695188E+00  0.49845757036E-02  0.12936893943E+00  0.19782063847E-01 0.  0.
         14    1    1    2    0    0 -0.10246409168E-01 -0.52060542950E-02  0.22212904579E-01  0.25010098600E-01  0.00000000000E+00 0.  1.
     999901    1    3    3    0    0  0.56541197371E-01 -0.11386089759E+00 -0.27197480282E-01  0.88955096197E+00  0.88000000000E+00 0.  1.
        -11    1    4    4    0    0 -0.35610339145E-01  0.69658552223E-01  0.84927445452E-02  0.78694332596E-01  0.51100000000E-03 0.  1.
         11    1    4    4    0    0 -0.10684449058E-01  0.49408399660E-01 -0.35081688416E-02  0.50674606839E-01  0.51100000000E-03 0. -1.
</event>
<event>
 8    1  0.1123285E+005  0.1043930E+01  0.7957747E-01            NaN
         13   -1    0    0    0    0  0.00000000000E+00  0.00000000000E+00  0.74505805969E-08  0.10566000000E+00  0.10566000000E+00 0. -1.
     999900   -1    0    0    0    0 -0.00000000000E+00 -0.00000000000E+00 -0.74505805969E-08  0.93827000000E+00  0.93827000000E+00 0. -1.
     999902    2    1    2    0    0  0.71340712615E-02 -0.19785915997E-01  0.11542490704E-01  0.10199381986E+01  0.10196559824E+01 0.  0.
     999903    2    3    3    0    0  0.16775144483E-01 -0.12097469286E+00 -0.46249844210E-01  0.13220396309E+00  0.20556215132E-01 0.  0.
         14    1    1    2    0    0 -0.71340712615E-02  0.19785915997E-01 -0.11542490704E-01  0.23991801438E-01  0.00000000000E+00 0.  1.
     999901    1    3    3    0    0 -0.96410732218E-02  0.10118877687E+00  0.57792334914E-01  0.88773423547E+00  0.88000000000E+00 0. -1.
        -11    1    4    4    0    0  0.17385451079E-03 -0.74211399129E-01 -0.28595126542E-01  0.79531782131E-01  0.51100000000E-03 0. -1.
         11    1    4    4    0    0  0.16601289973E-01 -0.46763293736E-01 -0.17654717668E-01  0.52672180957E-01  0.51100000000E-03 0.  1.
</event>
<event>
 8    1  0.1123285E+005  0.1043930E+01  0.7957747E-01            NaN
         13   -1    0    0    0    0  0.00000000000E+00  0.00000000000E+00  0.74505805969E-08  0.10566000000E+00  0.10566000000E+00 0.  1.
     999900   -1    0    0    0    0 -0.00000000000E+00 -0.00000000000E+00 -0.74505805969E-08  0.93827000000E+00  0.93827000000E+00 0.  1.
     999902    2    1    2    0    0  0.14182481517E-01 -0.11085371683E-01 -0.15302522883E-01  0.10203038396E+01  0.10200302592E+01 0.  0.
     999903    2    3    3    0    0 -0.12498498227E+00  0.18285738861E-01 -0.15687678130E-01  0.12888340378E+00  0.20229050510E-01 0.  0.
         14    1    1    2    0    0 -0.14182481517E-01  0.11085371683E-01  0.15302522883E-01  0.23626160371E-01  0.00000000000E+00 0.  1.
     999901    1    3    3    0    0  0.13916746379E+00 -0.29371110543E-01  0.38515524713E-03  0.89142043585E+00  0.88000000000E+00 0. -1.
        -11    1    4    4    0    0 -0.46700075701E-01  0.69028931572E-02 -0.15767110664E-01  0.49773586410E-01  0.51100000000E-03 0.  1.
         11    1    4    4    0    0 -0.78284906571E-01  0.11382845703E-01  0.79432534093E-04  0.79109817366E-01  0.51100000000E-03 0. -1.
</event>
<event>
 8    1  0.1123285E+005  0.1043930E+01  0.7957747E-01            NaN
         13   -1    0    0    0    0  0.00000000000E+00  0.00000000000E+00  0.74505805969E-08  0.10566000000E+00  0.10566000000E+00 0. -1.
     999900   -1    0    0    0    0 -0.00000000000E+00 -0.00000000000E+00 -0.74505805969E-08  0.93827000000E+00  0.93827000000E+00 0.  1.
     999902    2    1    2    0    0  0.37571509999E-02  0.18783990398E-01  0.14223564574E-01  0.10200707404E+01  0.10197916705E+01 0.  0.
     999903    2    3    3    0    0  0.45176413482E-01 -0.78512473799E-01 -0.87783776195E-01  0.12788933799E+00  0.21084936145E-01 0.  0.
         14    1    1    2    0    0 -0.37571509999E-02 -0.18783990398E-01 -0.14223564574E-01  0.23859259588E-01  0.00000000000E+00 0.  1.
     999901    1    3    3    0    0 -0.41419262482E-01  0.97296464197E-01  0.10200734077E+00  0.89218140242E+00  0.88000000000E+00 0. -1.
        -11    1    4    4    0    0  0.25482752023E-01 -0.56158640212E-01 -0.69559100039E-01  0.92961782687E-01  0.51100000000E-03 0.  1.
         11    1    4    4    0    0  0.19693661459E-01 -0.22353833586E-01 -0.18224676157E-01  0.34927555307E-01  0.51100000000E-03 0. -1.
</event>
<event>
 8    1  0.1123285E+005  0.1043930E+01  0.7957747E-01            NaN
         13   -1    0    0    0    0  0.00000000000E+00  0.00000000000E+00  0.74505805969E-08  0.10566000000E+00  0.10566000000E+00 0. -1.
     999900   -1    0    0    0    0 -0.00000000000E+00 -0.00000000000E+00 -0.74505805969E-08  0.93827000000E+00  0.93827000000E+00 0. -1.
     999902    2    1    2    0    0 -0.10227551927E-01 -0.10882257417E-01 -0.17208237509E-01  0.10211451414E+01  0.10208909099E+01 0.  0.
     999903    2    3    3    0    0  0.25437851605E-01  0.47266767924E-01 -0.11975995592E+00  0.13256752230E+00  0.18720824795E-01 0.  0.
         14    1    1    2    0    0  0.10227551927E-01  0.10882257417E-01  0.17208237509E-01  0.22784858636E-01  0.00000000000E+00 0.  1.
     999901    1    3    3    0    0 -0.35665403532E-01 -0.58149025341E-01  0.10255171841E+00  0.88857761907E+00  0.88000000000E+00 0.  1.
        -11    1    4    4    0    0  0.19409406320E-01  0.39196496659E-01 -0.76267981955E-01  0.87921309115E-01  0.51100000000E-03 0.  1.
         11    1    4    4    0    0  0.60284452848E-02  0.80702712651E-02 -0.43491973967E-01  0.44646213181E-01  0.51100000000E-03 0. -1.
</event>
<event>
 8    1  0.1123285E+005  0.1043930E+01  0.7957747E-01            NaN
         13   -1    0    0    0    0  0.00000000000E+00  0.00000000000E+00  0.74505805969E-08  0.10566000000E+00  0.10566000000E+00 0.  1.
     999900   -1    0    0    0    0 -0.00000000000E+00 -0.00000000000E+00 -0.74505805969E-08  0.93827000000E+00  0.93827000000E+00 0.  1.
     999902    2    1    2    0    0  0.16054633462E-01 -0.46979767596E-02  0.34430745393E-02  0.10268514461E+01  0.10267094113E+01 0.  0.
     999903    2    3    3    0    0  0.70841772696E-01 -0.64685140717E-01 -0.96442257030E-01  0.13748247321E+00  0.19939842296E-01 0.  0.
         14    1    1    2    0    0 -0.16054633462E-01  0.46979767596E-02 -0.34430745393E-02  0.17078553906E-01  0.00000000000E+00 0.  1.
     999901    1    3    3    0    0 -0.54787139234E-01  0.59987163957E-01  0.99885331569E-01  0.88936897288E+00  0.88000000000E+00 0. -1.
        -11    1    4    4    0    0  0.42589090944E-01 -0.30210721474E-01 -0.41300621845E-01  0.66577179613E-01  0.51100000000E-03 0.  1.
         11    1    4    4    0    0  0.28252681752E-01 -0.34474419242E-01 -0.55141635185E-01  0.70905293598E-01  0.51100000000E-03 0. -1.
</event>
<event>
 8    1  0.1123285E+005  0.1043930E+01  0.7957747E-01            NaN
         13   -1    0    0    0    0  0.00000000000E+00  0.00000000000E+00  0.74505805969E-08  0.10566000000E+00  0.10566000000E+00 0.  1.
     999900   -1    0    0    0    0 -0.00000000000E+00 -0.00000000000E+00 -0.74505805969E-08  0.93827000000E+00  0.93827000000E+00 0. -1.
     999902    2    1    2    0    0 -0.91540111640E-02  0.16108979132E-01  0.12678064077E-01  0.10214794223E+01  0.10212326776E+01 0.  0.
     999903    2    3    3    0    0  0.53862785444E-01  0.11462465409E+00 -0.33837298698E-01  0.13252490502E+00  0.19439050543E-01 0.  0.
         14    1    1    2    0    0  0.91540111640E-02 -0.16108979132E-01 -0.12678064077E-01  0.22450577672E-01  0.00000000000E+00 0. -1.
     999901    1    3    3    0    0 -0.63016796607E-01 -0.98515674960E-01  0.46515362775E-01  0.88895451731E+00  0.88000000000E+00 0.  1.
        -11    1    4    4    0    0  0.15921100489E-01  0.16874059885E-01 -0.78322513639E-02  0.24491235579E-01  0.51100000000E-03 0. -1.
         11    1    4    4    0    0  0.37941684955E-01  0.97750594207E-01 -0.26005047334E-01  0.10803366944E+00  0.51100000000E-03 0.  1.
</event>
<event>
 8    1  0.1123285E+005  0.1043930E+01  0.7957747E-01            NaN
         13   -1    0    0    0    0  0.00000000000E+00  0.00000000000E+00  0.74505805969E-08  0.10566000000E+00  0.10566000000E+00 0. -1.
     999900   -1    0    0    0    0 -0.00000000000E+00 -0.00000000000E+00 -0.74505805969E-08  0.93827000000E+00  0.93827000000E+00 0.  1.
     999902    2    1    2    0    0 -0.55787643604E-02 -0.88109396763E-02  0.22566666389E-01  0.10190701991E+01  0.10187669316E+01 0.  0.
     999903    2    3    3    0    0 -0.60057970606E-01 -0.29120600296E-01 -0.10703880734E+00  0.12767912607E+00  0.19740409383E-01 0.  0.
         14    1    1    2    0    0  0.55787643604E-02  0.88109396763E-02 -0.22566666389E-01  0.24859800918E-01  0.00000000000E+00 0.  1.
     999901    1    3    3    0    0  0.54479206246E-01  0.20309660620E-01  0.12960547373E+00  0.89139107301E+00  0.88000000000E+00 0. -1.
        -11    1    4    4    0    0 -0.41261235841E-01 -0.29416099399E-01 -0.81334440181E-01  0.95829790606E-01  0.51100000000E-03 0. -1.
         11    1    4    4    0    0 -0.18796734765E-01  0.29549910279E-03 -0.25704367156E-01  0.31849335463E-01  0.51100000000E-03 0.  1.
</event>
<event>
 8    1  0.1123285E+005  0.1043930E+01  0.7957747E-01            NaN
         13   -1    0    0    0    0  0.00000000000E+00  0.00000000000E+00  0.74505805969E-08  0.10566000000E+00  0.10566000000E+00 0.  1.
     999900   -1    0    0    0    0 -0.00000000000E+00 -0.00000000000E+00 -0.74505805969E-08  0.93827000000E+00  0.93827000000E+00 0.  1.
     999902    2    1    2    0    0  0.14723120746E-01 -0.15558945451E-01 -0.10849193718E-01  0.10199184180E+01  0.10196357306E+01 0.  0.
     999903    2    3    3    0    0  0.45538832799E-01 -0.85764201192E-01  0.86094197983E-01  0.13128103002E+00  0.19829634825E-01 0.  0.
         14    1    1    2    0    0 -0.14723120746E-01  0.15558945451E-01  0.10849193718E-01  0.24011582047E-01  0.00000000000E+00 0.  1.
     999901    1    3    3    0    0 -0.30815712053E-01  0.70205255741E-01 -0.96943391701E-01  0.88863738794E+00  0.88000000000E+00 0.  1.
        -11    1    4    4    0    0  0.16067128486E-01 -0.37171152726E-01  0.23877021278E-01  0.47012982025E-01  0.51100000000E-03 0. -1.
         11    1    4    4    0    0  0.29471704313E-01 -0.48593048466E-01  0.62217176704E-01  0.84268047992E-01  0.51100000000E-03 0.  1.
</event>
<event>
 8    1  0.1123285E+005  0.1043930E+01  0.7957747E-01            NaN
         13   -1    0    0    0    0  0.00000000000E+00  0.00000000000E+00  0.74505805969E-08  0.10566000000E+00  0.10566000000E+00 0.  1.
     999900   -1    0    0    0    0 -0.00000000000E+00 -0.00000000000E+00 -0.74505805969E-08  0.93827000000E+00  0.93827000000E+00 0.  1.
     999902    2    1    2    0    0  0.56888548926E-02  0.30275145303E-02  0.22790651905E-01  0.10202457705E+01  0.10199708277E+01 0.  0.
     999903    2    3    3    0    0 -0.13655540800E-01  0.23838209408E-01  0.12865896700E+00  0.13344512162E+00  0.22354790762E-01 0.  0.
         14    1    1    2    0    0 -0.56888548926E-02 -0.30275145303E-02 -0.22790651905E-01  0.23684229531E-01  0.00000000000E+00 0. -1.
     999901    1    3    3    0    0  0.19344395693E-01 -0.20810694878E-01 -0.10586831510E+00  0.88680064885E+00  0.88000000000E+00 0.  1.
        -11    1    4    4    0    0  0.81768116879E-03  0.20181593416E-01  0.65584402128E-01  0.68626090074E-01  0.51100000000E-03 0. -1.
         11    1    4    4    0    0 -0.14473221969E-01  0.36566159920E-02  0.63074564876E-01  0.64819031541E-01  0.51100000000E-03 0.  1.
</event>
<event>
 8    1  0.1123285E+005  0.1043930E+01  0.7957747E-01            NaN
         13   -1    0    0    0    0  0.00000000000E+00  0.00000000000E+00  0.74505805969E-08  0.10566000000E+00  0.10566000000E+00 0. -1.
     999900   -1    0    0    0    0 -0.00000000000E+00 -0.00000000000E+00 -0.74505805969E-08  0.93827000000E+00  0.93827000000E+00 0. -1.
     999902    2    1    2    0    0  0.63851279742E-02  0.19572515140E-01 -0.71433339883E-02  0.10221382486E+01  0.10219059247E+01 0.  0.
     999903    2    3    3    0    0 -0.24169955448E-01 -0.11858945844E+00 -0.43213624440E-01  0.13010494771E+00  0.20303538634E-01 0.  0.
         14    1    1    2    0    0 -0.63851279742E-02 -0.19572515140E-01  0.71433339883E-02  0.21791751389E-01  0.00000000000E+00 0.  1.
     999901    1    3    3    0    0  0.30555083422E-01  0.13816197358E+00  0.36070290451E-01  0.89203330090E+00  0.88000000000E+00 0.  1.
        -11    1    4    4    0    0 -0.27097333611E-01 -0.10346200117E+00 -0.34410811048E-01  0.11235219719E+00  0.51100000000E-03 0. -1.
         11    1    4    4    0    0  0.29273781637E-02 -0.15127457270E-01 -0.88028133918E-02  0.17752750519E-01  0.51100000000E-03 0.  1.
</event>
<event>
 8    1  0.1123285E+005  0.1043930E+01  0.7957747E-01            NaN
         13   -1    0    0    0    0  0.00000000000E+00  0.00000000000E+00  0.74505805969E-08  0.10566000000E+00  0.10566000000E+00 0. -1.
     999900   -1    0    0    0    0 -0.00000000000E+00 -0.00000000000E+00 -0.74505805969E-08  0.93827000000E+00  0.93827000000E+00 0. -1.
     999902    2    1    2    0    0 -0.29204858719E-01  0.11811798985E-01  0.11369236604E-01  0.10104381815E+01  0.10098829718E+01 0.  0.
     999903    2    3    3    0    0 -0.25199504358E-01 -0.11399296404E+00  0.26492793999E-01  0.12135348176E+00  0.19884379037E-01 0.  0.
         14    1    1    2    0    0  0.29204858719E-01 -0.11811798985E-01 -0.11369236604E-01  0.33491818539E-01  0.00000000000E+00 0.  1.
     999901    1    3    3    0    0 -0.40053543610E-02  0.12580476303E+00 -0.15123557395E-01  0.88908469971E+00  0.88000000000E+00 0.  1.
        -11    1    4    4    0    0 -0.26031297845E-01 -0.10502006755E+00  0.19515585618E-01  0.10994526938E+00  0.51100000000E-03 0. -1.
         11    1    4    4    0    0  0.83179348738E-03 -0.89728964883E-02  0.69772083813E-02  0.11408212375E-01  0.51100000000E-03 0.  1.
</event>
<event>
 8    1  0.1123285E+005  0.1043930E+01  0.7957747E-01            NaN
         13   -1    0    0    0    0  0.00000000000E+00  0.00000000000E+00  0.74505805969E-08  0.10566000000E+00  0.10566000000E+00 0.  1.
     999900   -1    0    0    0    0 -0.00000000000E+00 -0.00000000000E+00 -0.74505805969E-08  0.93827000000E+00  0.93827000000E+00 0. -1.
     999902    2    1    2    0    0 -0.23326550131E-01  0.38366183941E-02  0.47589832965E-02  0.10198157821E+01  0.10195306440E+01 0.  0.
     999903    2    3    3    0    0  0.75497817834E-01 -0.83599425954E-01 -0.58197381628E-01  0.12775366465E+00  0.15661388342E-01 0.  0.
         14    1    1    2    0    0  0.23326550131E-01 -0.38366183941E-02 -0.47589832965E-02  0.24114217875E-01  0.00000000000E+00 0. -1.
     999901    1    3    3    0    0 -0.98824367965E-01  0.87436044348E-01  0.62956364924E-01  0.89206211748E+00  0.88000000000E+00 0.  1.
        -11    1    4    4    0    0  0.47937880387E-01 -0.59373001780E-01 -0.45890823936E-01  0.89047305175E-01  0.51100000000E-03 0.  1.
         11    1    4    4    0    0  0.27559937447E-01 -0.24226424174E-01 -0.12306557691E-01  0.38706359472E-01  0.51100000000E-03 0. -1.
</event>
<event>
 8    1  0.1123285E+005  0.1043930E+01  0.7957747E-01            NaN
         13   -1    0    0    0    0  0.00000000000E+00  0.00000000000E+00  0.74505805969E-08  0.10566000000E+00  0.10566000000E+00 0. -1.
     999900   -1    0    0    0    0 -0.00000000000E+00 -0.00000000000E+00 -0.74505805969E-08  0.93827000000E+00  0.93827000000E+00 0.  1.
     999902    2    1    2    0    0 -0.22784136702E-01  0.93162713343E-03 -0.30018596773E-02  0.10209300875E+01  0.10206709791E+01 0.  0.
     999903    2    3    3    0    0 -0.20520321265E-01 -0.11768420292E+00  0.50799430119E-01  0.13134062105E+00  0.19978023849E-01 0.  0.
         14    1    1    2    0    0  0.22784136702E-01 -0.93162713343E-03  0.30018596773E-02  0.22999912519E-01  0.00000000000E+00 0.  1.
     999901    1    3    3    0    0 -0.22638154371E-02  0.11861583005E+00 -0.53801289797E-01  0.88958946643E+00  0.88000000000E+00 0.  1.
        -11    1    4    4    0    0 -0.21038069886E-01 -0.64112078390E-01  0.30437624073E-01  0.74024786796E-01  0.51100000000E-03 0.  1.
         11    1    4    4    0    0  0.51774862190E-03 -0.53572124527E-01  0.20361806047E-01  0.57315834256E-01  0.51100000000E-03 0. -1.
</event>
<event>
 8    1  0.1123285E+005  0.1043930E+01  0.7957747E-01            NaN
         13   -1    0    0    0    0  0.00000000000E+00  0.00000000000E+00  0.74505805969E-08  0.10566000000E+00  0.10566000000E+00 0.  1.
     999900   -1    0    0    0    0 -0.00000000000E+00 -0.00000000000E+00 -0.74505805969E-08  0.93827000000E+00  0.93827000000E+00 0. -1.
     999902    2    1    2    0    0 -0.20520408509E-01  0.85081259458E-02  0.74295777578E-02  0.10205062087E+01  0.10202373489E+01 0.  0.
     999903    2    3    3    0    0  0.63781587873E-02 -0.80107864975E-01 -0.99301469066E-01  0.12923305018E+00  0.19556292076E-01 0.  0.
         14    1    1    2    0    0  0.20520408509E-01 -0.85081259458E-02 -0.74295777578E-02  0.23423791285E-01  0.00000000000E+00 0.  1.
     999901    1    3    3    0    0 -0.26898567297E-01  0.88615990921E-01  0.10673104682E+00  0.89127315854E+00  0.88000000000E+00 0.  1.
        -11    1    4    4    0    0  0.98649306818E-02 -0.70311323838E-01 -0.93204729474E-01  0.11716817757E+00  0.51100000000E-03 0.  1.
         11    1    4    4    0    0 -0.34867718945E-02 -0.97965411369E-02 -0.60967395912E-02  0.12064872612E-01  0.51100000000E-03 0. -1.
</event>
<event>
 8    1  0.1123285E+005  0.1043930E+01  0.7957747E-01            NaN
         13   -1    0    0    0    0  0.00000000000E+00  0.00000000000E+00  0.74505805969E-08  0.10566000000E+00  0.10566000000E+00 0.  1.
     999900   -1    0    0    0    0 -0.00000000000E+00 -0.00000000000E+00 -0.74505805969E-08  0.93827000000E+00  0.93827000000E+00 0. -1.
     999902    2    1    2    0    0  0.80469533371E-02 -0.13774232180E-01  0.17878333907E-01  0.10199692456E+01  0.10196877680E+01 0.  0.
     999903    2    3    3    0    0  0.61336911168E-01 -0.43680297036E-01  0.10800009711E+00  0.13325839950E+00  0.20581424616E-01 0.  0.
         14    1    1    2    0    0 -0.80469533371E-02  0.13774232180E-01 -0.17878333907E-01  0.23960754442E-01  0.00000000000E+00 0. -1.
     999901    1    3    3    0    0 -0.53289957831E-01  0.29906064856E-01 -0.90121763205E-01  0.88671084606E+00  0.88000000000E+00 0. -1.
        -11    1    4    4    0    0  0.30175347630E-01 -0.33864867735E-01  0.61057945496E-01  0.76063885652E-01  0.51100000000E-03 0. -1.
         11    1    4    4    0    0  0.31161563538E-01 -0.98154293009E-02  0.46942151616E-01  0.57194513844E-01  0.51100000000E-03 0.  1.
</event>
<event>
 8    1  0.1123285E+005  0.1043930E+01  0.7957747E-01            NaN
         13   -1    0    0    0    0  0.00000000000E+00  0.00000000000E+00  0.74505805969E-08  0.10566000000E+00  0.10566000000E+00 0.  1.
     999900   -1    0    0    0    0 -0.00000000000E+00 -0.00000000000E+00 -0.74505805969E-08  0.93827000000E+00  0.93827000000E+00 0. -1.
     999902    2    1    2    0    0 -0.13197781534E-01  0.14403233233E-01  0.13719646373E-01  0.10200581911E+01  0.10197788240E+01 0.  0.
     999903    2    3    3    0    0  0.44173527064E-01 -0.11820993173E+00 -0.31409139589E-02  0.12811536943E+00  0.21881364021E-01 0.  0.
         14    1    1    2    0    0  0.13197781534E-01 -0.14403233233E-01 -0.13719646373E-01  0.23871808930E-01  0.00000000000E+00 0. -1.
     999901    1    3    3    0    0 -0.57371308598E-01  0.13261316497E+00  0.16860560332E-01  0.89194282164E+00  0.88000000000E+00 0.  1.
        -11    1    4    4    0    0  0.17920931672E-01 -0.45306564315E-01  0.93886735071E-02  0.49621093027E-01  0.51100000000E-03 0.  1.
         11    1    4    4    0    0  0.26252595391E-01 -0.72903367418E-01 -0.12529587466E-01  0.78494276407E-01  0.51100000000E-03 0. -1.
</event>
<event>
 8    1  0.1123285E+005  0.1043930E+01  0.7957747E-01            NaN
         13   -1    0    0    0    0  0.00000000000E+00  0.00000000000E+00  0.74505805969E-08  0.10566000000E+00  0.10566000000E+00 0.  1.
     999900   -1    0    0    0    0 -0.00000000000E+00 -0.00000000000E+00 -0.74505805969E-08  0.93827000000E+00  0.93827000000E+00 0. -1.
     999902    2    1    2    0    0 -0.36070687235E-02  0.14913030652E-01 -0.17880050729E-01  0.10203693200E+01  0.10200972716E+01 0.  0.
     999903    2    3    3    0    0  0.34895431256E-01 -0.11037854153E-01 -0.12565137466E+00  0.13257962126E+00  0.21202893008E-01 0.  0.
         14    1    1    2    0    0  0.36070687235E-02 -0.14913030652E-01  0.17880050729E-01  0.23560680000E-01  0.00000000000E+00 0.  1.
     999901    1    3    3    0    0 -0.38502499979E-01  0.25950884806E-01  0.10777132393E+00  0.88778969874E+00  0.88000000000E+00 0.  1.
        -11    1    4    4    0    0  0.37775040778E-01 -0.10826700912E-01 -0.11865035087E+00  0.12498935171E+00  0.51100000000E-03 0. -1.
         11    1    4    4    0    0 -0.28796095216E-02 -0.21115324179E-03 -0.70010237926E-02  0.75902695494E-02  0.51100000000E-03 0.  1.
</event>
<event>
 8    1  0.1123285E+005  0.1043930E+01  0.7957747E-01            NaN
         13   -1    0    0    0    0  0.00000000000E+00  0.00000000000E+00  0.74505805969E-08  0.10566000000E+00  0.10566000000E+00 0. -1.
     999900   -1    0    0    0    0 -0.00000000000E+00 -0.00000000000E+00 -0.74505805969E-08  0.93827000000E+00  0.93827000000E+00 0.  1.
     999902    2    1    2    0    0  0.38857040994E-02  0.18311691812E-01 -0.14754403383E-01  0.10200949591E+01  0.10198164622E+01 0.  0.
     999903    2    3    3    0    0 -0.49082167976E-01 -0.93818380140E-01 -0.72056399753E-01  0.12955452363E+00  0.19526960363E-01 0.  0.
         14    1    1    2    0    0 -0.38857040994E-02 -0.18311691812E-01  0.14754403383E-01  0.23835040855E-01  0.00000000000E+00 0. -1.
     999901    1    3    3    0    0  0.52967872075E-01  0.11213007195E+00  0.57301996370E-01  0.89054043552E+00  0.88000000000E+00 0.  1.
        -11    1    4    4    0    0 -0.40472993009E-01 -0.77660324482E-01 -0.49850179219E-01  0.10076949266E+00  0.51100000000E-03 0.  1.
         11    1    4    4    0    0 -0.86091749664E-02 -0.16158055658E-01 -0.22206220534E-01  0.28785030965E-01  0.51100000000E-03 0. -1.
</event>
<event>
 8    1  0.1123285E+005  0.1043930E+01  0.7957747E-01            NaN
         13   -1    0    0    0    0  0.00000000000E+00  0.00000000000E+00  0.74505805969E-08  0.10566000000E+00  0.10566000000E+00 0. -1.
     999900   -1    0    0    0    0 -0.00000000000E+00 -0.00000000000E+00 -0.74505805969E-08  0.93827000000E+00  0.93827000000E+00 0. -1.
     999902    2    1    2    0    0  0.23619590564E-01  0.24526919422E-02 -0.13009417968E-02  0.10201477964E+01  0.10198705474E+01 0.  0.
     999903    2    3    3    0    0  0.40297194399E-01  0.12192975936E+00  0.21183058203E-01  0.13163305692E+00  0.19692882578E-01 0.  0.
         14    1    1    2    0    0 -0.23619590564E-01 -0.24526919422E-02  0.13009417968E-02  0.23782203551E-01  0.00000000000E+00 0.  1.
     999901    1    3    3    0    0 -0.16677603835E-01 -0.11947706742E+00 -0.22484000000E-01  0.88851473953E+00  0.88000000000E+00 0. -1.
        -11    1    4    4    0    0  0.20980618237E-01  0.35316596096E-01  0.43900701871E-02  0.41315640364E-01  0.51100000000E-03 0.  1.
         11    1    4    4    0    0  0.19316576163E-01  0.86613163265E-01  0.16792988016E-01  0.90317416553E-01  0.51100000000E-03 0. -1.
</event>
<event>
 8    1  0.1123285E+005  0.1043930E+01  0.7957747E-01            NaN
         13   -1    0    0    0    0  0.00000000000E+00  0.00000000000E+00  0.74505805969E-08  0.10566000000E+00  0.10566000000E+00 0.  1.
     999900   -1    0    0    0    0 -0.00000000000E+00 -0.00000000000E+00 -0.74505805969E-08  0.93827000000E+00  0.93827000000E+00 0. -1.
     999902    2    1    2    0    0 -0.22557380515E-01  0.33755838137E-02 -0.11528102314E-02  0.10210923348E+01  0.10208369102E+01 0.  0.
     999903    2    3    3    0    0  0.36581305858E-01 -0.12291391203E+00 -0.90344454442E-02  0.13007687971E+00  0.19807870161E-01 0.  0.
         14    1    1    2    0    0  0.22557380515E-01 -0.33755838137E-02  0.11528102314E-02  0.22837665231E-01  0.00000000000E+00 0.  1.
     999901    1    3    3    0    0 -0.59138686374E-01  0.12628949585E+00  0.78816352128E-02  0.89101545506E+00  0.88000000000E+00 0.  1.
        -11    1    4    4    0    0  0.28682151910E-01 -0.11439349561E+00 -0.61565002556E-02  0.11809615274E+00  0.51100000000E-03 0. -1.
         11    1    4    4    0    0  0.78991539488E-02 -0.85204164260E-02 -0.28779451887E-02  0.11980726968E-01  0.51100000000E-03 0.  1.
</event>
<event>
 8    1  0.1123285E+005  0.1043930E+01  0.7957747E-01            NaN
         13   -1    0    0    0    0  0.00000000000E+00  0.00000000000E+00  0.74505805969E-08  0.10566000000E+00  0.10566000000E+00 0.  1.
     999900   -1    0    0    0    0 -0.00000000000E+00 -0.00000000000E+00 -0.74505805969E-08  0.93827000000E+00  0.93827000000E+00 0. -1.
     999902    2    1    2    0    0 -0.25374821773E-03 -0.22516920432E-01  0.95115650534E-02  0.10194852467E+01  0.10191921420E+01 0.  0.
     999903    2    3    3    0    0  0.83158630816E-01  0.38081451800E-01 -0.87488102822E-01  0.12817232564E+00  0.20209455060E-01 0.  0.
         14    1    1    2    0    0  0.25374821773E-03  0.22516920432E-01 -0.95115650534E-02  0.24444753295E-01  0.00000000000E+00 0. -1.
     999901    1    3    3    0    0 -0.83412379033E-01 -0.60598372231E-01  0.96999667875E-01  0.89131292107E+00  0.88000000000E+00 0.  1.
        -11    1    4    4    0    0  0.45472270358E-01  0.97241153432E-02 -0.43433585113E-01  0.63631935594E-01  0.51100000000E-03 0. -1.
         11    1    4    4    0    0  0.37686360458E-01  0.28357336457E-01 -0.44054517709E-01  0.64540390044E-01  0.51100000000E-03 0.  1.
</event>
<event>
 8    1  0.1416482E+005  0.1043930E+01  0.7957747E-01            NaN
         13   -1    0    0    0    0  0.00000000000E+00  0.00000000000E+00  0.74505805969E-08  0.10566000000E+00  0.10566000000E+00 0. -1.
     999900   -1    0    0    0    0 -0.00000000000E+00 -0.00000000000E+00 -0.74505805969E-08  0.93827000000E+00  0.93827000000E+00 0.  1.
     999902    2    1    2    0    0 -0.44684306643E-02  0.15646535824E-01  0.17078296354E-01  0.10203408253E+01  0.10200681108E+01 0.  0.
     999903    2    3    3    0    0  0.11985832854E+00  0.39043423927E-01 -0.26134953668E-01  0.13024423370E+00  0.19751373056E-01 0.  0.
         14    1    1    2    0    0  0.44684306643E-02 -0.15646535824E-01 -0.17078296354E-01  0.23589174684E-01  0.00000000000E+00 0.  1.
     999901    1    3    3    0    0 -0.12432675920E+00 -0.23396888103E-01  0.43213250022E-01  0.89009659161E+00  0.88000000000E+00 0. -1.
        -11    1    4    4    0    0  0.40825732582E-01  0.14837186241E-01  0.36292551892E-03  0.43442782741E-01  0.51100000000E-03 0. -1.
         11    1    4    4    0    0  0.79032595956E-01  0.24206237686E-01 -0.26497879187E-01  0.86801450960E-01  0.51100000000E-03 0.  1.
</event>
<event>
 8    1  0.1123285E+005  0.1043930E+01  0.7957747E-01            NaN
         13   -1    0    0    0    0  0.00000000000E+00  0.00000000000E+00  0.74505805969E-08  0.10566000000E+00  0.10566000000E+00 0. -1.
     999900   -1    0    0    0    0 -0.00000000000E+00 -0.00000000000E+00 -0.74505805969E-08  0.93827000000E+00  0.93827000000E+00 0.  1.
     999902    2    1    2    0    0 -0.11412756248E-01  0.77254644842E-02  0.20566976150E-01  0.10191724897E+01  0.10188717434E+01 0.  0.
     999903    2    3    3    0    0  0.39832330556E-01  0.68337946441E-01 -0.97808481723E-01  0.12770589983E+00  0.22036521333E-01 0.  0.
         14    1    1    2    0    0  0.11412756248E-01 -0.77254644842E-02 -0.20566976150E-01  0.24757510267E-01  0.00000000000E+00 0.  1.
     999901    1    3    3    0    0 -0.51245086804E-01 -0.60612481957E-01  0.11837545787E+00  0.89146658991E+00  0.88000000000E+00 0. -1.
        -11    1    4    4    0    0  0.35769862517E-01  0.60957628035E-01 -0.73481426434E-01  0.10195634670E+00  0.51100000000E-03 0. -1.
         11    1    4    4    0    0  0.40624680383E-02  0.73803184060E-02 -0.24327055289E-01  0.25749553130E-01  0.51100000000E-03 0.  1.
</event>
<event>
 8    1  0.1123285E+005  0.1043930E+01  0.7957747E-01            NaN
         13   -1    0    0    0    0  0.00000000000E+00  0.00000000000E+00  0.74505805969E-08  0.10566000000E+00  0.10566000000E+00 0. -1.
     999900   -1    0    0    0    0 -0.00000000000E+00 -0.00000000000E+00 -0.74505805969E-08  0.93827000000E+00  0.93827000000E+00 0. -1.
     999902    2    1    2    0    0 -0.99814646265E-02  0.16065327258E-01 -0.13024762017E-01  0.10209654882E+01  0.10207071859E+01 0.  0.
     999903    2    3    3    0    0  0.33825602038E-01 -0.10932639134E+00  0.55041037936E-01  0.12839891069E+00  0.18982444905E-01 0.  0.
         14    1    1    2    0    0  0.99814646265E-02 -0.16065327258E-01  0.13024762017E-01  0.22964511787E-01  0.00000000000E+00 0. -1.
     999901    1    3    3    0    0 -0.43807066664E-01  0.12539171859E+00 -0.68065799954E-01  0.89256657752E+00  0.88000000000E+00 0. -1.
        -11    1    4    4    0    0  0.32519079297E-01 -0.87532084735E-01  0.50246991619E-01  0.10603950992E+00  0.51100000000E-03 0.  1.
         11    1    4    4    0    0  0.13065227414E-02 -0.21794306600E-01  0.47940463176E-02  0.22359400773E-01  0.51100000000E-03 0. -1.
</event>
<event>
 8    1  0.1123285E+005  0.1043930E+01  0.7957747E-01            NaN
         13   -1    0    0    0    0  0.00000000000E+00  0.00000000000E+00  0.74505805969E-08  0.10566000000E+00  0.10566000000E+00 0.  1.
     999900   -1    0    0    0    0 -0.00000000000E+00 -0.00000000000E+00 -0.74505805969E-08  0.93827000000E+00  0.93827000000E+00 0.  1.
     999902    2    1    2    0    0 -0.19319849024E-01  0.37161457982E-02  0.12040261564E-01  0.10208641333E+01  0.10206035198E+01 0.  0.
     999903    2    3    3    0    0  0.11404428792E-01  0.10417594313E+00  0.78005488067E-01  0.13216420467E+00  0.19995817164E-01 0.  0.
         14    1    1    2    0    0  0.19319849024E-01 -0.37161457982E-02 -0.12040261564E-01  0.23065866653E-01  0.00000000000E+00 0.  1.
     999901    1    3    3    0    0 -0.30724277816E-01 -0.10045979733E+00 -0.65965226503E-01  0.88869992868E+00  0.88000000000E+00 0.  1.
        -11    1    4    4    0    0  0.13614936046E-01  0.52524650413E-01  0.47620731771E-01  0.72195571886E-01  0.51100000000E-03 0. -1.
         11    1    4    4    0    0 -0.22105072549E-02  0.51651292716E-01  0.30384756296E-01  0.59968632782E-01  0.51100000000E-03 0.  1.
</event>
<event>
 8    1  0.1123285E+005  0.1043930E+01  0.7957747E-01            NaN
         13   -1    0    0    0    0  0.00000000000E+00  0.00000000000E+00  0.74505805969E-08  0.10566000000E+00  0.10566000000E+00 0. -1.
     999900   -1    0    0    0    0 -0.00000000000E+00 -0.00000000000E+00 -0.74505805969E-08  0.93827000000E+00  0.93827000000E+00 0. -1.
     999902    2    1    2    0    0 -0.19581788471E-01  0.12921636187E-01  0.11636821260E-02  0.10204402304E+01  0.10201698361E+01 0.  0.
     999903    2    3    3    0    0  0.58869960209E-01  0.23778686477E-01 -0.11155852851E+00  0.12972206552E+00  0.18745955694E-01 0.  0.
         14    1    1    2    0    0  0.19581788471E-01 -0.12921636187E-01 -0.11636821260E-02  0.23489769636E-01  0.00000000000E+00 0.  1.
     999901    1    3    3    0    0 -0.78451748680E-01 -0.10857050290E-01  0.11272221063E+00  0.89071816484E+00  0.88000000000E+00 0.  1.
        -11    1    4    4    0    0  0.34906474517E-01  0.41417917241E-02 -0.56540332801E-01  0.66578425606E-01  0.51100000000E-03 0.  1.
         11    1    4    4    0    0  0.23963485692E-01  0.19636894753E-01 -0.55018195705E-01  0.63143639915E-01  0.51100000000E-03 0. -1.
</event>
<event>
 8    1  0.1123285E+005  0.1043930E+01  0.7957747E-01            NaN
         13   -1    0    0    0    0  0.00000000000E+00  0.00000000000E+00  0.74505805969E-08  0.10566000000E+00  0.10566000000E+00 0.  1.
     999900   -1    0    0    0    0 -0.00000000000E+00 -0.00000000000E+00 -0.74505805969E-08  0.93827000000E+00  0.93827000000E+00 0. -1.
     999902    2    1    2    0    0 -0.21924158339E-01  0.84625059209E-03 -0.92662618482E-02  0.10201130214E+01  0.10198349514E+01 0.  0.
     999903    2    3    3    0    0  0.49267613696E-01 -0.11013520199E+00  0.40505733849E-01  0.12889901640E+00  0.20425020911E-01 0.  0.
         14    1    1    2    0    0  0.21924158339E-01 -0.84625059209E-03  0.92662618482E-02  0.23816978557E-01  0.00000000000E+00 0.  1.
     999901    1    3    3    0    0 -0.71191772035E-01  0.11098145258E+00 -0.49771995697E-01  0.89121400504E+00  0.88000000000E+00 0. -1.
        -11    1    4    4    0    0  0.29315285274E-01 -0.43729745978E-01  0.12470914059E-01  0.54106020483E-01  0.51100000000E-03 0.  1.
         11    1    4    4    0    0  0.19952328422E-01 -0.66405456009E-01  0.28034819790E-01  0.74792995921E-01  0.51100000000E-03 0. -1.
</event>
<event>
 8    1  0.1123285E+005  0.1043930E+01  0.7957747E-01            NaN
         13   -1    0    0    0    0  0.00000000000E+00  0.00000000000E+00  0.74505805969E-08  0.10566000000E+00  0.10566000000E+00 0.  1.
     999900   -1    0    0    0    0 -0.00000000000E+00 -0.00000000000E+00 -0.74505805969E-08  0.93827000000E+00  0.93827000000E+00 0.  1.
     999902    2    1    2    0    0 -0.21731653755E-01  0.87436001300E-02 -0.40637138173E-02  0.10201554529E+01  0.10198783844E+01 0.  0.
     999903    2    3    3    0    0 -0.12237936415E+00 -0.23451792040E-01  0.40345208402E-01  0.13272170484E+00  0.21462054299E-01 0.  0.
         14    1    1    2    0    0  0.21731653755E-01 -0.87436001300E-02  0.40637138173E-02  0.23774547065E-01  0.00000000000E+00 0.  1.
     999901    1    3    3    0    0  0.10064771040E+00  0.32195392170E-01 -0.44408922220E-01  0.88743374809E+00  0.88000000000E+00 0.  1.
        -11    1    4    4    0    0 -0.77234351601E-02  0.36948514413E-02  0.35565701622E-02  0.92851327489E-02  0.51100000000E-03 0.  1.
         11    1    4    4    0    0 -0.11465592899E+00 -0.27146643481E-01  0.36788638240E-01  0.12343657209E+00  0.51100000000E-03 0. -1.
</event>
<event>
 8    1  0.1123285E+005  0.1043930E+01  0.7957747E-01            NaN
         13   -1    0    0    0    0  0.00000000000E+00  0.00000000000E+00  0.74505805969E-08  0.10566000000E+00  0.10566000000E+00 0. -1.
     999900   -1    0    0    0    0 -0.00000000000E+00 -0.00000000000E+00 -0.74505805969E-08  0.93827000000E+00  0.93827000000E+00 0.  1.
     999902    2    1    2    0    0  0.20352420687E-01 -0.10018176371E-01  0.63115340040E-02  0.10203838677E+01  0.10201121591E+01 0.  0.
     999903    2    3    3    0    0  0.76612028251E-01  0.31170252943E-01  0.10137831559E+00  0.13252164689E+00  0.21057931567E-01 0.  0.
         14    1    1    2    0    0 -0.20352420687E-01  0.10018176371E-01 -0.63115340040E-02  0.23546132318E-01  0.00000000000E+00 0. -1.
     999901    1    3    3    0    0 -0.56259607564E-01 -0.41188429315E-01 -0.95066781581E-01  0.88786222079E+00  0.88000000000E+00 0. -1.
        -11    1    4    4    0    0  0.60521888359E-01  0.24261904735E-01  0.64616005258E-01  0.91798846662E-01  0.51100000000E-03 0. -1.
         11    1    4    4    0    0  0.16090139892E-01  0.69083482079E-02  0.36762310327E-01  0.40722800227E-01  0.51100000000E-03 0.  1.
</event>
<event>
 8    1  0.1123285E+005  0.1043930E+01  0.7957747E-01            NaN
         13   -1    0    0    0    0  0.00000000000E+00  0.00000000000E+00  0.74505805969E-08  0.10566000000E+00  0.10566000000E+00 0.  1.
     999900   -1    0    0    0    0 -0.00000000000E+00 -0.00000000000E+00 -0.74505805969E-08  0.93827000000E+00  0.93827000000E+00 0. -1.
     999902    2    1    2    0    0 -0.15545464246E-01 -0.14395309728E-01 -0.79266727464E-02  0.10213088033E+01  0.10210582516E+01 0.  0.
     999903    2    3    3    0    0  0.10941086485E+00 -0.63738903219E-01 -0.27765488962E-01  0.13089179252E+00  0.18120536463E-01 0.  0.
         14    1    1    2    0    0  0.15545464246E-01  0.14395309728E-01  0.79266727464E-02  0.22621196732E-01  0.00000000000E+00 0.  1.
     999901    1    3    3    0    0 -0.12495632909E+00  0.49343593491E-01  0.19838816216E-01  0.89041701075E+00  0.88000000000E+00 0.  1.
        -11    1    4    4    0    0  0.57135958371E-01 -0.31099510249E-01 -0.23299809197E-01  0.69100213505E-01  0.51100000000E-03 0.  1.
         11    1    4    4    0    0  0.52274906476E-01 -0.32639392970E-01 -0.44656797648E-02  0.61791579016E-01  0.51100000000E-03 0. -1.
</event>
<event>
 8    1  0.1123285E+005  0.1043930E+01  0.7957747E-01            NaN
         13   -1    0    0    0    0  0.00000000000E+00  0.00000000000E+00  0.74505805969E-08  0.10566000000E+00  0.10566000000E+00 0. -1.
     999900   -1    0    0    0    0 -0.00000000000E+00 -0.00000000000E+00 -0.74505805969E-08  0.93827000000E+00  0.93827000000E+00 0.  1.
     999902    2    1    2    0    0 -0.11191714507E-01  0.57681172625E-02  0.18400737716E-01  0.10216339735E+01  0.10213906515E+01 0.  0.
     999903    2    3    3    0    0 -0.12084207760E+00  0.50096518242E-01  0.18740509370E-01  0.13372163281E+00  0.20440145109E-01 0.  0.
         14    1    1    2    0    0  0.11191714507E-01 -0.57681172625E-02 -0.18400737716E-01  0.22296026526E-01  0.00000000000E+00 0.  1.
     999901    1    3    3    0    0  0.10965036309E+00 -0.44328400980E-01 -0.33977165375E-03  0.88791234066E+00  0.88000000000E+00 0. -1.
        -11    1    4    4    0    0 -0.54176689728E-01  0.30647791881E-01  0.15762507714E-01  0.64211514757E-01  0.51100000000E-03 0. -1.
         11    1    4    4    0    0 -0.66665387869E-01  0.19448726361E-01  0.29780016555E-02  0.69510118052E-01  0.51100000000E-03 0.  1.
</event>
<event>
 8    1  0.1123285E+005  0.1043930E+01  0.7957747E-01            NaN
         13   -1    0    0    0    0  0.00000000000E+00  0.00000000000E+00  0.74505805969E-08  0.10566000000E+00  0.10566000000E+00 0. -1.
     999900   -1    0    0    0    0 -0.00000000000E+00 -0.00000000000E+00 -0.74505805969E-08  0.93827000000E+00  0.93827000000E+00 0.  1.
     999902    2    1    2    0    0 -0.10806033107E-01  0.68116114961E-02  0.20503323056E-01  0.10197731240E+01  0.10194869640E+01 0.  0.
     999903    2    3    3    0    0  0.10836960423E+00  0.61876999849E-01  0.32337528122E-01  0.12995568319E+00  0.16432578526E-01 0.  0.
         14    1    1    2    0    0  0.10806033107E-01 -0.68116114961E-02 -0.20503323056E-01  0.24156876019E-01  0.00000000000E+00 0.  1.
     999901    1    3    3    0    0 -0.11917563734E+00 -0.55065388352E-01 -0.11834205066E-01  0.88981744079E+00  0.88000000000E+00 0.  1.
        -11    1    4    4    0    0  0.20607037980E-01  0.19363985418E-01  0.55047730409E-02  0.28812802585E-01  0.51100000000E-03 0. -1.
         11    1    4    4    0    0  0.87762566248E-01  0.42513014431E-01  0.26832755082E-01  0.10114288060E+00  0.51100000000E-03 0.  1.
</event>
<event>
 8    1  0.1123285E+005  0.1043930E+01  0.7957747E-01            NaN
         13   -1    0    0    0    0  0.00000000000E+00  0.00000000000E+00  0.74505805969E-08  0.10566000000E+00  0.10566000000E+00 0. -1.
     999900   -1    0    0    0    0 -0.00000000000E+00 -0.00000000000E+00 -0.74505805969E-08  0.93827000000E+00  0.93827000000E+00 0. -1.
     999902    2    1    2    0    0 -0.17001204022E-01 -0.11329515702E-01 -0.14459213447E-01  0.10189006629E+01  0.10185931931E+01 0.  0.
     999903    2    3    3    0    0 -0.97788434524E-01  0.18006151517E-01 -0.84261493826E-01  0.13196238072E+00  0.20670538537E-01 0.  0.
         14    1    1    2    0    0  0.17001204022E-01  0.11329515702E-01  0.14459213447E-01  0.25029337141E-01  0.00000000000E+00 0. -1.
     999901    1    3    3    0    0  0.80787230502E-01 -0.29335667218E-01  0.69802280379E-01  0.88693828214E+00  0.88000000000E+00 0.  1.
        -11    1    4    4    0    0 -0.49792187317E-01  0.14671086170E-01 -0.55092715571E-01  0.75696572691E-01  0.51100000000E-03 0.  1.
         11    1    4    4    0    0 -0.47996247207E-01  0.33350653469E-02 -0.29168778255E-01  0.56265808025E-01  0.51100000000E-03 0. -1.
</event>
<event>
 8    1  0.1123285E+005  0.1043930E+01  0.7957747E-01            NaN
         13   -1    0    0    0    0  0.00000000000E+00  0.00000000000E+00  0.74505805969E-08  0.10566000000E+00  0.10566000000E+00 0.  1.
     999900   -1    0    0    0    0 -0.00000000000E+00 -0.00000000000E+00 -0.74505805969E-08  0.93827000000E+00  0.93827000000E+00 0.  1.
     999902    2    1    2    0    0  0.18118503332E-02 -0.26028335766E-01  0.18751255908E-01  0.10117995368E+01  0.10112892445E+01 0.  0.
     999903    2    3    3    0    0 -0.11737699998E+00 -0.80272222446E-03 -0.26803964786E-01  0.12223920064E+00  0.21117887124E-01 0.  0.
         14    1    1    2    0    0 -0.18118503332E-02  0.26028335766E-01 -0.18751255908E-01  0.32130463154E-01  0.00000000000E+00 0. -1.
     999901    1    3    3    0    0  0.11918885032E+00 -0.25225613541E-01  0.45555220694E-01  0.88956033621E+00  0.88000000000E+00 0. -1.
        -11    1    4    4    0    0 -0.35823868037E-01 -0.74524819869E-02 -0.16371228500E-02  0.36631001912E-01  0.51100000000E-03 0.  1.
         11    1    4    4    0    0 -0.81553131948E-01  0.66497597625E-02 -0.25166841936E-01  0.85608198728E-01  0.51100000000E-03 0. -1.
</event>
<event>
 8    1  0.1123285E+005  0.1043930E+01  0.7957747E-01            NaN
         13   -1    0    0    0    0  0.00000000000E+00  0.00000000000E+00  0.74505805969E-08  0.10566000000E+00  0.10566000000E+00 0. -1.
     999900   -1    0    0    0    0 -0.00000000000E+00 -0.00000000000E+00 -0.74505805969E-08  0.93827000000E+00  0.93827000000E+00 0.  1.
     999902    2    1    2    0    0 -0.21071898722E-01 -0.92494923991E-02  0.62366287563E-02  0.10200873163E+01  0.10198086386E+01 0.  0.
     999903    2    3    3    0    0  0.23578551137E-01  0.44176963625E-01  0.11853628527E+00  0.13022257285E+00  0.19987880439E-01 0.  0.
         14    1    1    2    0    0  0.21071898722E-01  0.92494923991E-02 -0.62366287563E-02  0.23842683650E-01  0.00000000000E+00 0. -1.
     999901    1    3    3    0    0 -0.44650449859E-01 -0.53426456024E-01 -0.11229965651E+00  0.88986474350E+00  0.88000000000E+00 0. -1.
        -11    1    4    4    0    0  0.16384498123E-01  0.28922307137E-01  0.53122038662E-01  0.62667086589E-01  0.51100000000E-03 0. -1.
         11    1    4    4    0    0  0.71940530135E-02  0.15254656488E-01  0.65414246607E-01  0.67555486258E-01  0.51100000000E-03 0.  1.
</event>
<event>
 8    1  0.1123285E+005  0.1043930E+01  0.7957747E-01            NaN
         13   -1    0    0    0    0  0.00000000000E+00  0.00000000000E+00  0.74505805969E-08  0.10566000000E+00  0.10566000000E+00 0. -1.
     999900   -1    0    0    0    0 -0.00000000000E+00 -0.00000000000E+00 -0.74505805969E-08  0.93827000000E+00  0.93827000000E+00 0. -1.
     999902    2    1    2    0    0  0.22813535929E-01 -0.84718002414E-02 -0.21551010336E-02  0.10194990098E+01  0.10192062391E+01 0.  0.
     999903    2    3    3    0    0 -0.24887506052E-01  0.59246483296E-01  0.10950476790E+00  0.12858426549E+00  0.20324502374E-01 0.  0.
         14    1    1    2    0    0 -0.22813535929E-01  0.84718002414E-02  0.21551010336E-02  0.24430990184E-01  0.00000000000E+00 0. -1.
     999901    1    3    3    0    0  0.47701041981E-01 -0.67718283537E-01 -0.11165986894E+00  0.89091474433E+00  0.88000000000E+00 0. -1.
        -11    1    4    4    0    0 -0.11308245204E-01  0.36857547354E-01  0.46848367165E-01  0.60674424873E-01  0.51100000000E-03 0.  1.
         11    1    4    4    0    0 -0.13579260848E-01  0.22388935941E-01  0.62656400739E-01  0.67909840615E-01  0.51100000000E-03 0. -1.
</event>
<event>
 8    1  0.1123285E+005  0.1043930E+01  0.7957747E-01            NaN
         13   -1    0    0    0    0  0.00000000000E+00  0.00000000000E+00  0.74505805969E-08  0.10566000000E+00  0.10566000000E+00 0.  1.
     999900   -1    0    0    0    0 -0.00000000000E+00 -0.00000000000E+00 -0.74505805969E-08  0.93827000000E+00  0.93827000000E+00 0.  1.
     999902    2    1    2    0    0  0.34193333003E-02 -0.19934499141E-01  0.14876579887E-01  0.10188224568E+01  0.10185130386E+01 0.  0.
     999903    2    3    3    0    0  0.76626903215E-01  0.99830604134E-01 -0.15577885402E-02  0.12754633981E+00  0.20683575028E-01 0.  0.
         14    1    1    2    0    0 -0.34193333003E-02  0.19934499141E-01 -0.14876579887E-01  0.25107543196E-01  0.00000000000E+00 0.  1.
     999901    1    3    3    0    0 -0.73207569915E-01 -0.11976510328E+00  0.16434368427E-01  0.89127611699E+00  0.88000000000E+00 0. -1.
        -11    1    4    4    0    0  0.24634290304E-01  0.21517053515E-01 -0.67458696542E-02  0.33400594742E-01  0.51100000000E-03 0.  1.
         11    1    4    4    0    0  0.51992612911E-01  0.78313550620E-01  0.51880811140E-02  0.94145745069E-01  0.51100000000E-03 0. -1.
</event>
<event>
 8    1  0.1123285E+005  0.1043930E+01  0.7957747E-01            NaN
         13   -1    0    0    0    0  0.00000000000E+00  0.00000000000E+00  0.74505805969E-08  0.10566000000E+00  0.10566000000E+00 0.  1.
     999900   -1    0    0    0    0 -0.00000000000E+00 -0.00000000000E+00 -0.74505805969E-08  0.93827000000E+00  0.93827000000E+00 0. -1.
     999902    2    1    2    0    0 -0.28288805614E-02 -0.21937805697E-01  0.78098036735E-02  0.10204723165E+01  0.10202026689E+01 0.  0.
     999903    2    3    3    0    0  0.11325124442E+00 -0.61243911958E-01 -0.18939461159E-01  0.13157688471E+00  0.19419379164E-01 0.  0.
         14    1    1    2    0    0  0.28288805614E-02  0.21937805697E-01 -0.78098036735E-02  0.23457683548E-01  0.00000000000E+00 0. -1.
     999901    1    3    3    0    0 -0.11608012498E+00  0.39306106260E-01  0.26749264832E-01  0.88889543174E+00  0.88000000000E+00 0.  1.
        -11    1    4    4    0    0  0.49837023307E-01 -0.35741532867E-01 -0.14848911728E-01  0.63102593958E-01  0.51100000000E-03 0.  1.
         11    1    4    4    0    0  0.63414221109E-01 -0.25502379090E-01 -0.40905494310E-02  0.68474290751E-01  0.51100000000E-03 0. -1.
</event>
<event>
 8    1  0.1123285E+005  0.1043930E+01  0.7957747E-01            NaN
         13   -1    0    0    0    0  0.00000000000E+00  0.00000000000E+00  0.74505805969E-08  0.10566000000E+00  0.10566000000E+00 0.  1.
     999900   -1    0    0    0    0 -0.00000000000E+00 -0.00000000000E+00 -0.74505805969E-08  0.93827000000E+00  0.93827000000E+00 0. -1.
     999902    2    1    2    0    0  0.23422238022E-01  0.25929234278E-02  0.44981324126E-02  0.10199392167E+01  0.10196570248E+01 0.  0.
     999903    2    3    3    0    0 -0.24214496516E-01  0.40303134034E-01 -0.11825723098E+00  0.12934379923E+00  0.23116255450E-01 0.  0.
         14    1    1    2    0    0 -0.23422238022E-01 -0.25929234278E-02 -0.44981324126E-02  0.23990783252E-01  0.00000000000E+00 0. -1.
     999901    1    3    3    0    0  0.47636734538E-01 -0.37710210606E-01  0.12275536339E+00  0.89059541752E+00  0.88000000000E+00 0.  1.
        -11    1    4    4    0    0 -0.89464180927E-02  0.35082637670E-01 -0.79416229674E-01  0.87281318271E-01  0.51100000000E-03 0.  1.
         11    1    4    4    0    0 -0.15268078423E-01  0.52204963634E-02 -0.38841001306E-01  0.42062480959E-01  0.51100000000E-03 0. -1.
</event>
<event>
 8    1  0.1123285E+005  0.1043930E+01  0.7957747E-01            NaN
         13   -1    0    0    0    0  0.00000000000E+00  0.00000000000E+00  0.74505805969E-08  0.10566000000E+00  0.10566000000E+00 0. -1.
     999900   -1    0    0    0    0 -0.00000000000E+00 -0.00000000000E+00 -0.74505805969E-08  0.93827000000E+00  0.93827000000E+00 0.  1.
     999902    2    1    2    0    0 -0.35917062164E-02  0.16918194054E-01 -0.17391039381E-01  0.10194029966E+01  0.10191078921E+01 0.  0.
     999903    2    3    3    0    0 -0.64625691403E-01  0.10820215408E+00  0.30785814621E-01  0.13127073285E+00  0.20001319548E-01 0.  0.
         14    1    1    2    0    0  0.35917062164E-02 -0.16918194054E-01  0.17391039381E-01  0.24527003371E-01  0.00000000000E+00 0.  1.
     999901    1    3    3    0    0  0.61033985186E-01 -0.91283960027E-01 -0.48176854001E-01  0.88813226378E+00  0.88000000000E+00 0.  1.
        -11    1    4    4    0    0 -0.47527792613E-01  0.61785010705E-01  0.22303265040E-01  0.81080055322E-01  0.51100000000E-03 0. -1.
         11    1    4    4    0    0 -0.17097898789E-01  0.46417143377E-01  0.84825495811E-02  0.50190677527E-01  0.51100000000E-03 0.  1.
</event>
<event>
 8    1  0.1123285E+005  0.1043930E+01  0.7957747E-01            NaN
         13   -1    0    0    0    0  0.00000000000E+00  0.00000000000E+00  0.74505805969E-08  0.10566000000E+00  0.10566000000E+00 0. -1.
     999900   -1    0    0    0    0 -0.00000000000E+00 -0.00000000000E+00 -0.74505805969E-08  0.93827000000E+00  0.93827000000E+00 0.  1.
     999902    2    1    2    0    0  0.20132745517E-01  0.44037229817E-02 -0.11139202860E-01  0.10205034753E+01  0.10202345520E+01 0.  0.
     999903    2    3    3    0    0  0.35421872596E-01  0.84438481565E-01 -0.94136484419E-01  0.13285046387E+00  0.20074905353E-01 0.  0.
         14    1    1    2    0    0 -0.20132745517E-01 -0.44037229817E-02  0.11139202860E-01  0.23426524679E-01  0.00000000000E+00 0. -1.
     999901    1    3    3    0    0 -0.15289127079E-01 -0.80034758584E-01  0.82997281559E-01  0.88765301145E+00  0.88000000000E+00 0. -1.
        -11    1    4    4    0    0  0.46825415397E-02  0.36310743610E-01 -0.35511202855E-01  0.51006891162E-01  0.51100000000E-03 0. -1.
         11    1    4    4    0    0  0.30739331056E-01  0.48127737956E-01 -0.58625281564E-01  0.81843572710E-01  0.51100000000E-03 0.  1.
</event>
<event>
 8    1  0.1123285E+005  0.1043930E+01  0.7957747E-01            NaN
         13   -1    0    0    0    0  0.00000000000E+00  0.00000000000E+00  0.74505805969E-08  0.10566000000E+00  0.10566000000E+00 0.  1.
     999900   -1    0    0    0    0 -0.00000000000E+00 -0.00000000000E+00 -0.74505805969E-08  0.93827000000E+00  0.93827000000E+00 0. -1.
     999902    2    1    2    0    0 -0.21402541427E-01 -0.62679278592E-02 -0.78272012826E-02  0.10202948402E+01  0.10200210489E+01 0.  0.
     999903    2    3    3    0    0 -0.16258691274E-01  0.10860250746E+00 -0.68227796551E-01  0.13076130625E+00  0.19612172747E-01 0.  0.
         14    1    1    2    0    0  0.21402541427E-01  0.62679278592E-02  0.78272012826E-02  0.23635159807E-01  0.00000000000E+00 0. -1.
     999901    1    3    3    0    0 -0.51438501535E-02 -0.11487043532E+00  0.60400595269E-01  0.88953353395E+00  0.88000000000E+00 0.  1.
        -11    1    4    4    0    0 -0.74979957509E-02  0.90141479640E-01 -0.49889575690E-01  0.10330022834E+00  0.51100000000E-03 0. -1.
         11    1    4    4    0    0 -0.87606955228E-02  0.18461027824E-01 -0.18338220862E-01  0.27461077905E-01  0.51100000000E-03 0.  1.
</event>
<event>
 8    1  0.1123285E+005  0.1043930E+01  0.7957747E-01            NaN
         13   -1    0    0    0    0  0.00000000000E+00  0.00000000000E+00  0.74505805969E-08  0.10566000000E+00  0.10566000000E+00 0. -1.
     999900   -1    0    0    0    0 -0.00000000000E+00 -0.00000000000E+00 -0.74505805969E-08  0.93827000000E+00  0.93827000000E+00 0.  1.
     999902    2    1    2    0    0 -0.62695456993E-02 -0.22215334987E-01  0.73692805817E-02  0.10196991393E+01  0.10194112027E+01 0.  0.
     999903    2    3    3    0    0 -0.69651168320E-01  0.49611002800E-01  0.96012330542E-01  0.13007346346E+00  0.19702828043E-01 0.  0.
         14    1    1    2    0    0  0.62695456993E-02  0.22215334987E-01 -0.73692805817E-02  0.24230860657E-01  0.00000000000E+00 0.  1.
     999901    1    3    3    0    0  0.63381622621E-01 -0.71826337787E-01 -0.88643049960E-01  0.88962567588E+00  0.88000000000E+00 0.  1.
        -11    1    4    4    0    0 -0.48324238737E-01  0.34262398132E-01  0.79088463578E-01  0.98814928869E-01  0.51100000000E-03 0. -1.
         11    1    4    4    0    0 -0.21326929583E-01  0.15348604668E-01  0.16923866964E-01  0.31258534590E-01  0.51100000000E-03 0.  1.
</event>
<event>
 8    1  0.1123285E+005  0.1043930E+01  0.7957747E-01            NaN
         13   -1    0    0    0    0  0.00000000000E+00  0.00000000000E+00  0.74505805969E-08  0.10566000000E+00  0.10566000000E+00 0.  1.
     999900   -1    0    0    0    0 -0.00000000000E+00 -0.00000000000E+00 -0.74505805969E-08  0.93827000000E+00  0.93827000000E+00 0.  1.
     999902    2    1    2    0    0  0.19159163594E-01 -0.10452760567E-01 -0.76222999988E-02  0.10208121885E+01  0.10205503863E+01 0.  0.
     999903    2    3    3    0    0 -0.10113226678E+00 -0.78361679872E-01 -0.11818347020E-01  0.13002643624E+00  0.19972795018E-01 0.  0.
         14    1    1    2    0    0 -0.19159163594E-01  0.10452760567E-01  0.76222999988E-02  0.23117811539E-01  0.00000000000E+00 0.  1.
     999901    1    3    3    0    0  0.12029143037E+00  0.67908919305E-01  0.41960470216E-02  0.89078575222E+00  0.88000000000E+00 0. -1.
        -11    1    4    4    0    0 -0.22777792838E-01 -0.83343426977E-02  0.13710903516E-03  0.24260441766E-01  0.51100000000E-03 0. -1.
         11    1    4    4    0    0 -0.78354473937E-01 -0.70027337174E-01 -0.11955456056E-01  0.10576599448E+00  0.51100000000E-03 0.  1.
</event>
<event>
 8    1  0.1123285E+005  0.1043930E+01  0.7957747E-01            NaN
         13   -1    0    0    0    0  0.00000000000E+00  0.00000000000E+00  0.74505805969E-08  0.10566000000E+00  0.10566000000E+00 0. -1.
     999900   -1    0    0    0    0 -0.00000000000E+00 -0.00000000000E+00 -0.74505805969E-08  0.93827000000E+00  0.93827000000E+00 0. -1.
     999902    2    1    2    0    0 -0.22857382691E-02 -0.21752820789E-01  0.48037641368E-02  0.10215361178E+01  0.10212906315E+01 0.  0.
     999903    2    3    3    0    0 -0.84373042163E-01  0.82371470237E-03 -0.98792758700E-01  0.13137867947E+00  0.19515621863E-01 0.  0.
         14    1    1    2    0    0  0.22857382691E-02  0.21752820789E-01 -0.48037641368E-02  0.22393882236E-01  0.00000000000E+00 0. -1.
     999901    1    3    3    0    0  0.82087303894E-01 -0.22576535491E-01  0.10359652284E+00  0.89015743830E+00  0.88000000000E+00 0. -1.
        -11    1    4    4    0    0 -0.50819200764E-01  0.14426361348E-02 -0.44588739745E-01  0.67624619765E-01  0.51100000000E-03 0. -1.
         11    1    4    4    0    0 -0.33553841399E-01 -0.61892143240E-03 -0.54204018955E-01  0.63754059700E-01  0.51100000000E-03 0.  1.
</event>
<event>
 8    1  0.1123285E+005  0.1043930E+01  0.7957747E-01            NaN
         13   -1    0    0    0    0  0.00000000000E+00  0.00000000000E+00  0.74505805969E-08  0.10566000000E+00  0.10566000000E+00 0.  1.
     999900   -1    0    0    0    0 -0.00000000000E+00 -0.00000000000E+00 -0.74505805969E-08  0.93827000000E+00  0.93827000000E+00 0.  1.
     999902    2    1    2    0    0  0.22686134972E-01  0.36752932368E-02 -0.61550097593E-02  0.10201381391E+01  0.10198606621E+01 0.  0.
     999903    2    3    3    0    0 -0.27899212280E-01  0.73358494460E-01  0.10024853691E+00  0.12955611556E+00  0.23982976704E-01 0.  0.
         14    1    1    2    0    0 -0.22686134972E-01 -0.36752932368E-02  0.61550097593E-02  0.23791860908E-01  0.00000000000E+00 0. -1.
     999901    1    3    3    0    0  0.50585347252E-01 -0.69683201223E-01 -0.10640354667E+00  0.89058202353E+00  0.88000000000E+00 0.  1.
        -11    1    4    4    0    0 -0.31422378606E-02  0.35786875122E-01  0.33962432192E-01  0.49439680533E-01  0.51100000000E-03 0.  1.
         11    1    4    4    0    0 -0.24756974419E-01  0.37571619338E-01  0.66286104719E-01  0.80116435030E-01  0.51100000000E-03 0. -1.
</event>
<event>
 8    1  0.1123285E+005  0.1043930E+01  0.7957747E-01            NaN
         13   -1    0    0    0    0  0.00000000000E+00  0.00000000000E+00  0.74505805969E-08  0.10566000000E+00  0.10566000000E+00 0. -1.
     999900   -1    0    0    0    0 -0.00000000000E+00 -0.00000000000E+00 -0.74505805969E-08  0.93827000000E+00  0.93827000000E+00 0. -1.
     999902    2    1    2    0    0  0.11924994398E-02  0.91379538448E-02  0.21908312320E-01  0.10201624085E+01  0.10198855041E+01 0.  0.
     999903    2    3    3    0    0  0.10605699038E+00  0.15309469053E-01 -0.69260424895E-01  0.12923795174E+00  0.20566396441E-01 0.  0.
         14    1    1    2    0    0 -0.11924994398E-02 -0.91379538448E-02 -0.21908312320E-01  0.23767591466E-01  0.00000000000E+00 0.  1.
     999901    1    3    3    0    0 -0.10486449094E+00 -0.61715152079E-02  0.91168737215E-01  0.89092445679E+00  0.88000000000E+00 0.  1.
        -11    1    4    4    0    0  0.52524598419E-01  0.14633308110E-01 -0.26016642504E-01  0.60416007427E-01  0.51100000000E-03 0.  1.
         11    1    4    4    0    0  0.53532391964E-01  0.67616094298E-03 -0.43243782391E-01  0.68821944317E-01  0.51100000000E-03 0. -1.
</event>
<event>
 8    1  0.1123285E+005  0.1043930E+01  0.7957747E-01            NaN
         13   -1    0    0    0    0  0.00000000000E+00  0.00000000000E+00  0.74505805969E-08  0.10566000000E+00  0.10566000000E+00 0.  1.
     999900   -1    0    0    0    0 -0.00000000000E+00 -0.00000000000E+00 -0.74505805969E-08  0.93827000000E+00  0.93827000000E+00 0.  1.
     999902    2    1    2    0    0  0.60827792817E-02 -0.13028137306E-02 -0.20969406336E-01  0.10220573337E+01  0.10218232626E+01 0.  0.
     999903    2    3    3    0    0 -0.61464393744E-01  0.67333167891E-01 -0.95777118393E-01  0.13364880590E+00  0.19419570365E-01 0.  0.
         14    1    1    2    0    0 -0.60827792817E-02  0.13028137306E-02  0.20969406336E-01  0.21872666264E-01  0.00000000000E+00 0.  1.
     999901    1    3    3    0    0  0.67547173025E-01 -0.68635981622E-01  0.74807712058E-01  0.88840852784E+00  0.88000000000E+00 0.  1.
        -11    1    4    4    0    0 -0.99216330304E-02  0.22386580750E-01 -0.30387596676E-01  0.39029027050E-01  0.51100000000E-03 0.  1.
         11    1    4    4    0    0 -0.51542760713E-01  0.44946587141E-01 -0.65389521717E-01  0.94619778846E-01  0.51100000000E-03 0. -1.
</event>
<event>
 8    1  0.1123285E+005  0.1043930E+01  0.7957747E-01            NaN
         13   -1    0    0    0    0  0.00000000000E+00  0.00000000000E+00  0.74505805969E-08  0.10566000000E+00  0.10566000000E+00 0.  1.
     999900   -1    0    0    0    0 -0.00000000000E+00 -0.00000000000E+00 -0.74505805969E-08  0.93827000000E+00  0.93827000000E+00 0.  1.
     999902    2    1    2    0    0 -0.19820938077E-01  0.25167400440E-02 -0.11710180989E-01  0.10207711592E+01  0.10205084162E+01 0.  0.
     999903    2    3    3    0    0 -0.91862591698E-01 -0.91635272819E-01  0.16737217977E-01  0.13236592744E+00  0.20120767935E-01 0.  0.
         14    1    1    2    0    0  0.19820938077E-01 -0.25167400440E-02  0.11710180989E-01  0.23158840763E-01  0.00000000000E+00 0.  1.
     999901    1    3    3    0    0  0.72041653621E-01  0.94152012863E-01 -0.28447398966E-01  0.88840523180E+00  0.88000000000E+00 0. -1.
        -11    1    4    4    0    0 -0.51986488964E-01 -0.53501184261E-01  0.19540173683E-01  0.77117126896E-01  0.51100000000E-03 0.  1.
         11    1    4    4    0    0 -0.39876102735E-01 -0.38134088558E-01 -0.28029557065E-02  0.55248800540E-01  0.51100000000E-03 0. -1.
</event>
<event>
 8    1  0.1123285E+005  0.1043930E+01  0.7957747E-01            NaN
         13   -1    0    0    0    0  0.00000000000E+00  0.00000000000E+00  0.74505805969E-08  0.10566000000E+00  0.10566000000E+00 0. -1.
     999900   -1    0    0    0    0 -0.00000000000E+00 -0.00000000000E+00 -0.74505805969E-08  0.93827000000E+00  0.93827000000E+00 0.  1.
     999902    2    1    2    0    0  0.42253827877E-03  0.39989009003E-02  0.22614275293E-01  0.10209609949E+01  0.10207025904E+01 0.  0.
     999903    2    3    3    0    0  0.35802404276E-01  0.10126833826E+00 -0.71508946009E-01  0.12990978475E+00  0.15031112075E-01 0.  0.
         14    1    1    2    0    0 -0.42253827877E-03 -0.39989009003E-02 -0.22614275293E-01  0.22969005073E-01  0.00000000000E+00 0.  1.
     999901    1    3    3    0    0 -0.35379865997E-01 -0.97269437358E-01  0.94123221302E-01  0.89105121017E+00  0.88000000000E+00 0. -1.
        -11    1    4    4    0    0  0.84454251032E-02  0.33742250236E-01 -0.15870735504E-01  0.38236187344E-01  0.51100000000E-03 0.  1.
         11    1    4    4    0    0  0.27356979173E-01  0.67526088022E-01 -0.55638210506E-01  0.91673597411E-01  0.51100000000E-03 0. -1.
</event>
<event>
 8    1  0.1123285E+005  0.1043930E+01  0.7957747E-01            NaN
         13   -1    0    0    0    0  0.00000000000E+00  0.00000000000E+00  0.74505805969E-08  0.10566000000E+00  0.10566000000E+00 0. -1.
     999900   -1    0    0    0    0 -0.00000000000E+00 -0.00000000000E+00 -0.74505805969E-08  0.93827000000E+00  0.93827000000E+00 0.  1.
     999902    2    1    2    0    0  0.10210311849E-01 -0.48282741818E-02  0.21414261437E-01  0.10197198102E+01  0.10194323705E+01 0.  0.
     999903    2    3    3    0    0 -0.36347513251E-01  0.12061398140E+00  0.23023317946E-01  0.12960409878E+00  0.19956828993E-01 0.  0.
         14    1    1    2    0    0 -0.10210311849E-01  0.48282741818E-02 -0.21414261437E-01  0.24210189849E-01  0.00000000000E+00 0.  1.
     999901    1    3    3    0    0  0.46557825100E-01 -0.12544225558E+00 -0.16090565087E-02  0.89011571137E+00  0.88000000000E+00 0. -1.
        -11    1    4    4    0    0 -0.15801006844E-01  0.44700635999E-01 -0.82593928618E-03  0.47421113153E-01  0.51100000000E-03 0. -1.
         11    1    4    4    0    0 -0.20546506407E-01  0.75913345400E-01  0.23849257232E-01  0.82182985628E-01  0.51100000000E-03 0.  1.
</event>
<event>
 8    1  0.1123285E+005  0.1043930E+01  0.7957747E-01            NaN
         13   -1    0    0    0    0  0.00000000000E+00  0.00000000000E+00  0.74505805969E-08  0.10566000000E+00  0.10566000000E+00 0.  1.
     999900   -1    0    0    0    0 -0.00000000000E+00 -0.00000000000E+00 -0.74505805969E-08  0.93827000000E+00  0.93827000000E+00 0. -1.
     999902    2    1    2    0    0  0.64353219261E-02  0.11162199220E-01 -0.19033212327E-01  0.10209458483E+01  0.10206870989E+01 0.  0.
     999903    2    3    3    0    0 -0.23995690756E-01 -0.47201271594E-01 -0.11996522086E+00  0.13273438042E+00  0.20567165917E-01 0.  0.
         14    1    1    2    0    0 -0.64353219261E-02 -0.11162199220E-01  0.19033212327E-01  0.22984151740E-01  0.00000000000E+00 0.  1.
     999901    1    3    3    0    0  0.30431012682E-01  0.58363470815E-01  0.10093200853E+00  0.88821146784E+00  0.88000000000E+00 0.  1.
        -11    1    4    4    0    0  0.26075581097E-03 -0.21309112528E-01 -0.45860740895E-01  0.50572867694E-01  0.51100000000E-03 0. -1.
         11    1    4    4    0    0 -0.24256446567E-01 -0.25892159066E-01 -0.74104479966E-01  0.82161512724E-01  0.51100000000E-03 0.  1.
</event>
<event>
 8    1  0.1123285E+005  0.1043930E+01  0.7957747E-01            NaN
         13   -1    0    0    0    0  0.00000000000E+00  0.00000000000E+00  0.74505805969E-08  0.10566000000E+00  0.10566000000E+00 0. -1.
     999900   -1    0    0    0    0 -0.00000000000E+00 -0.00000000000E+00 -0.74505805969E-08  0.93827000000E+00  0.93827000000E+00 0.  1.
     999902    2    1    2    0    0 -0.15429760489E-01 -0.11394868200E-01 -0.14010426234E-01  0.10201768408E+01  0.10199002764E+01 0.  0.
     999903    2    3    3    0    0 -0.66935335325E-01  0.27737449801E-01 -0.10941532327E+00  0.13265993562E+00  0.19422675329E-01 0.  0.
         14    1    1    2    0    0  0.15429760489E-01  0.11394868200E-01  0.14010426234E-01  0.23753159228E-01  0.00000000000E+00 0. -1.
     999901    1    3    3    0    0  0.51505574836E-01 -0.39132318001E-01  0.95404897032E-01  0.88751690515E+00  0.88000000000E+00 0. -1.
        -11    1    4    4    0    0 -0.24080907884E-01  0.17521716793E-01 -0.55914457481E-01  0.63352887545E-01  0.51100000000E-03 0. -1.
         11    1    4    4    0    0 -0.42854427442E-01  0.10215733008E-01 -0.53500865785E-01  0.69307048076E-01  0.51100000000E-03 0.  1.
</event>
<event>
 8    1  0.1123285E+005  0.1043930E+01  0.7957747E-01            NaN
         13   -1    0    0    0    0  0.00000000000E+00  0.00000000000E+00  0.74505805969E-08  0.10566000000E+00  0.10566000000E+00 0. -1.
     999900   -1    0    0    0    0 -0.00000000000E+00 -0.00000000000E+00 -0.74505805969E-08  0.93827000000E+00  0.93827000000E+00 0. -1.
     999902    2    1    2    0    0 -0.13469507212E-01  0.18878178516E-01 -0.33236274349E-02  0.10205022441E+01  0.10202332921E+01 0.  0.
     999903    2    3    3    0    0  0.77035387790E-01 -0.37878996527E-01 -0.94884421081E-01  0.12932555459E+00  0.18782341604E-01 0.  0.
         14    1    1    2    0    0  0.13469507212E-01 -0.18878178516E-01  0.33236274349E-02  0.23427755931E-01  0.00000000000E+00 0. -1.
     999901    1    3    3    0    0 -0.90504895002E-01  0.56757175043E-01  0.91560793647E-01  0.89117668948E+00  0.88000000000E+00 0.  1.
        -11    1    4    4    0    0  0.60405613489E-01 -0.37477730233E-01 -0.73889886171E-01  0.10253484678E+00  0.51100000000E-03 0. -1.
         11    1    4    4    0    0  0.16629774301E-01 -0.40126629341E-03 -0.20994534911E-01  0.26790707812E-01  0.51100000000E-03 0.  1.
</event>
<event>
 8    1  0.1123285E+005  0.1043930E+01  0.7957747E-01            NaN
         13   -1    0    0    0    0  0.00000000000E+00  0.00000000000E+00  0.74505805969E-08  0.10566000000E+00  0.10566000000E+00 0.  1.
     999900   -1    0    0    0    0 -0.00000000000E+00 -0.00000000000E+00 -0.74505805969E-08  0.93827000000E+00  0.93827000000E+00 0.  1.
     999902    2    1    2    0    0 -0.21308963853E-02  0.12170989382E-01 -0.20267030543E-01  0.10201933990E+01  0.10199172246E+01 0.  0.
     999903    2    3    3    0    0  0.52655935522E-01 -0.11558906995E+00  0.88433468436E-02  0.12880591656E+00  0.19475079446E-01 0.  0.
         14    1    1    2    0    0  0.21308963853E-02 -0.12170989382E-01  0.20267030543E-01  0.23736601041E-01  0.00000000000E+00 0.  1.
     999901    1    3    3    0    0 -0.54786831907E-01  0.12776005933E+00 -0.29110377387E-01  0.89138748240E+00  0.88000000000E+00 0. -1.
        -11    1    4    4    0    0  0.54148826720E-01 -0.11379913291E+00  0.93284314059E-02  0.12637095726E+00  0.51100000000E-03 0.  1.
         11    1    4    4    0    0 -0.14928911981E-02 -0.17899370431E-02 -0.48508456230E-03  0.24349592975E-02  0.51100000000E-03 0. -1.
</event>
<event>
 8    1  0.1123285E+005  0.1043930E+01  0.7957747E-01            NaN
         13   -1    0    0    0    0  0.00000000000E+00  0.00000000000E+00  0.74505805969E-08  0.10566000000E+00  0.10566000000E+00 0.  1.
     999900   -1    0    0    0    0 -0.00000000000E+00 -0.00000000000E+00 -0.74505805969E-08  0.93827000000E+00  0.93827000000E+00 0. -1.
     999902    2    1    2    0    0  0.14871397218E-01  0.10122320013E-01 -0.12402450560E-01  0.10220795859E+01  0.10218459959E+01 0.  0.
     999903    2    3    3    0    0 -0.97705351233E-01  0.53960384826E-01 -0.67722999827E-01  0.13210449443E+00  0.20177560624E-01 0.  0.
         14    1    1    2    0    0 -0.14871397218E-01 -0.10122320013E-01  0.12402450560E-01  0.21850414127E-01  0.00000000000E+00 0.  1.
     999901    1    3    3    0    0  0.11257674845E+00 -0.43838064813E-01  0.55320549268E-01  0.88997509144E+00  0.88000000000E+00 0.  1.
        -11    1    4    4    0    0 -0.59414369090E-01  0.42725090728E-01 -0.38929285759E-01  0.82893009613E-01  0.51100000000E-03 0.  1.
         11    1    4    4    0    0 -0.38290982143E-01  0.11235294098E-01 -0.28793714069E-01  0.49211484816E-01  0.51100000000E-03 0. -1.
</event>
<event>
 8    1  0.1123285E+005  0.1043930E+01  0.7957747E-01            NaN
         13   -1    0    0    0    0  0.00000000000E+00  0.00000000000E+00  0.74505805969E-08  0.10566000000E+00  0.10566000000E+00 0. -1.
     999900   -1    0    0    0    0 -0.00000000000E+00 -0.00000000000E+00 -0.74505805969E-08  0.93827000000E+00  0.93827000000E+00 0.  1.
     999902    2    1    2    0    0 -0.14909213321E-01  0.97834263994E-02  0.15866121950E-01  0.10200609007E+01  0.10197815978E+01 0.  0.
     999903    2    3    3    0    0 -0.11404414635E+00  0.25412288236E-01  0.61116905636E-01  0.13320148138E+00  0.18854887379E-01 0.  0.
         14    1    1    2    0    0  0.14909213321E-01 -0.97834263994E-02 -0.15866121950E-01  0.23869099264E-01  0.00000000000E+00 0.  1.
     999901    1    3    3    0    0  0.99134933029E-01 -0.15628861837E-01 -0.45250783686E-01  0.88685941935E+00  0.88000000000E+00 0.  1.
        -11    1    4    4    0    0 -0.84266021413E-01  0.20070417645E-01  0.35729688656E-01  0.93704086366E-01  0.51100000000E-03 0. -1.
         11    1    4    4    0    0 -0.29778124938E-01  0.53418705910E-02  0.25387216980E-01  0.39497395018E-01  0.51100000000E-03 0.  1.
</event>
<event>
 8    1  0.1123285E+005  0.1043930E+01  0.7957747E-01            NaN
         13   -1    0    0    0    0  0.00000000000E+00  0.00000000000E+00  0.74505805969E-08  0.10566000000E+00  0.10566000000E+00 0. -1.
     999900   -1    0    0    0    0 -0.00000000000E+00 -0.00000000000E+00 -0.74505805969E-08  0.93827000000E+00  0.93827000000E+00 0.  1.
     999902    2    1    2    0    0 -0.50609095495E-02 -0.90873045921E-02  0.20972513059E-01  0.10205197840E+01  0.10202512393E+01 0.  0.
     999903    2    3    3    0    0  0.49481719159E-01 -0.67140706924E-01  0.10189747851E+00  0.13322392244E+00  0.20228750022E-01 0.  0.
         14    1    1    2    0    0  0.50609095495E-02  0.90873045921E-02 -0.20972513059E-01  0.23410216023E-01  0.00000000000E+00 0. -1.
     999901    1    3    3    0    0 -0.54542628708E-01  0.58053402332E-01 -0.80924965446E-01  0.88729586154E+00  0.88000000000E+00 0.  1.
        -11    1    4    4    0    0  0.37914083317E-01 -0.41549015804E-01  0.79025942179E-01  0.97000820030E-01  0.51100000000E-03 0. -1.
         11    1    4    4    0    0  0.11567635841E-01 -0.25591691120E-01  0.22871536326E-01  0.36223102411E-01  0.51100000000E-03 0.  1.
</event>
<event>
 8    1  0.1123285E+005  0.1043930E+01  0.7957747E-01            NaN
         13   -1    0    0    0    0  0.00000000000E+00  0.00000000000E+00  0.74505805969E-08  0.10566000000E+00  0.10566000000E+00 0. -1.
     999900   -1    0    0    0    0 -0.00000000000E+00 -0.00000000000E+00 -0.74505805969E-08  0.93827000000E+00  0.93827000000E+00 0.  1.
     999902    2    1    2    0    0 -0.11762128187E-01 -0.11521792100E-01  0.17336031947E-01  0.10200210612E+01  0.10197408141E+01 0.  0.
     999903    2    3    3    0    0 -0.92775540545E-01  0.18333412087E-01 -0.86637478870E-01  0.12970370361E+00  0.19328296987E-01 0.  0.
         14    1    1    2    0    0  0.11762128187E-01  0.11521792100E-01 -0.17336031947E-01  0.23908938837E-01  0.00000000000E+00 0.  1.
     999901    1    3    3    0    0  0.81013412358E-01 -0.29855204187E-01  0.10397351082E+00  0.89031735755E+00  0.88000000000E+00 0. -1.
        -11    1    4    4    0    0 -0.53055256275E-01  0.20155310046E-01 -0.51381144356E-01  0.76559649018E-01  0.51100000000E-03 0.  1.
         11    1    4    4    0    0 -0.39720284270E-01 -0.18218979590E-02 -0.35256334514E-01  0.53144054597E-01  0.51100000000E-03 0. -1.
</event>
<event>
 8    1  0.1123285E+005  0.1043930E+01  0.7957747E-01            NaN
         13   -1    0    0    0    0  0.00000000000E+00  0.00000000000E+00  0.74505805969E-08  0.10566000000E+00  0.10566000000E+00 0.  1.
     999900   -1    0    0    0    0 -0.00000000000E+00 -0.00000000000E+00 -0.74505805969E-08  0.93827000000E+00  0.93827000000E+00 0.  1.
     999902    2    1    2    0    0 -0.13548542904E-01 -0.15972298586E-01 -0.85506366601E-02  0.10213072079E+01  0.10210566204E+01 0.  0.
     999903    2    3    3    0    0 -0.89699826503E-01 -0.70633585494E-01  0.64571724509E-01  0.13331297703E+00  0.23826035434E-01 0.  0.
         14    1    1    2    0    0  0.13548542904E-01  0.15972298586E-01  0.85506366601E-02  0.22622792141E-01  0.00000000000E+00 0. -1.
     999901    1    3    3    0    0  0.76151283599E-01  0.54661286908E-01 -0.73122361169E-01  0.88799423083E+00  0.88000000000E+00 0.  1.
        -11    1    4    4    0    0 -0.44576534352E-01 -0.28117200447E-01  0.17732527128E-01  0.55608884318E-01  0.51100000000E-03 0. -1.
         11    1    4    4    0    0 -0.45123292151E-01 -0.42516385047E-01  0.46839197382E-01  0.77704092713E-01  0.51100000000E-03 0.  1.
</event>
<event>
 8    1  0.1123285E+005  0.1043930E+01  0.7957747E-01            NaN
         13   -1    0    0    0    0  0.00000000000E+00  0.00000000000E+00  0.74505805969E-08  0.10566000000E+00  0.10566000000E+00 0.  1.
     999900   -1    0    0    0    0 -0.00000000000E+00 -0.00000000000E+00 -0.74505805969E-08  0.93827000000E+00  0.93827000000E+00 0.  1.
     999902    2    1    2    0    0 -0.14946408125E-01 -0.11717081170E-01 -0.14189945956E-01  0.10202226241E+01  0.10199471374E+01 0.  0.
     999903    2    3    3    0    0  0.16994915536E-01 -0.21510455648E-01 -0.12776952175E+00  0.13229442969E+00  0.20621313824E-01 0.  0.
         14    1    1    2    0    0  0.14946408125E-01  0.11717081170E-01  0.14189945956E-01  0.23707375924E-01  0.00000000000E+00 0.  1.
     999901    1    3    3    0    0 -0.31941323661E-01  0.97933744777E-02  0.11357957579E+00  0.88792819438E+00  0.88000000000E+00 0. -1.
        -11    1    4    4    0    0  0.21832139091E-01 -0.18068762583E-01 -0.10512264392E+00  0.10887678295E+00  0.51100000000E-03 0.  1.
         11    1    4    4    0    0 -0.48372235559E-02 -0.34416930649E-02 -0.22646877826E-01  0.23417646746E-01  0.51100000000E-03 0. -1.
</event>
<event>
 8    1  0.1123285E+005  0.1043930E+01  0.7957747E-01            NaN
         13   -1    0    0    0    0  0.00000000000E+00  0.00000000000E+00  0.74505805969E-08  0.10566000000E+00  0.10566000000E+00 0.  1.
     999900   -1    0    0    0    0 -0.00000000000E+00 -0.00000000000E+00 -0.74505805969E-08  0.93827000000E+00  0.93827000000E+00 0. -1.
     999902    2    1    2    0    0 -0.15227826113E-01  0.14398608625E-01  0.10340889939E-01  0.10205603482E+01  0.10202927442E+01 0.  0.
     999903    2    3    3    0    0  0.71100024608E-01 -0.68319769558E-01 -0.79205551579E-01  0.12797231724E+00  0.19508720302E-01 0.  0.
         14    1    1    2    0    0  0.15227826113E-01 -0.14398608625E-01 -0.10340889939E-01  0.23369651755E-01  0.00000000000E+00 0. -1.
     999901    1    3    3    0    0 -0.86327850720E-01  0.82718378183E-01  0.89546441518E-01  0.89258803100E+00  0.88000000000E+00 0.  1.
        -11    1    4    4    0    0  0.54537164402E-01 -0.50930334574E-01 -0.48544756413E-01  0.89022782348E-01  0.51100000000E-03 0. -1.
         11    1    4    4    0    0  0.16562860206E-01 -0.17389434984E-01 -0.30660795167E-01  0.38949534895E-01  0.51100000000E-03 0.  1.
</event>
<event>
 8    1  0.1123285E+005  0.1043930E+01  0.7957747E-01            NaN
         13   -1    0    0    0    0  0.00000000000E+00  0.00000000000E+00  0.74505805969E-08  0.10566000000E+00  0.10566000000E+00 0. -1.
     999900   -1    0    0    0    0 -0.00000000000E+00 -0.00000000000E+00 -0.74505805969E-08  0.93827000000E+00  0.93827000000E+00 0.  1.
     999902    2    1    2    0    0  0.12194718946E-01  0.18611904400E-01 -0.10475226127E-01  0.10193364131E+01  0.10190396845E+01 0.  0.
     999903    2    3    3    0    0 -0.29112207079E-01  0.11336105013E+00 -0.57920128198E-01  0.13201759693E+00  0.19381856495E-01 0.  0.
         14    1    1    2    0    0 -0.12194718946E-01 -0.18611904400E-01  0.10475226127E-01  0.24593586928E-01  0.00000000000E+00 0. -1.
     999901    1    3    3    0    0  0.41306926025E-01 -0.94749145726E-01  0.47444902070E-01  0.88731881615E+00  0.88000000000E+00 0. -1.
        -11    1    4    4    0    0  0.48546332095E-03  0.18183765819E-01 -0.37702791310E-02  0.18583894633E-01  0.51100000000E-03 0. -1.
         11    1    4    4    0    0 -0.29597670400E-01  0.95177284307E-01 -0.54149849066E-01  0.11343370229E+00  0.51100000000E-03 0.  1.
</event>
<event>
 8    1  0.1123285E+005  0.1043930E+01  0.7957747E-01            NaN
         13   -1    0    0    0    0  0.00000000000E+00  0.00000000000E+00  0.74505805969E-08  0.10566000000E+00  0.10566000000E+00 0.  1.
     999900   -1    0    0    0    0 -0.00000000000E+00 -0.00000000000E+00 -0.74505805969E-08  0.93827000000E+00  0.93827000000E+00 0.  1.
     999902    2    1    2    0    0 -0.78508379307E-02 -0.22119733923E-01 -0.55169935449E-02  0.10198186852E+01  0.10195336165E+01 0.  0.
     999903    2    3    3    0    0  0.11216915182E+00  0.71308434626E-02 -0.61342112248E-01  0.12943852024E+00  0.18939594510E-01 0.  0.
         14    1    1    2    0    0  0.78508379307E-02  0.22119733923E-01  0.55169935449E-02  0.24111314829E-01  0.00000000000E+00 0. -1.
     999901    1    3    3    0    0 -0.12001998975E+00 -0.29250577385E-01  0.55825118703E-01  0.89038016493E+00  0.88000000000E+00 0. -1.
        -11    1    4    4    0    0  0.48159553413E-01  0.12457439741E-01 -0.26785772854E-01  0.56500169365E-01  0.51100000000E-03 0. -1.
         11    1    4    4    0    0  0.64009598404E-01 -0.53265962788E-02 -0.34556339393E-01  0.72938350879E-01  0.51100000000E-03 0.  1.
</event>
<event>
 8    1  0.1123285E+005  0.1043930E+01  0.7957747E-01            NaN
         13   -1    0    0    0    0  0.00000000000E+00  0.00000000000E+00  0.74505805969E-08  0.10566000000E+00  0.10566000000E+00 0.  1.
     999900   -1    0    0    0    0 -0.00000000000E+00 -0.00000000000E+00 -0.74505805969E-08  0.93827000000E+00  0.93827000000E+00 0.  1.
     999902    2    1    2    0    0 -0.20266046750E-01  0.13258519921E-01 -0.93529943462E-02  0.10179688848E+01  0.10176377896E+01 0.  0.
     999903    2    3    3    0    0  0.30832365899E-01 -0.96339663073E-01 -0.74679109984E-01  0.12730042182E+00  0.19911365074E-01 0.  0.
         14    1    1    2    0    0  0.20266046750E-01 -0.13258519921E-01  0.93529943462E-02  0.25961115242E-01  0.00000000000E+00 0. -1.
     999901    1    3    3    0    0 -0.51098412649E-01  0.10959818299E+00  0.65326115638E-01  0.89066846294E+00  0.88000000000E+00 0. -1.
        -11    1    4    4    0    0  0.56826450731E-02 -0.38278088480E-01 -0.19460991370E-01  0.43318538974E-01  0.51100000000E-03 0.  1.
         11    1    4    4    0    0  0.25149720825E-01 -0.58061574593E-01 -0.55218118614E-01  0.83981882845E-01  0.51100000000E-03 0. -1.
</event>
<event>
 8    1  0.1123285E+005  0.1043930E+01  0.7957747E-01            NaN
         13   -1    0    0    0    0  0.00000000000E+00  0.00000000000E+00  0.74505805969E-08  0.10566000000E+00  0.10566000000E+00 0. -1.
     999900   -1    0    0    0    0 -0.00000000000E+00 -0.00000000000E+00 -0.74505805969E-08  0.93827000000E+00  0.93827000000E+00 0.  1.
     999902    2    1    2    0    0 -0.16740347758E-01  0.12443626313E-01 -0.89937897861E-02  0.10212149976E+01  0.10209623402E+01 0.  0.
     999903    2    3    3    0    0  0.87378941373E-01  0.92296739947E-01 -0.25244469317E-01  0.13133779782E+00  0.21414161293E-01 0.  0.
         14    1    1    2    0    0  0.16740347758E-01 -0.12443626313E-01  0.89937897861E-02  0.22715002390E-01  0.00000000000E+00 0.  1.
     999901    1    3    3    0    0 -0.10411928913E+00 -0.79853113634E-01  0.16250679531E-01  0.88987719979E+00  0.88000000000E+00 0.  1.
        -11    1    4    4    0    0  0.32462910210E-01  0.33668695520E-01 -0.19893444396E-01  0.50827471394E-01  0.51100000000E-03 0. -1.
         11    1    4    4    0    0  0.54916031163E-01  0.58628044426E-01 -0.53510249206E-02  0.80510326423E-01  0.51100000000E-03 0.  1.
</event>
<event>
 8    1  0.1123285E+005  0.1043930E+01  0.7957747E-01            NaN
         13   -1    0    0    0    0  0.00000000000E+00  0.00000000000E+00  0.74505805969E-08  0.10566000000E+00  0.10566000000E+00 0. -1.
     999900   -1    0    0    0    0 -0.00000000000E+00 -0.00000000000E+00 -0.74505805969E-08  0.93827000000E+00  0.93827000000E+00 0. -1.
     999902    2    1    2    0    0  0.59586870678E-02  0.23062603381E-01 -0.14578937920E-02  0.10200654849E+01  0.10197862906E+01 0.  0.
     999903    2    3    3    0    0  0.10551452648E+00  0.54456553002E-01 -0.55234721078E-01  0.13226545540E+00  0.18559224560E-01 0.  0.
         14    1    1    2    0    0 -0.59586870678E-02 -0.23062603381E-01  0.14578937920E-02  0.23864515092E-01  0.00000000000E+00 0. -1.
     999901    1    3    3    0    0 -0.99555839417E-01 -0.31393949621E-01  0.53776827286E-01  0.88780002950E+00  0.88000000000E+00 0.  1.
        -11    1    4    4    0    0  0.95926717676E-01  0.43494999941E-01 -0.45466478704E-01  0.11472232560E+00  0.51100000000E-03 0.  1.
         11    1    4    4    0    0  0.95878088087E-02  0.10961553061E-01 -0.97682423748E-02  0.17543129805E-01  0.51100000000E-03 0. -1.
</event>
<event>
 8    1  0.1123285E+005  0.1043930E+01  0.7957747E-01            NaN
         13   -1    0    0    0    0  0.00000000000E+00  0.00000000000E+00  0.74505805969E-08  0.10566000000E+00  0.10566000000E+00 0.  1.
     999900   -1    0    0    0    0 -0.00000000000E+00 -0.00000000000E+00 -0.74505805969E-08  0.93827000000E+00  0.93827000000E+00 0.  1.
     999902    2    1    2    0    0  0.21643713292E-01 -0.93601964842E-02 -0.20771965688E-02  0.10202576881E+01  0.10199830253E+01 0.  0.
     999903    2    3    3    0    0  0.18320906786E-01 -0.12949840954E+00 -0.24372212348E-02  0.13208858211E+00  0.18329205598E-01 0.  0.
         14    1    1    2    0    0 -0.21643713292E-01  0.93601964842E-02  0.20771965688E-02  0.23672311862E-01  0.00000000000E+00 0.  1.
     999901    1    3    3    0    0  0.33228065062E-02  0.12013821306E+00  0.36002466598E-03  0.88816910603E+00  0.88000000000E+00 0.  1.
        -11    1    4    4    0    0  0.18753668096E-01 -0.67757961762E-01 -0.31048795014E-03  0.70307886990E-01  0.51100000000E-03 0. -1.
         11    1    4    4    0    0 -0.43276130971E-03 -0.61740447780E-01 -0.21267332847E-02  0.61780695123E-01  0.51100000000E-03 0.  1.
</event>
<event>
 8    1  0.1123285E+005  0.1043930E+01  0.7957747E-01            NaN
         13   -1    0    0    0    0  0.00000000000E+00  0.00000000000E+00  0.74505805969E-08  0.10566000000E+00  0.10566000000E+00 0. -1.
     999900   -1    0    0    0    0 -0.00000000000E+00 -0.00000000000E+00 -0.74505805969E-08  0.93827000000E+00  0.93827000000E+00 0.  1.
     999902    2    1    2    0    0 -0.13103191132E-01 -0.16933476335E-01  0.32773185158E-02  0.10222695047E+01  0.10220400008E+01 0.  0.
     999903    2    3    3    0    0 -0.88078864587E-01  0.96209094211E-01  0.17083274865E-02  0.13186226385E+00  0.19252585520E-01 0.  0.
         14    1    1    2    0    0  0.13103191132E-01  0.16933476335E-01 -0.32773185158E-02  0.21660495269E-01  0.00000000000E+00 0. -1.
     999901    1    3    3    0    0  0.74975673455E-01 -0.11314257055E+00  0.15689910293E-02  0.89040724088E+00  0.88000000000E+00 0.  1.
        -11    1    4    4    0    0 -0.25127621638E-01  0.32503277506E-01 -0.77148724336E-02  0.41804793929E-01  0.51100000000E-03 0. -1.
         11    1    4    4    0    0 -0.62951242949E-01  0.63705816705E-01  0.94231999201E-02  0.90057469921E-01  0.51100000000E-03 0.  1.
</event>
<event>
 8    1  0.1123285E+005  0.1043930E+01  0.7957747E-01            NaN
         13   -1    0    0    0    0  0.00000000000E+00  0.00000000000E+00  0.74505805969E-08  0.10566000000E+00  0.10566000000E+00 0.  1.
     999900   -1    0    0    0    0 -0.00000000000E+00 -0.00000000000E+00 -0.74505805969E-08  0.93827000000E+00  0.93827000000E+00 0. -1.
     999902    2    1    2    0    0  0.16742147090E-01  0.50598119996E-02 -0.15982971791E-01  0.10202370353E+01  0.10199618874E+01 0.  0.
     999903    2    3    3    0    0  0.36456203292E-01 -0.92345991514E-01  0.80025736063E-01  0.12945411760E+00  0.22302762696E-01 0.  0.
         14    1    1    2    0    0 -0.16742147090E-01 -0.50598119996E-02  0.15982971791E-01  0.23692964651E-01  0.00000000000E+00 0.  1.
     999901    1    3    3    0    0 -0.19714056202E-01  0.97405803514E-01 -0.96008707854E-01  0.89078291775E+00  0.88000000000E+00 0. -1.
        -11    1    4    4    0    0  0.13666144195E-01 -0.16024726272E-01  0.24742606377E-01  0.32496354266E-01  0.51100000000E-03 0.  1.
         11    1    4    4    0    0  0.22790059098E-01 -0.76321265242E-01  0.55283129686E-01  0.96957763334E-01  0.51100000000E-03 0. -1.
</event>
<event>
 8    1  0.1123285E+005  0.1043930E+01  0.7957747E-01            NaN
         13   -1    0    0    0    0  0.00000000000E+00  0.00000000000E+00  0.74505805969E-08  0.10566000000E+00  0.10566000000E+00 0.  1.
     999900   -1    0    0    0    0 -0.00000000000E+00 -0.00000000000E+00 -0.74505805969E-08  0.93827000000E+00  0.93827000000E+00 0. -1.
     999902    2    1    2    0    0 -0.36328300717E-02  0.20492501355E-01  0.12744918477E-01  0.10195256354E+01  0.10192335101E+01 0.  0.
     999903    2    3    3    0    0  0.82896853395E-01 -0.91128094225E-01 -0.25416233604E-01  0.12744782654E+00  0.20512086648E-01 0.  0.
         14    1    1    2    0    0  0.36328300717E-02 -0.20492501355E-01 -0.12744918477E-01  0.24404364632E-01  0.00000000000E+00 0. -1.
     999901    1    3    3    0    0 -0.86529683467E-01  0.11162059558E+00  0.38161152081E-01  0.89207780883E+00  0.88000000000E+00 0.  1.
        -11    1    4    4    0    0  0.64330147637E-01 -0.81907447784E-01 -0.21264628528E-01  0.10629978102E+00  0.51100000000E-03 0.  1.
         11    1    4    4    0    0  0.18566705759E-01 -0.92206464413E-02 -0.41516050762E-02  0.21148045518E-01  0.51100000000E-03 0. -1.
</event>
<event>
 8    1  0.1123285E+005  0.1043930E+01  0.7957747E-01            NaN
         13   -1    0    0    0    0  0.00000000000E+00  0.00000000000E+00  0.74505805969E-08  0.10566000000E+00  0.10566000000E+00 0. -1.
     999900   -1    0    0    0    0 -0.00000000000E+00 -0.00000000000E+00 -0.74505805969E-08  0.93827000000E+00  0.93827000000E+00 0.  1.
     999902    2    1    2    0    0  0.10917934418E-01  0.21843742862E-01  0.28078589121E-02  0.10193488189E+01  0.10190523932E+01 0.  0.
     999903    2    3    3    0    0  0.74591236662E-01  0.36961293052E-01  0.99906731376E-01  0.13159264695E+00  0.20131566916E-01 0.  0.
         14    1    1    2    0    0 -0.10917934418E-01 -0.21843742862E-01 -0.28078589121E-02  0.24581181133E-01  0.00000000000E+00 0. -1.
     999901    1    3    3    0    0 -0.63673302244E-01 -0.15117550190E-01 -0.97098872464E-01  0.88775617192E+00  0.88000000000E+00 0.  1.
        -11    1    4    4    0    0  0.42437829106E-01  0.13343348680E-01  0.41369984049E-01  0.60751551375E-01  0.51100000000E-03 0.  1.
         11    1    4    4    0    0  0.32153407556E-01  0.23617944372E-01  0.58536747327E-01  0.70841095576E-01  0.51100000000E-03 0. -1.
</event>
<event>
 8    1  0.1123285E+005  0.1043930E+01  0.7957747E-01            NaN
         13   -1    0    0    0    0  0.00000000000E+00  0.00000000000E+00  0.74505805969E-08  0.10566000000E+00  0.10566000000E+00 0.  1.
     999900   -1    0    0    0    0 -0.00000000000E+00 -0.00000000000E+00 -0.74505805969E-08  0.93827000000E+00  0.93827000000E+00 0. -1.
     999902    2    1    2    0    0  0.11237909170E-01 -0.19662869462E-01 -0.23382996094E-02  0.10211618933E+01  0.10209080398E+01 0.  0.
     999903    2    3    3    0    0  0.10409742558E+00  0.49062775671E-01 -0.60671380758E-01  0.13169640636E+00  0.20481626777E-01 0.  0.
         14    1    1    2    0    0 -0.11237909170E-01  0.19662869462E-01  0.23382996094E-02  0.22768106708E-01  0.00000000000E+00 0.  1.
     999901    1    3    3    0    0 -0.92859516413E-01 -0.68725645133E-01  0.58333081149E-01  0.88946548693E+00  0.88000000000E+00 0.  1.
        -11    1    4    4    0    0  0.81758940970E-01  0.37322263072E-01 -0.56371238731E-01  0.10609172176E+00  0.51100000000E-03 0. -1.
         11    1    4    4    0    0  0.22338484613E-01  0.11740512599E-01 -0.43001420268E-02  0.25604684597E-01  0.51100000000E-03 0.  1.
</event>
<event>
 8    1  0.1123285E+005  0.1043930E+01  0.7957747E-01            NaN
         13   -1    0    0    0    0  0.00000000000E+00  0.00000000000E+00  0.74505805969E-08  0.10566000000E+00  0.10566000000E+00 0. -1.
     999900   -1    0    0    0    0 -0.00000000000E+00 -0.00000000000E+00 -0.74505805969E-08  0.93827000000E+00  0.93827000000E+00 0. -1.
     999902    2    1    2    0    0 -0.81799709327E-02 -0.88748660674E-03 -0.22338926805E-01  0.10201239670E+01  0.10198461555E+01 0.  0.
     999903    2    3    3    0    0 -0.79039220696E-01  0.10243102840E+00 -0.90787263924E-02  0.13115176172E+00  0.19469138223E-01 0.  0.
         14    1    1    2    0    0  0.81799709327E-02  0.88748660674E-03  0.22338926805E-01  0.23806033012E-01  0.00000000000E+00 0.  1.
     999901    1    3    3    0    0  0.70859249764E-01 -0.10331851500E+00 -0.13260200413E-01  0.88897220527E+00  0.88000000000E+00 0. -1.
        -11    1    4    4    0    0 -0.19597694083E-01  0.16668167930E-01  0.37962252648E-02  0.26010956975E-01  0.51100000000E-03 0. -1.
         11    1    4    4    0    0 -0.59441526614E-01  0.85762860468E-01 -0.12874951657E-01  0.10514080475E+00  0.51100000000E-03 0.  1.
</event>
<event>
 8    1  0.1123285E+005  0.1043930E+01  0.7957747E-01            NaN
         13   -1    0    0    0    0  0.00000000000E+00  0.00000000000E+00  0.74505805969E-08  0.10566000000E+00  0.10566000000E+00 0. -1.
     999900   -1    0    0    0    0 -0.00000000000E+00 -0.00000000000E+00 -0.74505805969E-08  0.93827000000E+00  0.93827000000E+00 0. -1.
     999902    2    1    2    0    0 -0.15721573465E-01 -0.89503465886E-02 -0.14933273268E-01  0.10204719688E+01  0.10202023132E+01 0.  0.
     999903    2    3    3    0    0 -0.10266353313E+00  0.14781630082E-01 -0.81473246918E-01  0.13337012621E+00  0.19783907089E-01 0.  0.
         14    1    1    2    0    0  0.15721573465E-01  0.89503465886E-02  0.14933273268E-01  0.23458031178E-01  0.00000000000E+00 0. -1.
     999901    1    3    3    0    0  0.86941959666E-01 -0.23731976670E-01  0.66539973651E-01  0.88710184261E+00  0.88000000000E+00 0.  1.
        -11    1    4    4    0    0 -0.32179222686E-01 -0.22855382423E-02 -0.32920348684E-01  0.46094864532E-01  0.51100000000E-03 0.  1.
         11    1    4    4    0    0 -0.70484310445E-01  0.17067168324E-01 -0.48552898235E-01  0.87275261681E-01  0.51100000000E-03 0. -1.
</event>
<event>
 8    1  0.1123285E+005  0.1043930E+01  0.7957747E-01            NaN
         13   -1    0    0    0    0  0.00000000000E+00  0.00000000000E+00  0.74505805969E-08  0.10566000000E+00  0.10566000000E+00 0.  1.
     999900   -1    0    0    0    0 -0.00000000000E+00 -0.00000000000E+00 -0.74505805969E-08  0.93827000000E+00  0.93827000000E+00 0.  1.
     999902    2    1    2    0    0  0.21009131500E-01 -0.11371214520E-01 -0.33080196413E-02  0.10198129703E+01  0.10195277649E+01 0.  0.
     999903    2    3    3    0    0  0.24889563868E-01 -0.12325067030E+00  0.34708071688E-01  0.13190684152E+00  0.19609856724E-01 0.  0.
         14    1    1    2    0    0 -0.21009131500E-01  0.11371214520E-01  0.33080196413E-02  0.24117029667E-01  0.00000000000E+00 0. -1.
     999901    1    3    3    0    0 -0.38804323681E-02  0.11187945578E+00 -0.38016091329E-01  0.88790612881E+00  0.88000000000E+00 0.  1.
        -11    1    4    4    0    0  0.23134141087E-01 -0.86648340300E-01  0.17315591926E-01  0.91341196649E-01  0.51100000000E-03 0. -1.
         11    1    4    4    0    0  0.17554227804E-02 -0.36602330000E-01  0.17392479761E-01  0.40565644872E-01  0.51100000000E-03 0.  1.
</event>
<event>
 8    1  0.1123285E+005  0.1043930E+01  0.7957747E-01            NaN
         13   -1    0    0    0    0  0.00000000000E+00  0.00000000000E+00  0.74505805969E-08  0.10566000000E+00  0.10566000000E+00 0. -1.
     999900   -1    0    0    0    0 -0.00000000000E+00 -0.00000000000E+00 -0.74505805969E-08  0.93827000000E+00  0.93827000000E+00 0. -1.
     999902    2    1    2    0    0  0.35238832065E-03 -0.21215949129E-01  0.97079341997E-02  0.10205958049E+01  0.10203290216E+01 0.  0.
     999903    2    3    3    0    0  0.39156954475E-01  0.11020175807E+00  0.50863322994E-01  0.12904088558E+00  0.19666671314E-01 0.  0.
         14    1    1    2    0    0 -0.35238832065E-03  0.21215949129E-01 -0.97079341997E-02  0.23334195109E-01  0.00000000000E+00 0.  1.
     999901    1    3    3    0    0 -0.38804566154E-01 -0.13141770720E+00 -0.41155388795E-01  0.89155491931E+00  0.88000000000E+00 0. -1.
        -11    1    4    4    0    0  0.12075041839E-01  0.59789665615E-01  0.21171447376E-01  0.64568584116E-01  0.51100000000E-03 0.  1.
         11    1    4    4    0    0  0.27081912635E-01  0.50412092453E-01  0.29691875618E-01  0.64472301465E-01  0.51100000000E-03 0. -1.
</event>
<event>
 8    1  0.1123285E+005  0.1043930E+01  0.7957747E-01            NaN
         13   -1    0    0    0    0  0.00000000000E+00  0.00000000000E+00  0.74505805969E-08  0.10566000000E+00  0.10566000000E+00 0.  1.
     999900   -1    0    0    0    0 -0.00000000000E+00 -0.00000000000E+00 -0.74505805969E-08  0.93827000000E+00  0.93827000000E+00 0. -1.
     999902    2    1    2    0    0  0.26593440440E-01  0.31923847581E-03  0.72577991114E-02  0.10163621086E+01  0.10159881629E+01 0.  0.
     999903    2    3    3    0    0  0.81061045828E-01 -0.39044402403E-01  0.91325992351E-01  0.12980490382E+00  0.20335133791E-01 0.  0.
         14    1    1    2    0    0 -0.26593440440E-01 -0.31923847581E-03 -0.72577991114E-02  0.27567891388E-01  0.00000000000E+00 0.  1.
     999901    1    3    3    0    0 -0.54467605388E-01  0.39363640879E-01 -0.84068193239E-01  0.88655720480E+00  0.88000000000E+00 0. -1.
        -11    1    4    4    0    0  0.34512729952E-01 -0.15061896725E-01  0.52524781571E-01  0.64630511849E-01  0.51100000000E-03 0. -1.
         11    1    4    4    0    0  0.46548315876E-01 -0.23982505678E-01  0.38801210780E-01  0.65174391968E-01  0.51100000000E-03 0.  1.
</event>
<event>
 8    1  0.1123285E+005  0.1043930E+01  0.7957747E-01            NaN
         13   -1    0    0    0    0  0.00000000000E+00  0.00000000000E+00  0.74505805969E-08  0.10566000000E+00  0.10566000000E+00 0.  1.
     999900   -1    0    0    0    0 -0.00000000000E+00 -0.00000000000E+00 -0.74505805969E-08  0.93827000000E+00  0.93827000000E+00 0. -1.
     999902    2    1    2    0    0  0.12684506127E-01 -0.15916116109E-01  0.13508746383E-01  0.10195024402E+01  0.10192097527E+01 0.  0.
     999903    2    3    3    0    0  0.34703934790E-01  0.10735414867E+00  0.59927866858E-01  0.12942651753E+00  0.20750852670E-01 0.  0.
         14    1    1    2    0    0 -0.12684506127E-01  0.15916116109E-01 -0.13508746383E-01  0.24427559774E-01  0.00000000000E+00 0.  1.
     999901    1    3    3    0    0 -0.22019428663E-01 -0.12327026478E+00 -0.46419120475E-01  0.89007592270E+00  0.88000000000E+00 0. -1.
        -11    1    4    4    0    0  0.24233235323E-01  0.87043523200E-01  0.55810508963E-01  0.10620215938E+00  0.51100000000E-03 0. -1.
         11    1    4    4    0    0  0.10470699467E-01  0.20310625472E-01  0.41173578952E-02  0.23224358149E-01  0.51100000000E-03 0.  1.
</event>
<event>
 8    1  0.1123285E+005  0.1043930E+01  0.7957747E-01            NaN
         13   -1    0    0    0    0  0.00000000000E+00  0.00000000000E+00  0.74505805969E-08  0.10566000000E+00  0.10566000000E+00 0.  1.
     999900   -1    0    0    0    0 -0.00000000000E+00 -0.00000000000E+00 -0.74505805969E-08  0.93827000000E+00  0.93827000000E+00 0. -1.
     999902    2    1    2    0    0 -0.16725151264E-01  0.70373583982E-02 -0.14823826071E-01  0.10204992314E+01  0.10202302095E+01 0.  0.
     999903    2    3    3    0    0 -0.77464670238E-01 -0.93453833346E-01  0.44366716961E-01  0.13072887385E+00  0.19678383621E-01 0.  0.
         14    1    1    2    0    0  0.16725151264E-01 -0.70373583982E-02  0.14823826071E-01  0.23430768605E-01  0.00000000000E+00 0.  1.
     999901    1    3    3    0    0  0.60739518973E-01  0.10049119174E+00 -0.59190543032E-01  0.88977035755E+00  0.88000000000E+00 0. -1.
        -11    1    4    4    0    0 -0.16237204242E-01 -0.23904202766E-01  0.23841130816E-02  0.29000048752E-01  0.51100000000E-03 0. -1.
         11    1    4    4    0    0 -0.61227465996E-01 -0.69549630580E-01  0.41982603879E-01  0.10172882510E+00  0.51100000000E-03 0.  1.
</event>
<event>
 8    1  0.1123285E+005  0.1043930E+01  0.7957747E-01            NaN
         13   -1    0    0    0    0  0.00000000000E+00  0.00000000000E+00  0.74505805969E-08  0.10566000000E+00  0.10566000000E+00 0.  1.
     999900   -1    0    0    0    0 -0.00000000000E+00 -0.00000000000E+00 -0.74505805969E-08  0.93827000000E+00  0.93827000000E+00 0. -1.
     999902    2    1    2    0    0  0.32736435966E-02 -0.17942680653E-01  0.15024696741E-01  0.10202995526E+01  0.10200258717E+01 0.  0.
     999903    2    3    3    0    0  0.17647862505E-02 -0.12970546218E+00 -0.19170753474E-01  0.13257069491E+00  0.19515377806E-01 0.  0.
         14    1    1    2    0    0 -0.32736435966E-02  0.17942680653E-01 -0.15024696741E-01  0.23630447384E-01  0.00000000000E+00 0. -1.
     999901    1    3    3    0    0  0.15088573462E-02  0.11176278153E+00  0.34195450214E-01  0.88772885770E+00  0.88000000000E+00 0.  1.
        -11    1    4    4    0    0  0.47627359438E-02 -0.62775172550E-01 -0.18308667837E-01  0.65565801919E-01  0.51100000000E-03 0. -1.
         11    1    4    4    0    0 -0.29979496933E-02 -0.66930289631E-01 -0.86208563620E-03  0.67004892993E-01  0.51100000000E-03 0.  1.
</event>
<event>
 8    1  0.1123285E+005  0.1043930E+01  0.7957747E-01            NaN
         13   -1    0    0    0    0  0.00000000000E+00  0.00000000000E+00  0.74505805969E-08  0.10566000000E+00  0.10566000000E+00 0.  1.
     999900   -1    0    0    0    0 -0.00000000000E+00 -0.00000000000E+00 -0.74505805969E-08  0.93827000000E+00  0.93827000000E+00 0.  1.
     999902    2    1    2    0    0 -0.94246091823E-02  0.20078967268E-01 -0.93293254377E-02  0.10198670721E+01  0.10195831601E+01 0.  0.
     999903    2    3    3    0    0 -0.12958307889E+00 -0.33858511342E-02  0.35400924449E-02  0.13129840429E+00  0.20579125118E-01 0.  0.
         14    1    1    2    0    0  0.94246091823E-02 -0.20078967268E-01  0.93293254377E-02  0.24062927875E-01  0.00000000000E+00 0.  1.
     999901    1    3    3    0    0  0.12015846971E+00  0.23464818402E-01 -0.12869417883E-01  0.88856866784E+00  0.88000000000E+00 0.  1.
        -11    1    4    4    0    0 -0.59363255229E-01 -0.74727106180E-02 -0.67334365678E-02  0.60211608219E-01  0.51100000000E-03 0.  1.
         11    1    4    4    0    0 -0.70219823665E-01  0.40868594838E-02  0.10273529013E-01  0.71086796069E-01  0.51100000000E-03 0. -1.
</event>
<event>
 8    1  0.1123285E+005  0.1043930E+01  0.7957747E-01            NaN
         13   -1    0    0    0    0  0.00000000000E+00  0.00000000000E+00  0.74505805969E-08  0.10566000000E+00  0.10566000000E+00 0. -1.
     999900   -1    0    0    0    0 -0.00000000000E+00 -0.00000000000E+00 -0.74505805969E-08  0.93827000000E+00  0.93827000000E+00 0.  1.
     999902    2    1    2    0    0 -0.38840978415E-02  0.21774445586E-01 -0.80807360745E-02  0.10203819429E+01  0.10201101894E+01 0.  0.
     999903    2    3    3    0    0 -0.44460095626E-01  0.92733621517E-01  0.80555040161E-01  0.13216017046E+00  0.20024272725E-01 0.  0.
         14    1    1    2    0    0  0.38840978415E-02 -0.21774445586E-01  0.80807360745E-02  0.23548057078E-01  0.00000000000E+00 0. -1.
     999901    1    3    3    0    0  0.40575997784E-01 -0.70959175931E-01 -0.88635776236E-01  0.88822177246E+00  0.88000000000E+00 0.  1.
        -11    1    4    4    0    0 -0.31199030184E-01  0.79286380267E-01  0.59813866880E-01  0.10410412755E+00  0.51100000000E-03 0. -1.
         11    1    4    4    0    0 -0.13261065441E-01  0.13447241250E-01  0.20741173281E-01  0.28056042914E-01  0.51100000000E-03 0.  1.
</event>
<event>
 8    1  0.1123285E+005  0.1043930E+01  0.7957747E-01            NaN
         13   -1    0    0    0    0  0.00000000000E+00  0.00000000000E+00  0.74505805969E-08  0.10566000000E+00  0.10566000000E+00 0. -1.
     999900   -1    0    0    0    0 -0.00000000000E+00 -0.00000000000E+00 -0.74505805969E-08  0.93827000000E+00  0.93827000000E+00 0.  1.
     999902    2    1    2    0    0 -0.22413997732E-01  0.82940127417E-02  0.23088705995E-02  0.10199194018E+01  0.10196367379E+01 0.  0.
     999903    2    3    3    0    0 -0.78031457565E-01 -0.47395490227E-01 -0.92317782465E-01  0.13135380151E+00  0.19899933372E-01 0.  0.
         14    1    1    2    0    0  0.22413997732E-01 -0.82940127417E-02 -0.23088705995E-02  0.24010598183E-01  0.00000000000E+00 0.  1.
     999901    1    3    3    0    0  0.55617459833E-01  0.55689502968E-01  0.94626653065E-01  0.88856560031E+00  0.88000000000E+00 0. -1.
        -11    1    4    4    0    0 -0.17656664853E-01 -0.92919770831E-02 -0.32841691473E-01  0.38430931184E-01  0.51100000000E-03 0.  1.
         11    1    4    4    0    0 -0.60374792711E-01 -0.38103513144E-01 -0.59476090992E-01  0.92922870325E-01  0.51100000000E-03 0. -1.
</event>
<event>
 8    1  0.1123285E+005  0.1043930E+01  0.7957747E-01            NaN
         13   -1    0    0    0    0  0.00000000000E+00  0.00000000000E+00  0.74505805969E-08  0.10566000000E+00  0.10566000000E+00 0.  1.
     999900   -1    0    0    0    0 -0.00000000000E+00 -0.00000000000E+00 -0.74505805969E-08  0.93827000000E+00  0.93827000000E+00 0. -1.
     999902    2    1    2    0    0 -0.10114408546E-01  0.19728498875E-01 -0.10520739992E-01  0.10193902181E+01  0.10190948021E+01 0.  0.
     999903    2    3    3    0    0  0.11618048862E+00  0.51462230120E-01 -0.17679190932E-01  0.12977868813E+00  0.19587930869E-01 0.  0.
         14    1    1    2    0    0  0.10114408546E-01 -0.19728498875E-01  0.10520739992E-01  0.24539781948E-01  0.00000000000E+00 0.  1.
     999901    1    3    3    0    0 -0.12629489717E+00 -0.31733731245E-01  0.71584509400E-02  0.88961152992E+00  0.88000000000E+00 0.  1.
        -11    1    4    4    0    0  0.18834508477E-01  0.90873939354E-03 -0.19095860465E-02  0.18959750967E-01  0.51100000000E-03 0. -1.
         11    1    4    4    0    0  0.97345980143E-01  0.50553490727E-01 -0.15769604886E-01  0.11081893716E+00  0.51100000000E-03 0.  1.
</event>
<event>
 8    1  0.1123285E+005  0.1043930E+01  0.7957747E-01            NaN
         13   -1    0    0    0    0  0.00000000000E+00  0.00000000000E+00  0.74505805969E-08  0.10566000000E+00  0.10566000000E+00 0. -1.
     999900   -1    0    0    0    0 -0.00000000000E+00 -0.00000000000E+00 -0.74505805969E-08  0.93827000000E+00  0.93827000000E+00 0.  1.
     999902    2    1    2    0    0 -0.82308116297E-02 -0.22014358614E-01  0.70203277444E-02  0.10194011752E+01  0.10191060262E+01 0.  0.
     999903    2    3    3    0    0  0.53236964087E-01  0.91444068483E-02 -0.11471692900E+00  0.12835172886E+00  0.19909745873E-01 0.  0.
         14    1    1    2    0    0  0.82308116297E-02  0.22014358614E-01 -0.70203277444E-02  0.24528824817E-01  0.00000000000E+00 0.  1.
     999901    1    3    3    0    0 -0.61467775717E-01 -0.31158765463E-01  0.12173725674E+00  0.89104944632E+00  0.88000000000E+00 0. -1.
        -11    1    4    4    0    0  0.36566580532E-01 -0.22824941986E-02 -0.83154057360E-01  0.90869042957E-01  0.51100000000E-03 0.  1.
         11    1    4    4    0    0  0.16670383555E-01  0.11426901047E-01 -0.31562871636E-01  0.37482685901E-01  0.51100000000E-03 0. -1.
</event>
<event>
 8    1  0.1123285E+005  0.1043930E+01  0.7957747E-01            NaN
         13   -1    0    0    0    0  0.00000000000E+00  0.00000000000E+00  0.74505805969E-08  0.10566000000E+00  0.10566000000E+00 0.  1.
     999900   -1    0    0    0    0 -0.00000000000E+00 -0.00000000000E+00 -0.74505805969E-08  0.93827000000E+00  0.93827000000E+00 0.  1.
     999902    2    1    2    0    0 -0.13214639417E-01  0.80851162486E-02  0.18978239593E-01  0.10194316454E+01  0.10191372382E+01 0.  0.
     999903    2    3    3    0    0 -0.28904928967E-01  0.54809655436E-01  0.11568797059E+00  0.13276251895E+00  0.20064562028E-01 0.  0.
         14    1    1    2    0    0  0.13214639417E-01 -0.80851162486E-02 -0.18978239593E-01  0.24498354593E-01  0.00000000000E+00 0. -1.
     999901    1    3    3    0    0  0.15690289550E-01 -0.46724539187E-01 -0.96709731001E-01  0.88666912646E+00  0.88000000000E+00 0. -1.
        -11    1    4    4    0    0 -0.22825410687E-01  0.38086344875E-01  0.62455014074E-01  0.76631970762E-01  0.51100000000E-03 0.  1.
         11    1    4    4    0    0 -0.60795182804E-02  0.16723310561E-01  0.53232956520E-01  0.56130548184E-01  0.51100000000E-03 0. -1.
</event>
<event>
 8    1  0.1123285E+005  0.1043930E+01  0.7957747E-01            NaN
         13   -1    0    0    0    0  0.00000000000E+00  0.00000000000E+00  0.74505805969E-08  0.10566000000E+00  0.10566000000E+00 0. -1.
     999900   -1    0    0    0    0 -0.00000000000E+00 -0.00000000000E+00 -0.74505805969E-08  0.93827000000E+00  0.93827000000E+00 0.  1.
     999902    2    1    2    0    0  0.60468278595E-02  0.75497167596E-02 -0.20206407324E-01  0.10215277401E+01  0.10212820681E+01 0.  0.
     999903    2    3    3    0    0 -0.43135775500E-02  0.97345035818E-01  0.84762083957E-01  0.13069166010E+00  0.20025888070E-01 0.  0.
         14    1    1    2    0    0 -0.60468278595E-02 -0.75497167596E-02  0.20206407324E-01  0.22402259869E-01  0.00000000000E+00 0. -1.
     999901    1    3    3    0    0  0.10360405410E-01 -0.89795319058E-01 -0.10496849128E+00  0.89083608003E+00  0.88000000000E+00 0.  1.
        -11    1    4    4    0    0  0.74809343740E-02  0.32462319595E-01  0.24480185931E-01  0.41343768537E-01  0.51100000000E-03 0. -1.
         11    1    4    4    0    0 -0.11794511924E-01  0.64882716223E-01  0.60281898026E-01  0.89347891562E-01  0.51100000000E-03 0.  1.
</event>
<event>
 8    1  0.1123285E+005  0.1043930E+01  0.7957747E-01            NaN
         13   -1    0    0    0    0  0.00000000000E+00  0.00000000000E+00  0.74505805969E-08  0.10566000000E+00  0.10566000000E+00 0.  1.
     999900   -1    0    0    0    0 -0.00000000000E+00 -0.00000000000E+00 -0.74505805969E-08  0.93827000000E+00  0.93827000000E+00 0.  1.
     999902    2    1    2    0    0  0.10306677921E-01 -0.21821335592E-01  0.46174984490E-02  0.10193592941E+01  0.10190631241E+01 0.  0.
     999903    2    3    3    0    0 -0.11433321469E+00  0.25218588999E-01  0.48625869111E-01  0.12824505112E+00  0.19345717292E-01 0.  0.
         14    1    1    2    0    0 -0.10306677921E-01  0.21821335592E-01 -0.46174984490E-02  0.24570705906E-01  0.00000000000E+00 0.  1.
     999901    1    3    3    0    0  0.12463989261E+00 -0.47039924591E-01 -0.44008370662E-01  0.89111424297E+00  0.88000000000E+00 0. -1.
        -11    1    4    4    0    0 -0.96785191957E-01  0.14307111992E-01  0.42634746155E-01  0.10672417503E+00  0.51100000000E-03 0.  1.
         11    1    4    4    0    0 -0.17548022737E-01  0.10911477007E-01  0.59911229554E-02  0.21520876091E-01  0.51100000000E-03 0. -1.
</event>
<event>
 8    1  0.1123285E+005  0.1043930E+01  0.7957747E-01            NaN
         13   -1    0    0    0    0  0.00000000000E+00  0.00000000000E+00  0.74505805969E-08  0.10566000000E+00  0.10566000000E+00 0.  1.
     999900   -1    0    0    0    0 -0.00000000000E+00 -0.00000000000E+00 -0.74505805969E-08  0.93827000000E+00  0.93827000000E+00 0. -1.
     999902    2    1    2    0    0 -0.36890229768E-02 -0.21681164972E-01 -0.79010738473E-02  0.10205610297E+01  0.10202934414E+01 0.  0.
     999903    2    3    3    0    0  0.79074761809E-01  0.54981587416E-01  0.82336022233E-01  0.12878204632E+00  0.23017427926E-01 0.  0.
         14    1    1    2    0    0  0.36890229768E-02  0.21681164972E-01  0.79010738473E-02  0.23368970303E-01  0.00000000000E+00 0.  1.
     999901    1    3    3    0    0 -0.82763784786E-01 -0.76662752389E-01 -0.90237096080E-01  0.89177898337E+00  0.88000000000E+00 0. -1.
        -11    1    4    4    0    0  0.70151046184E-02  0.79904399868E-03  0.62745470853E-03  0.71066859034E-02  0.51100000000E-03 0. -1.
         11    1    4    4    0    0  0.72059657191E-01  0.54182543418E-01  0.81708567525E-01  0.12167536042E+00  0.51100000000E-03 0.  1.
</event>
<event>
 8    1  0.1123285E+005  0.1043930E+01  0.7957747E-01            NaN
         13   -1    0    0    0    0  0.00000000000E+00  0.00000000000E+00  0.74505805969E-08  0.10566000000E+00  0.10566000000E+00 0.  1.
     999900   -1    0    0    0    0 -0.00000000000E+00 -0.00000000000E+00 -0.74505805969E-08  0.93827000000E+00  0.93827000000E+00 0.  1.
     999902    2    1    2    0    0  0.75889629964E-02  0.20898525095E-01 -0.86878100644E-02  0.10200591233E+01  0.10197797783E+01 0.  0.
     999903    2    3    3    0    0 -0.29361348026E-01  0.11658430437E+00 -0.53295657208E-01  0.13297910782E+00  0.19723773878E-01 0.  0.
         14    1    1    2    0    0 -0.75889629964E-02 -0.20898525095E-01  0.86878100644E-02  0.23870876696E-01  0.00000000000E+00 0. -1.
     999901    1    3    3    0    0  0.36950311022E-01 -0.95685779278E-01  0.44607847144E-01  0.88708001548E+00  0.88000000000E+00 0. -1.
        -11    1    4    4    0    0 -0.20191867570E-01  0.71723596828E-01 -0.22651729377E-01  0.77880342980E-01  0.51100000000E-03 0. -1.
         11    1    4    4    0    0 -0.91694804553E-02  0.44860707545E-01 -0.30643927831E-01  0.55098764843E-01  0.51100000000E-03 0.  1.
</event>
<event>
 8    1  0.1123285E+005  0.1043930E+01  0.7957747E-01            NaN
         13   -1    0    0    0    0  0.00000000000E+00  0.00000000000E+00  0.74505805969E-08  0.10566000000E+00  0.10566000000E+00 0.  1.
     999900   -1    0    0    0    0 -0.00000000000E+00 -0.00000000000E+00 -0.74505805969E-08  0.93827000000E+00  0.93827000000E+00 0.  1.
     999902    2    1    2    0    0  0.13908879524E-01 -0.17021438302E-01  0.65508113037E-02  0.10209931428E+01  0.10207354692E+01 0.  0.
     999903    2    3    3    0    0  0.23481242572E-01  0.12556237535E+00  0.92713617551E-02  0.12946121655E+00  0.18893638744E-01 0.  0.
         14    1    1    2    0    0 -0.13908879524E-01  0.17021438302E-01 -0.65508113037E-02  0.22936857244E-01  0.00000000000E+00 0. -1.
     999901    1    3    3    0    0 -0.95723630477E-02 -0.14258381365E+00 -0.27205504514E-02  0.89153192621E+00  0.88000000000E+00 0. -1.
        -11    1    4    4    0    0  0.19688843582E-01  0.63140451540E-01  0.10154138469E-01  0.66915878768E-01  0.51100000000E-03 0. -1.
         11    1    4    4    0    0  0.37923989903E-02  0.62421923812E-01 -0.88277671361E-03  0.62545337782E-01  0.51100000000E-03 0.  1.
</event>
<event>
 8    1  0.1123285E+005  0.1043930E+01  0.7957747E-01            NaN
         13   -1    0    0    0    0  0.00000000000E+00  0.00000000000E+00  0.74505805969E-08  0.10566000000E+00  0.10566000000E+00 0. -1.
     999900   -1    0    0    0    0 -0.00000000000E+00 -0.00000000000E+00 -0.74505805969E-08  0.93827000000E+00  0.93827000000E+00 0. -1.
     999902    2    1    2    0    0  0.12809673512E-01  0.14023409223E-01  0.10803643036E-01  0.10220790860E+01  0.10218454851E+01 0.  0.
     999903    2    3    3    0    0 -0.11031698652E+00  0.30735546292E-01  0.62342002488E-01  0.13185682583E+00  0.19626154024E-01 0.  0.
         14    1    1    2    0    0 -0.12809673512E-01 -0.14023409223E-01 -0.10803643036E-01  0.21850914044E-01  0.00000000000E+00 0.  1.
     999901    1    3    3    0    0  0.12312666003E+00 -0.16712137069E-01 -0.51538359452E-01  0.89022226013E+00  0.88000000000E+00 0. -1.
        -11    1    4    4    0    0 -0.50542549530E-01  0.23761600437E-01  0.33405429171E-01  0.65079542004E-01  0.51100000000E-03 0. -1.
         11    1    4    4    0    0 -0.59774436990E-01  0.69739458558E-02  0.28936573317E-01  0.66777283822E-01  0.51100000000E-03 0.  1.
</event>
<event>
 8    1  0.1123285E+005  0.1043930E+01  0.7957747E-01            NaN
         13   -1    0    0    0    0  0.00000000000E+00  0.00000000000E+00  0.74505805969E-08  0.10566000000E+00  0.10566000000E+00 0.  1.
     999900   -1    0    0    0    0 -0.00000000000E+00 -0.00000000000E+00 -0.74505805969E-08  0.93827000000E+00  0.93827000000E+00 0.  1.
     999902    2    1    2    0    0 -0.13897932969E-01 -0.12305478666E-01 -0.15062914816E-01  0.10200245875E+01  0.10197444240E+01 0.  0.
     999903    2    3    3    0    0  0.25944014329E-02 -0.10036271171E+00  0.80639091339E-01  0.13031398992E+00  0.19991700686E-01 0.  0.
         14    1    1    2    0    0  0.13897932969E-01  0.12305478666E-01  0.15062914816E-01  0.23905412541E-01  0.00000000000E+00 0.  1.
     999901    1    3    3    0    0 -0.16492334402E-01  0.88057233048E-01 -0.95702006155E-01  0.88971059754E+00  0.88000000000E+00 0.  1.
        -11    1    4    4    0    0  0.94849187825E-03 -0.69063287605E-01  0.66658147488E-01  0.95990661417E-01  0.51100000000E-03 0. -1.
         11    1    4    4    0    0  0.16459095547E-02 -0.31299424108E-01  0.13980943851E-01  0.34323328506E-01  0.51100000000E-03 0.  1.
</event>
<event>
 8    1  0.1123285E+005  0.1043930E+01  0.7957747E-01            NaN
         13   -1    0    0    0    0  0.00000000000E+00  0.00000000000E+00  0.74505805969E-08  0.10566000000E+00  0.10566000000E+00 0.  1.
     999900   -1    0    0    0    0 -0.00000000000E+00 -0.00000000000E+00 -0.74505805969E-08  0.93827000000E+00  0.93827000000E+00 0. -1.
     999902    2    1    2    0    0  0.95643230027E-02  0.20319357886E-01 -0.90017083143E-02  0.10197353036E+01  0.10194482361E+01 0.  0.
     999903    2    3    3    0    0  0.60393638259E-01  0.11486430210E+00 -0.22043230878E-01  0.13311675709E+00  0.19823409194E-01 0.  0.
         14    1    1    2    0    0 -0.95643230027E-02 -0.20319357886E-01  0.90017083143E-02  0.24194696360E-01  0.00000000000E+00 0. -1.
     999901    1    3    3    0    0 -0.50829315257E-01 -0.94544944218E-01  0.13041522563E-01  0.88661854654E+00  0.88000000000E+00 0. -1.
        -11    1    4    4    0    0  0.25516391610E-01  0.69615614820E-01 -0.12521149784E-01  0.75196146048E-01  0.51100000000E-03 0.  1.
         11    1    4    4    0    0  0.34877246649E-01  0.45248687283E-01 -0.95220810936E-02  0.57920611047E-01  0.51100000000E-03 0. -1.
</event>
<event>
 8    1  0.1123285E+005  0.1043930E+01  0.7957747E-01            NaN
         13   -1    0    0    0    0  0.00000000000E+00  0.00000000000E+00  0.74505805969E-08  0.10566000000E+00  0.10566000000E+00 0. -1.
     999900   -1    0    0    0    0 -0.00000000000E+00 -0.00000000000E+00 -0.74505805969E-08  0.93827000000E+00  0.93827000000E+00 0. -1.
     999902    2    1    2    0    0 -0.18212107826E-01  0.67114320476E-02 -0.10291874640E-01  0.10219607744E+01  0.10217246094E+01 0.  0.
     999903    2    3    3    0    0 -0.44283323245E-01  0.15136013355E-01  0.12151659188E+00  0.13172251766E+00  0.19860209968E-01 0.  0.
         14    1    1    2    0    0  0.18212107826E-01 -0.67114320476E-02  0.10291874640E-01  0.21969225639E-01  0.00000000000E+00 0. -1.
     999901    1    3    3    0    0  0.26071215419E-01 -0.84245813074E-02 -0.13180846652E+00  0.89023825670E+00  0.88000000000E+00 0. -1.
        -11    1    4    4    0    0 -0.12707362659E-01  0.14397979523E-01  0.43466886729E-01  0.47522733960E-01  0.51100000000E-03 0. -1.
         11    1    4    4    0    0 -0.31575960586E-01  0.73803383238E-03  0.78049705148E-01  0.84199783703E-01  0.51100000000E-03 0.  1.
</event>
<event>
 8    1  0.1123285E+005  0.1043930E+01  0.7957747E-01            NaN
         13   -1    0    0    0    0  0.00000000000E+00  0.00000000000E+00  0.74505805969E-08  0.10566000000E+00  0.10566000000E+00 0.  1.
     999900   -1    0    0    0    0 -0.00000000000E+00 -0.00000000000E+00 -0.74505805969E-08  0.93827000000E+00  0.93827000000E+00 0. -1.
     999902    2    1    2    0    0 -0.20954773397E-01  0.76048044379E-02  0.57931633184E-02  0.10208974943E+01  0.10206376426E+01 0.  0.
     999903    2    3    3    0    0 -0.17127780433E-01 -0.90221861709E-01 -0.89858518553E-01  0.13031681476E+00  0.21784711608E-01 0.  0.
         14    1    1    2    0    0  0.20954773397E-01 -0.76048044379E-02 -0.57931633184E-02  0.23032505723E-01  0.00000000000E+00 0.  1.
     999901    1    3    3    0    0 -0.38269929634E-02  0.97826666147E-01  0.95651681871E-01  0.89058067952E+00  0.88000000000E+00 0.  1.
        -11    1    4    4    0    0 -0.28216793554E-02 -0.63084666612E-01 -0.66893534117E-01  0.91992625050E-01  0.51100000000E-03 0.  1.
         11    1    4    4    0    0 -0.14306101078E-01 -0.27137195097E-01 -0.22964984436E-01  0.38324189710E-01  0.51100000000E-03 0. -1.
</event>
<event>
 8    1  0.1123285E+005  0.1043930E+01  0.7957747E-01            NaN
         13   -1    0    0    0    0  0.00000000000E+00  0.00000000000E+00  0.74505805969E-08  0.10566000000E+00  0.10566000000E+00 0. -1.
     999900   -1    0    0    0    0 -0.00000000000E+00 -0.00000000000E+00 -0.74505805969E-08  0.93827000000E+00  0.93827000000E+00 0. -1.
     999902    2    1    2    0    0  0.17199191783E-01  0.16373622641E-01  0.39937724885E-03  0.10201799007E+01  0.10199034084E+01 0.  0.
     999903    2    3    3    0    0 -0.11966259893E+00  0.24637854481E-01  0.35295841722E-01  0.12887904769E+00  0.20924890309E-01 0.  0.
         14    1    1    2    0    0 -0.17199191783E-01 -0.16373622641E-01 -0.39937724885E-03  0.23750099337E-01  0.00000000000E+00 0. -1.
     999901    1    3    3    0    0  0.13686179071E+00 -0.82642318401E-02 -0.34896464473E-01  0.89130085298E+00  0.88000000000E+00 0. -1.
        -11    1    4    4    0    0 -0.27697618298E-01  0.86021264747E-02  0.17398719900E-01  0.33825008713E-01  0.51100000000E-03 0. -1.
         11    1    4    4    0    0 -0.91964980628E-01  0.16035728006E-01  0.17897121822E-01  0.95054038973E-01  0.51100000000E-03 0.  1.
</event>
<event>
 8    1  0.1123285E+005  0.1043930E+01  0.7957747E-01            NaN
         13   -1    0    0    0    0  0.00000000000E+00  0.00000000000E+00  0.74505805969E-08  0.10566000000E+00  0.10566000000E+00 0.  1.
     999900   -1    0    0    0    0 -0.00000000000E+00 -0.00000000000E+00 -0.74505805969E-08  0.93827000000E+00  0.93827000000E+00 0.  1.
     999902    2    1    2    0    0 -0.23824127342E-01 -0.12791311249E-02 -0.45579795595E-02  0.10196400762E+01  0.10193507172E+01 0.  0.
     999903    2    3    3    0    0  0.94708078973E-02  0.12303054681E+00 -0.34767513730E-01  0.12976701521E+00  0.20111851565E-01 0.  0.
         14    1    1    2    0    0  0.23824127342E-01  0.12791311249E-02  0.45579795595E-02  0.24289923790E-01  0.00000000000E+00 0. -1.
     999901    1    3    3    0    0 -0.33294935240E-01 -0.12430967794E+00  0.30209534170E-01  0.88987306100E+00  0.88000000000E+00 0.  1.
        -11    1    4    4    0    0  0.56473830040E-02  0.10426373058E+00 -0.21905104811E-01  0.10669073618E+00  0.51100000000E-03 0.  1.
         11    1    4    4    0    0  0.38234248932E-02  0.18766816234E-01 -0.12862408919E-01  0.23076279026E-01  0.51100000000E-03 0. -1.
</event>
<event>
 8    1  0.1123285E+005  0.1043930E+01  0.7957747E-01            NaN
         13   -1    0    0    0    0  0.00000000000E+00  0.00000000000E+00  0.74505805969E-08  0.10566000000E+00  0.10566000000E+00 0.  1.
     999900   -1    0    0    0    0 -0.00000000000E+00 -0.00000000000E+00 -0.74505805969E-08  0.93827000000E+00  0.93827000000E+00 0. -1.
     999902    2    1    2    0    0  0.14395776792E-01  0.14175818688E-01  0.11946725202E-01  0.10204583902E+01  0.10201884187E+01 0.  0.
     999903    2    3    3    0    0 -0.24113658485E-01 -0.12428163526E+00 -0.12483737893E-01  0.12846607480E+00  0.17896795022E-01 0.  0.
         14    1    1    2    0    0 -0.14395776792E-01 -0.14175818688E-01 -0.11946725202E-01  0.23471609829E-01  0.00000000000E+00 0. -1.
     999901    1    3    3    0    0  0.38509435277E-01  0.13845745395E+00  0.24430463095E-01  0.89199231537E+00  0.88000000000E+00 0.  1.
        -11    1    4    4    0    0 -0.36112147306E-03 -0.36867442244E-01  0.97981813077E-03  0.36885767863E-01  0.51100000000E-03 0.  1.
         11    1    4    4    0    0 -0.23752537012E-01 -0.87414193021E-01 -0.13463556024E-01  0.91580306932E-01  0.51100000000E-03 0. -1.
</event>
<event>
 8    1  0.1123285E+005  0.1043930E+01  0.7957747E-01            NaN
         13   -1    0    0    0    0  0.00000000000E+00  0.00000000000E+00  0.74505805969E-08  0.10566000000E+00  0.10566000000E+00 0.  1.
     999900   -1    0    0    0    0 -0.00000000000E+00 -0.00000000000E+00 -0.74505805969E-08  0.93827000000E+00  0.93827000000E+00 0.  1.
     999902    2    1    2    0    0 -0.14904857965E-01 -0.14315351944E-01  0.11791633986E-01  0.10201365823E+01  0.10198590686E+01 0.  0.
     999903    2    3    3    0    0 -0.30403264563E-01  0.53412276189E-01 -0.11145275846E+00  0.12883617703E+00  0.19995334476E-01 0.  0.
         14    1    1    2    0    0  0.14904857965E-01  0.14315351944E-01 -0.11791633986E-01  0.23793417668E-01  0.00000000000E+00 0.  1.
     999901    1    3    3    0    0  0.15498406598E-01 -0.67727628133E-01  0.12324439244E+00  0.89130040530E+00  0.88000000000E+00 0. -1.
        -11    1    4    4    0    0 -0.32335564791E-01  0.44182758726E-01 -0.99840673970E-01  0.11386889926E+00  0.51100000000E-03 0. -1.
         11    1    4    4    0    0  0.19323002277E-02  0.92295174624E-02 -0.11612084488E-01  0.14967277772E-01  0.51100000000E-03 0.  1.
</event>
<event>
 8    1  0.1123285E+005  0.1043930E+01  0.7957747E-01            NaN
         13   -1    0    0    0    0  0.00000000000E+00  0.00000000000E+00  0.74505805969E-08  0.10566000000E+00  0.10566000000E+00 0. -1.
     999900   -1    0    0    0    0 -0.00000000000E+00 -0.00000000000E+00 -0.74505805969E-08  0.93827000000E+00  0.93827000000E+00 0. -1.
     999902    2    1    2    0    0  0.20037628661E-01  0.10832187293E-01  0.45040149046E-02  0.10207108485E+01  0.10204467195E+01 0.  0.
     999903    2    3    3    0    0 -0.10276887826E+00  0.73516461152E-01  0.22160472480E-01  0.12979979416E+00  0.19768349051E-01 0.  0.
         14    1    1    2    0    0 -0.20037628661E-01 -0.10832187293E-01 -0.45040149046E-02  0.23219151452E-01  0.00000000000E+00 0. -1.
     999901    1    3    3    0    0  0.12280650692E+00 -0.62684273859E-01 -0.17656457576E-01  0.89091105439E+00  0.88000000000E+00 0.  1.
        -11    1    4    4    0    0 -0.60730106991E-01  0.49496344249E-01  0.22008071101E-01  0.81379667631E-01  0.51100000000E-03 0. -1.
         11    1    4    4    0    0 -0.42038771273E-01  0.24020116903E-01  0.15240137964E-03  0.48420126532E-01  0.51100000000E-03 0.  1.
</event>
<event>
 8    1  0.1123285E+005  0.1043930E+01  0.7957747E-01            NaN
         13   -1    0    0    0    0  0.00000000000E+00  0.00000000000E+00  0.74505805969E-08  0.10566000000E+00  0.10566000000E+00 0. -1.
     999900   -1    0    0    0    0 -0.00000000000E+00 -0.00000000000E+00 -0.74505805969E-08  0.93827000000E+00  0.93827000000E+00 0. -1.
     999902    2    1    2    0    0 -0.10784102153E-01  0.18838312349E-01 -0.87182541651E-02  0.10205379751E+01  0.10202698525E+01 0.  0.
     999903    2    3    3    0    0 -0.81749980040E-01  0.76770639632E-01 -0.68611847128E-01  0.13375753284E+00  0.24631315005E-01 0.  0.
         14    1    1    2    0    0  0.10784102153E-01 -0.18838312349E-01  0.87182541651E-02  0.23392024861E-01  0.00000000000E+00 0. -1.
     999901    1    3    3    0    0  0.70965877887E-01 -0.57932327283E-01  0.59893592963E-01  0.88678044230E+00  0.88000000000E+00 0.  1.
        -11    1    4    4    0    0 -0.36583279978E-01  0.41322777672E-01 -0.20600153678E-01  0.58911253432E-01  0.51100000000E-03 0.  1.
         11    1    4    4    0    0 -0.45166700062E-01  0.35447861960E-01 -0.48011693451E-01  0.74846279407E-01  0.51100000000E-03 0. -1.
</event>
<event>
 8    1  0.1123285E+005  0.1043930E+01  0.7957747E-01            NaN
         13   -1    0    0    0    0  0.00000000000E+00  0.00000000000E+00  0.74505805969E-08  0.10566000000E+00  0.10566000000E+00 0.  1.
     999900   -1    0    0    0    0 -0.00000000000E+00 -0.00000000000E+00 -0.74505805969E-08  0.93827000000E+00  0.93827000000E+00 0.  1.
     999902    2    1    2    0    0 -0.13631082230E-01 -0.19339618772E-01 -0.29214188671E-02  0.10200896572E+01  0.10198110348E+01 0.  0.
     999903    2    3    3    0    0  0.34097809194E-02 -0.10075036613E+00  0.82867870111E-01  0.13201426461E+00  0.19960442954E-01 0.  0.
         14    1    1    2    0    0  0.13631082230E-01  0.19339618772E-01  0.29214188671E-02  0.23840342808E-01  0.00000000000E+00 0.  1.
     999901    1    3    3    0    0 -0.17040863149E-01  0.81410747359E-01 -0.85789288978E-01  0.88807539258E+00  0.88000000000E+00 0. -1.
        -11    1    4    4    0    0 -0.58812605832E-02 -0.44237994337E-01  0.44844321941E-01  0.63268188692E-01  0.51100000000E-03 0. -1.
         11    1    4    4    0    0  0.92910415026E-02 -0.56512371794E-01  0.38023548169E-01  0.68746075920E-01  0.51100000000E-03 0.  1.
</event>
<event>
 8    1  0.1123285E+005  0.1043930E+01  0.7957747E-01            NaN
         13   -1    0    0    0    0  0.00000000000E+00  0.00000000000E+00  0.74505805969E-08  0.10566000000E+00  0.10566000000E+00 0. -1.
     999900   -1    0    0    0    0 -0.00000000000E+00 -0.00000000000E+00 -0.74505805969E-08  0.93827000000E+00  0.93827000000E+00 0.  1.
     999902    2    1    2    0    0 -0.10011083984E-01  0.21386447773E-01  0.24873804899E-02  0.10201857583E+01  0.10199094041E+01 0.  0.
     999903    2    3    3    0    0 -0.78670335369E-01  0.77516784600E-01  0.71269225813E-01  0.13305800554E+00  0.20670189392E-01 0.  0.
         14    1    1    2    0    0  0.10011083984E-01 -0.21386447773E-01 -0.24873804899E-02  0.23744241672E-01  0.00000000000E+00 0.  1.
     999901    1    3    3    0    0  0.68659251385E-01 -0.56130336827E-01 -0.68781845323E-01  0.88712775278E+00  0.88000000000E+00 0.  1.
        -11    1    4    4    0    0 -0.58543092949E-01  0.52847254293E-01  0.40014531049E-01  0.88439526426E-01  0.51100000000E-03 0. -1.
         11    1    4    4    0    0 -0.20127242420E-01  0.24669530307E-01  0.31254694764E-01  0.44618479118E-01  0.51100000000E-03 0.  1.
</event>
<event>
 8    1  0.1123285E+005  0.1043930E+01  0.7957747E-01            NaN
         13   -1    0    0    0    0  0.00000000000E+00  0.00000000000E+00  0.74505805969E-08  0.10566000000E+00  0.10566000000E+00 0.  1.
     999900   -1    0    0    0    0 -0.00000000000E+00 -0.00000000000E+00 -0.74505805969E-08  0.93827000000E+00  0.93827000000E+00 0. -1.
     999902    2    1    2    0    0  0.10206042730E-01 -0.16141215337E-02 -0.21515934777E-01  0.10200615240E+01  0.10197822359E+01 0.  0.
     999903    2    3    3    0    0  0.26458979314E-01  0.10996541830E+00  0.59092193707E-01  0.12921259067E+00  0.20286335866E-01 0.  0.
         14    1    1    2    0    0 -0.10206042730E-01  0.16141215337E-02  0.21515934777E-01  0.23868475985E-01  0.00000000000E+00 0. -1.
     999901    1    3    3    0    0 -0.16252936584E-01 -0.11157953984E+00 -0.80608128484E-01  0.89084893334E+00  0.88000000000E+00 0. -1.
        -11    1    4    4    0    0  0.11312919882E-02  0.95858369929E-02  0.12189137746E-01  0.15556487148E-01  0.51100000000E-03 0.  1.
         11    1    4    4    0    0  0.25327687326E-01  0.10037958131E+00  0.46903055962E-01  0.11365610353E+00  0.51100000000E-03 0. -1.
</event>
<event>
 8    1  0.1123285E+005  0.1043930E+01  0.7957747E-01            NaN
         13   -1    0    0    0    0  0.00000000000E+00  0.00000000000E+00  0.74505805969E-08  0.10566000000E+00  0.10566000000E+00 0.  1.
     999900   -1    0    0    0    0 -0.00000000000E+00 -0.00000000000E+00 -0.74505805969E-08  0.93827000000E+00  0.93827000000E+00 0. -1.
     999902    2    1    2    0    0 -0.22360653386E-01 -0.76514309918E-02  0.32153665934E-02  0.10200787569E+01  0.10197998767E+01 0.  0.
     999903    2    3    3    0    0 -0.33006873630E-01 -0.59155974633E-01  0.11137373340E+00  0.13189843041E+00  0.20104835519E-01 0.  0.
         14    1    1    2    0    0  0.22360653386E-01  0.76514309918E-02 -0.32153665934E-02  0.23851243121E-01  0.00000000000E+00 0.  1.
     999901    1    3    3    0    0  0.10646220244E-01  0.51504543642E-01 -0.10815836680E+00  0.88818032647E+00  0.88000000000E+00 0. -1.
        -11    1    4    4    0    0 -0.18071867390E-01 -0.17974710420E-01  0.53962924611E-01  0.59681998619E-01  0.51100000000E-03 0. -1.
         11    1    4    4    0    0 -0.14935006241E-01 -0.41181264213E-01  0.57410808788E-01  0.72216431789E-01  0.51100000000E-03 0.  1.
</event>
<event>
 8    1  0.1123285E+005  0.1043930E+01  0.7957747E-01            NaN
         13   -1    0    0    0    0  0.00000000000E+00  0.00000000000E+00  0.74505805969E-08  0.10566000000E+00  0.10566000000E+00 0.  1.
     999900   -1    0    0    0    0 -0.00000000000E+00 -0.00000000000E+00 -0.74505805969E-08  0.93827000000E+00  0.93827000000E+00 0.  1.
     999902    2    1    2    0    0  0.13969442956E-01 -0.27705902760E-01 -0.82446991138E-02  0.10118249000E+01  0.10113154259E+01 0.  0.
     999903    2    3    3    0    0 -0.10212883127E+00 -0.72068240867E-03 -0.64947740696E-01  0.12198095505E+00  0.15176521814E-01 0.  0.
         14    1    1    2    0    0 -0.13969442956E-01  0.27705902760E-01  0.82446991138E-02  0.32105100026E-01  0.00000000000E+00 0. -1.
     999901    1    3    3    0    0  0.11609827422E+00 -0.26985220351E-01  0.56703041582E-01  0.88984394492E+00  0.88000000000E+00 0. -1.
        -11    1    4    4    0    0 -0.43955164087E-01  0.60769695947E-02 -0.32661707930E-01  0.55100220465E-01  0.51100000000E-03 0.  1.
         11    1    4    4    0    0 -0.58173667179E-01 -0.67976520034E-02 -0.32286032766E-01  0.66880734584E-01  0.51100000000E-03 0. -1.
</event>
<event>
 8    1  0.1123285E+005  0.1043930E+01  0.7957747E-01            NaN
         13   -1    0    0    0    0  0.00000000000E+00  0.00000000000E+00  0.74505805969E-08  0.10566000000E+00  0.10566000000E+00 0. -1.
     999900   -1    0    0    0    0 -0.00000000000E+00 -0.00000000000E+00 -0.74505805969E-08  0.93827000000E+00  0.93827000000E+00 0. -1.
     999902    2    1    2    0    0  0.13113108273E-01 -0.15939894064E-01 -0.12655107026E-01  0.10197187306E+01  0.10194312650E+01 0.  0.
     999903    2    3    3    0    0  0.11898275692E+00 -0.17117892404E-01 -0.52065776321E-01  0.13249667778E+00  0.19864689111E-01 0.  0.
         14    1    1    2    0    0 -0.13113108273E-01  0.15939894064E-01  0.12655107026E-01  0.24211269384E-01  0.00000000000E+00 0. -1.
     999901    1    3    3    0    0 -0.10586964865E+00  0.11779983408E-02  0.39410669295E-01  0.88722205284E+00  0.88000000000E+00 0. -1.
        -11    1    4    4    0    0  0.23534872359E-01  0.30301684868E-02 -0.15337979704E-01  0.28259279546E-01  0.51100000000E-03 0.  1.
         11    1    4    4    0    0  0.95447884563E-01 -0.20148060891E-01 -0.36727796617E-01  0.10423739823E+00  0.51100000000E-03 0. -1.
</event>
<event>
 8    1  0.1123285E+005  0.1043930E+01  0.7957747E-01            NaN
         13   -1    0    0    0    0  0.00000000000E+00  0.00000000000E+00  0.74505805969E-08  0.10566000000E+00  0.10566000000E+00 0.  1.
     999900   -1    0    0    0    0 -0.00000000000E+00 -0.00000000000E+00 -0.74505805969E-08  0.93827000000E+00  0.93827000000E+00 0.  1.
     999902    2    1    2    0    0 -0.79638541773E-02 -0.16571341622E-01  0.14563246560E-01  0.10204753526E+01  0.10202057757E+01 0.  0.
     999903    2    3    3    0    0  0.47891998900E-01 -0.38374463168E-01 -0.11216077433E+00  0.12937814691E+00  0.19809659692E-01 0.  0.
         14    1    1    2    0    0  0.79638541773E-02  0.16571341622E-01 -0.14563246560E-01  0.23454647447E-01  0.00000000000E+00 0. -1.
     999901    1    3    3    0    0 -0.55855853078E-01  0.21803121546E-01  0.12672402089E+00  0.89109720564E+00  0.88000000000E+00 0.  1.
        -11    1    4    4    0    0  0.74335835220E-02 -0.12746001582E-01 -0.41206726564E-01  0.43771842039E-01  0.51100000000E-03 0.  1.
         11    1    4    4    0    0  0.40458415378E-01 -0.25628461586E-01 -0.70954047768E-01  0.85606304872E-01  0.51100000000E-03 0. -1.
</event>
<event>
 8    1  0.1123285E+005  0.1043930E+01  0.7957747E-01            NaN
         13   -1    0    0    0    0  0.00000000000E+00  0.00000000000E+00  0.74505805969E-08  0.10566000000E+00  0.10566000000E+00 0.  1.
     999900   -1    0    0    0    0 -0.00000000000E+00 -0.00000000000E+00 -0.74505805969E-08  0.93827000000E+00  0.93827000000E+00 0. -1.
     999902    2    1    2    0    0  0.14566355579E-01  0.17429454056E-01  0.59897966111E-02  0.10204386772E+01  0.10201682467E+01 0.  0.
     999903    2    3    3    0    0  0.76339789872E-01 -0.56859860935E-01  0.88169978029E-01  0.13134450799E+00  0.20411453884E-01 0.  0.
         14    1    1    2    0    0 -0.14566355579E-01 -0.17429454056E-01 -0.59897966111E-02  0.23491322802E-01  0.00000000000E+00 0.  1.
     999901    1    3    3    0    0 -0.61773434294E-01  0.74289314991E-01 -0.82180181418E-01  0.88909416921E+00  0.88000000000E+00 0. -1.
        -11    1    4    4    0    0  0.42278927033E-01 -0.43751258805E-01  0.54258403808E-01  0.81522486609E-01  0.51100000000E-03 0. -1.
         11    1    4    4    0    0  0.34060862839E-01 -0.13108602130E-01  0.33911574221E-01  0.49822021379E-01  0.51100000000E-03 0.  1.
</event>
<event>
 8    1  0.1123285E+005  0.1043930E+01  0.7957747E-01            NaN
         13   -1    0    0    0    0  0.00000000000E+00  0.00000000000E+00  0.74505805969E-08  0.10566000000E+00  0.10566000000E+00 0. -1.
     999900   -1    0    0    0    0 -0.00000000000E+00 -0.00000000000E+00 -0.74505805969E-08  0.93827000000E+00  0.93827000000E+00 0.  1.
     999902    2    1    2    0    0  0.87756787357E-02 -0.45864641214E-02  0.22250573993E-01  0.10195756116E+01  0.10192846960E+01 0.  0.
     999903    2    3    3    0    0  0.17937772153E-01  0.96322118178E-01 -0.79700336426E-01  0.12791397508E+00  0.20251599308E-01 0.  0.
         14    1    1    2    0    0 -0.87756787357E-02  0.45864641214E-02 -0.22250573993E-01  0.24354388381E-01  0.00000000000E+00 0.  1.
     999901    1    3    3    0    0 -0.91620934177E-02 -0.10090858230E+00  0.10195091042E+00  0.89166163654E+00  0.88000000000E+00 0. -1.
        -11    1    4    4    0    0  0.16989750353E-01  0.92293001628E-01 -0.69153159520E-01  0.11657216803E+00  0.51100000000E-03 0. -1.
         11    1    4    4    0    0  0.94802180073E-03  0.40291165502E-02 -0.10547176906E-01  0.11341807052E-01  0.51100000000E-03 0.  1.
</event>
<event>
 8    1  0.1123285E+005  0.1043930E+01  0.7957747E-01            NaN
         13   -1    0    0    0    0  0.00000000000E+00  0.00000000000E+00  0.74505805969E-08  0.10566000000E+00  0.10566000000E+00 0.  1.
     999900   -1    0    0    0    0 -0.00000000000E+00 -0.00000000000E+00 -0.74505805969E-08  0.93827000000E+00  0.93827000000E+00 0. -1.
     999902    2    1    2    0    0  0.23017385631E-01 -0.53767078078E-03  0.29923330933E-02  0.10207126964E+01  0.10204486098E+01 0.  0.
     999903    2    3    3    0    0  0.71772014632E-01 -0.51608792199E-01 -0.96270834952E-01  0.13232176336E+00  0.20646691764E-01 0.  0.
         14    1    1    2    0    0 -0.23017385631E-01  0.53767078078E-03 -0.29923330933E-02  0.23217303644E-01  0.00000000000E+00 0. -1.
     999901    1    3    3    0    0 -0.48754629001E-01  0.51071121419E-01  0.99263168045E-01  0.88839093299E+00  0.88000000000E+00 0.  1.
        -11    1    4    4    0    0  0.60657131289E-01 -0.51624268042E-01 -0.84406636661E-01  0.11605642619E+00  0.51100000000E-03 0. -1.
         11    1    4    4    0    0  0.11114883343E-01  0.15475842167E-04 -0.11864198291E-01  0.16265337172E-01  0.51100000000E-03 0.  1.
</event>
<event>
 8    1  0.1123285E+005  0.1043930E+01  0.7957747E-01            NaN
         13   -1    0    0    0    0  0.00000000000E+00  0.00000000000E+00  0.74505805969E-08  0.10566000000E+00  0.10566000000E+00 0. -1.
     999900   -1    0    0    0    0 -0.00000000000E+00 -0.00000000000E+00 -0.74505805969E-08  0.93827000000E+00  0.93827000000E+00 0.  1.
     999902    2    1    2    0    0  0.38641832579E-02 -0.19647468300E-01  0.11151195101E-01  0.10210104870E+01  0.10207532075E+01 0.  0.
     999903    2    3    3    0    0 -0.36125412592E-01 -0.12138835419E+00 -0.35369969150E-01  0.13302704441E+00  0.20124161088E-01 0.  0.
         14    1    1    2    0    0 -0.38641832579E-02  0.19647468300E-01 -0.11151195101E-01  0.22919512975E-01  0.00000000000E+00 0. -1.
     999901    1    3    3    0    0  0.39989595850E-01  0.10174088589E+00  0.46521164251E-01  0.88798344262E+00  0.88000000000E+00 0. -1.
        -11    1    4    4    0    0 -0.84729759386E-02 -0.42201653843E-01 -0.31081033964E-02  0.43158919542E-01  0.51100000000E-03 0.  1.
         11    1    4    4    0    0 -0.27652436653E-01 -0.79186700343E-01 -0.32261865753E-01  0.89868124866E-01  0.51100000000E-03 0. -1.
</event>
<event>
 8    1  0.1123285E+005  0.1043930E+01  0.7957747E-01            NaN
         13   -1    0    0    0    0  0.00000000000E+00  0.00000000000E+00  0.74505805969E-08  0.10566000000E+00  0.10566000000E+00 0. -1.
     999900   -1    0    0    0    0 -0.00000000000E+00 -0.00000000000E+00 -0.74505805969E-08  0.93827000000E+00  0.93827000000E+00 0. -1.
     999902    2    1    2    0    0  0.20058867643E-01 -0.49311066574E-02  0.35995384511E-02  0.10229626287E+01  0.10227477250E+01 0.  0.
     999903    2    3    3    0    0 -0.10438063728E+00 -0.76399393190E-01 -0.92349354990E-02  0.13124651347E+00  0.20203429028E-01 0.  0.
         14    1    1    2    0    0 -0.20058867643E-01  0.49311066574E-02 -0.35995384511E-02  0.20967371343E-01  0.00000000000E+00 0. -1.
     999901    1    3    3    0    0  0.12443950493E+00  0.71468286532E-01  0.12834473950E-01  0.89171611519E+00  0.88000000000E+00 0.  1.
        -11    1    4    4    0    0 -0.63740263473E-01 -0.58185069834E-01 -0.82320807241E-02  0.86696896215E-01  0.51100000000E-03 0.  1.
         11    1    4    4    0    0 -0.40640373810E-01 -0.18214323355E-01 -0.10028547749E-02  0.44549617254E-01  0.51100000000E-03 0. -1.
</event>
<event>
 8    1  0.1123285E+005  0.1043930E+01  0.7957747E-01            NaN
         13   -1    0    0    0    0  0.00000000000E+00  0.00000000000E+00  0.74505805969E-08  0.10566000000E+00  0.10566000000E+00 0.  1.
     999900   -1    0    0    0    0 -0.00000000000E+00 -0.00000000000E+00 -0.74505805969E-08  0.93827000000E+00  0.93827000000E+00 0. -1.
     999902    2    1    2    0    0 -0.15466051968E-01 -0.15383917279E-01 -0.64872326722E-02  0.10211715321E+01  0.10209178959E+01 0.  0.
     999903    2    3    3    0    0  0.97514634627E-02  0.19243065995E-01 -0.12839893685E+00  0.13173496061E+00  0.20060564165E-01 0.  0.
         14    1    1    2    0    0  0.15466051968E-01  0.15383917279E-01  0.64872326722E-02  0.22758467920E-01  0.00000000000E+00 0.  1.
     999901    1    3    3    0    0 -0.25217515430E-01 -0.34626983274E-01  0.12191170418E+00  0.88943657147E+00  0.88000000000E+00 0.  1.
        -11    1    4    4    0    0  0.14955760324E-01  0.85766322522E-02 -0.66082243223E-01  0.68296100753E-01  0.51100000000E-03 0. -1.
         11    1    4    4    0    0 -0.52042968609E-02  0.10666433742E-01 -0.62316693624E-01  0.63438859856E-01  0.51100000000E-03 0.  1.
</event>
<event>
 8    1  0.1123285E+005  0.1043930E+01  0.7957747E-01            NaN
         13   -1    0    0    0    0  0.00000000000E+00  0.00000000000E+00  0.74505805969E-08  0.10566000000E+00  0.10566000000E+00 0.  1.
     999900   -1    0    0    0    0 -0.00000000000E+00 -0.00000000000E+00 -0.74505805969E-08  0.93827000000E+00  0.93827000000E+00 0.  1.
     999902    2    1    2    0    0  0.23065806133E-02 -0.23324862176E-01  0.15660285718E-02  0.10204391091E+01  0.10201686887E+01 0.  0.
     999903    2    3    3    0    0  0.11157765631E+00  0.41367649305E-01 -0.47168973488E-01  0.12998956564E+00  0.22616792867E-01 0.  0.
         14    1    1    2    0    0 -0.23065806133E-02  0.23324862176E-01 -0.15660285718E-02  0.23490890897E-01  0.00000000000E+00 0.  1.
     999901    1    3    3    0    0 -0.10927107569E+00 -0.64692511481E-01  0.48735002059E-01  0.89044954346E+00  0.88000000000E+00 0. -1.
        -11    1    4    4    0    0  0.28507017914E-01  0.16744603544E-02 -0.16297554987E-01  0.32883511178E-01  0.51100000000E-03 0. -1.
         11    1    4    4    0    0  0.83070638394E-01  0.39693188951E-01 -0.30871418500E-01  0.97106054464E-01  0.51100000000E-03 0.  1.
</event>
<event>
 8    1  0.1123285E+005  0.1043930E+01  0.7957747E-01            NaN
         13   -1    0    0    0    0  0.00000000000E+00  0.00000000000E+00  0.74505805969E-08  0.10566000000E+00  0.10566000000E+00 0. -1.
     999900   -1    0    0    0    0 -0.00000000000E+00 -0.00000000000E+00 -0.74505805969E-08  0.93827000000E+00  0.93827000000E+00 0. -1.
     999902    2    1    2    0    0 -0.17296307904E-01  0.11618089410E-01  0.11480579532E-01  0.10201403809E+01  0.10198629569E+01 0.  0.
     999903    2    3    3    0    0 -0.12044104938E+00 -0.48512457597E-01  0.13474835992E-01  0.13207591400E+00  0.20074135998E-01 0.  0.
         14    1    1    2    0    0  0.17296307904E-01 -0.11618089410E-01 -0.11480579532E-01  0.23789619060E-01  0.00000000000E+00 0. -1.
     999901    1    3    3    0    0  0.10314474148E+00  0.60130547007E-01 -0.19942564605E-02  0.88806446694E+00  0.88000000000E+00 0. -1.
        -11    1    4    4    0    0 -0.10418999516E+00 -0.34075916206E-01  0.10356543766E-01  0.11011013703E+00  0.51100000000E-03 0. -1.
         11    1    4    4    0    0 -0.16251054226E-01 -0.14436541391E-01  0.31182922266E-02  0.21965776976E-01  0.51100000000E-03 0.  1.
</event>
<event>
 8    1  0.1123285E+005  0.1043930E+01  0.7957747E-01            NaN
         13   -1    0    0    0    0  0.00000000000E+00  0.00000000000E+00  0.74505805969E-08  0.10566000000E+00  0.10566000000E+00 0.  1.
     999900   -1    0    0    0    0 -0.00000000000E+00 -0.00000000000E+00 -0.74505805969E-08  0.93827000000E+00  0.93827000000E+00 0. -1.
     999902    2    1    2    0    0  0.98297773075E-03  0.15989501360E-01 -0.18020582559E-01  0.10198183473E+01  0.10195332705E+01 0.  0.
     999903    2    3    3    0    0  0.11489954896E-01 -0.10709418728E+00  0.64858687365E-01  0.12733363353E+00  0.20149960014E-01 0.  0.
         14    1    1    2    0    0 -0.98297773075E-03 -0.15989501360E-01  0.18020582559E-01  0.24111652675E-01  0.00000000000E+00 0.  1.
     999901    1    3    3    0    0 -0.10506977165E-01  0.12308368864E+00 -0.82879269924E-01  0.89248471380E+00  0.88000000000E+00 0. -1.
        -11    1    4    4    0    0  0.15403015798E-01 -0.81238941698E-01  0.42742263874E-01  0.93081581346E-01  0.51100000000E-03 0.  1.
         11    1    4    4    0    0 -0.39130609026E-02 -0.25855245579E-01  0.22116423491E-01  0.34252052181E-01  0.51100000000E-03 0. -1.
</event>
<event>
 8    1  0.1123285E+005  0.1043930E+01  0.7957747E-01            NaN
         13   -1    0    0    0    0  0.00000000000E+00  0.00000000000E+00  0.74505805969E-08  0.10566000000E+00  0.10566000000E+00 0.  1.
     999900   -1    0    0    0    0 -0.00000000000E+00 -0.00000000000E+00 -0.74505805969E-08  0.93827000000E+00  0.93827000000E+00 0.  1.
     999902    2    1    2    0    0 -0.23431141448E-01  0.16684526690E-02  0.38577742068E-02  0.10201248630E+01  0.10198470727E+01 0.  0.
     999903    2    3    3    0    0 -0.10695802124E+00 -0.11386703433E-01  0.76445744566E-01  0.13309826243E+00  0.17364339246E-01 0.  0.
         14    1    1    2    0    0  0.23431141448E-01 -0.16684526690E-02 -0.38577742068E-02  0.23805136960E-01  0.00000000000E+00 0.  1.
     999901    1    3    3    0    0  0.83526879790E-01  0.13055156102E-01 -0.72587970359E-01  0.88702660061E+00  0.88000000000E+00 0.  1.
        -11    1    4    4    0    0 -0.86891382070E-01 -0.24500606763E-02  0.59300804842E-01  0.10522814097E+00  0.51100000000E-03 0.  1.
         11    1    4    4    0    0 -0.20066639168E-01 -0.89366427569E-02  0.17144939724E-01  0.27870121463E-01  0.51100000000E-03 0. -1.
</event>
<event>
 8    1  0.1123285E+005  0.1043930E+01  0.7957747E-01            NaN
         13   -1    0    0    0    0  0.00000000000E+00  0.00000000000E+00  0.74505805969E-08  0.10566000000E+00  0.10566000000E+00 0.  1.
     999900   -1    0    0    0    0 -0.00000000000E+00 -0.00000000000E+00 -0.74505805969E-08  0.93827000000E+00  0.93827000000E+00 0.  1.
     999902    2    1    2    0    0 -0.14857513877E-01 -0.17858914217E-01  0.78658350676E-02  0.10194033227E+01  0.10191082261E+01 0.  0.
     999903    2    3    3    0    0 -0.66783936234E-01  0.66707544587E-01 -0.85526353582E-01  0.12891472642E+00  0.19855953447E-01 0.  0.
         14    1    1    2    0    0  0.14857513877E-01  0.17858914217E-01 -0.78658350676E-02  0.24526677250E-01  0.00000000000E+00 0. -1.
     999901    1    3    3    0    0  0.51926422356E-01 -0.84566458803E-01  0.93392188649E-01  0.89048859633E+00  0.88000000000E+00 0. -1.
        -11    1    4    4    0    0 -0.40241267088E-01  0.26860587785E-01 -0.47060443008E-01  0.67496645621E-01  0.51100000000E-03 0.  1.
         11    1    4    4    0    0 -0.26542669146E-01  0.39846956802E-01 -0.38465910573E-01  0.61418080799E-01  0.51100000000E-03 0. -1.
</event>
<event>
 8    1  0.1123285E+005  0.1043930E+01  0.7957747E-01            NaN
         13   -1    0    0    0    0  0.00000000000E+00  0.00000000000E+00  0.74505805969E-08  0.10566000000E+00  0.10566000000E+00 0.  1.
     999900   -1    0    0    0    0 -0.00000000000E+00 -0.00000000000E+00 -0.74505805969E-08  0.93827000000E+00  0.93827000000E+00 0. -1.
     999902    2    1    2    0    0 -0.10123384621E-01  0.76769611582E-02  0.19654677058E-01  0.10205264751E+01  0.10202580857E+01 0.  0.
     999903    2    3    3    0    0  0.52801767317E-01 -0.11640950250E+00  0.81602808486E-02  0.12952190362E+00  0.19238878028E-01 0.  0.
         14    1    1    2    0    0  0.10123384621E-01 -0.76769611582E-02 -0.19654677058E-01  0.23403524928E-01  0.00000000000E+00 0. -1.
     999901    1    3    3    0    0 -0.62925151938E-01  0.12408646366E+00  0.11494396209E-01  0.89100457146E+00  0.88000000000E+00 0.  1.
        -11    1    4    4    0    0  0.24406299385E-01 -0.36414597399E-01  0.83859919465E-02  0.44634922822E-01  0.51100000000E-03 0.  1.
         11    1    4    4    0    0  0.28395467932E-01 -0.79994905106E-01 -0.22571109787E-03  0.84886980795E-01  0.51100000000E-03 0. -1.
</event>
<event>
 8    1  0.1123285E+005  0.1043930E+01  0.7957747E-01            NaN
         13   -1    0    0    0    0  0.00000000000E+00  0.00000000000E+00  0.74505805969E-08  0.10566000000E+00  0.10566000000E+00 0.  1.
     999900   -1    0    0    0    0 -0.00000000000E+00 -0.00000000000E+00 -0.74505805969E-08  0.93827000000E+00  0.93827000000E+00 0.  1.
     999902    2    1    2    0    0 -0.46209483151E-02  0.23726360880E-01 -0.22107842770E-02  0.10196569505E+01  0.10193679982E+01 0.  0.
     999903    2    3    3    0    0  0.57724471072E-01  0.40382464456E-01  0.10793628263E+00  0.13044564073E+00  0.20074015117E-01 0.  0.
         14    1    1    2    0    0  0.46209483151E-02 -0.23726360880E-01  0.22107842770E-02  0.24273049480E-01  0.00000000000E+00 0.  1.
     999901    1    3    3    0    0 -0.62345419387E-01 -0.16656103575E-01 -0.11014706690E+00  0.88921130979E+00  0.88000000000E+00 0.  1.
        -11    1    4    4    0    0  0.42048843988E-01  0.39203571915E-01  0.83140978692E-01  0.10108268294E+00  0.51100000000E-03 0.  1.
         11    1    4    4    0    0  0.15675627084E-01  0.11788925407E-02  0.24795303935E-01  0.29362957793E-01  0.51100000000E-03 0. -1.
</event>
<event>
 8    1  0.1123285E+005  0.1043930E+01  0.7957747E-01            NaN
         13   -1    0    0    0    0  0.00000000000E+00  0.00000000000E+00  0.74505805969E-08  0.10566000000E+00  0.10566000000E+00 0. -1.
     999900   -1    0    0    0    0 -0.00000000000E+00 -0.00000000000E+00 -0.74505805969E-08  0.93827000000E+00  0.93827000000E+00 0.  1.
     999902    2    1    2    0    0  0.90763659914E-02 -0.21401088248E-01 -0.32255299236E-02  0.10204610622E+01  0.10201911529E+01 0.  0.
     999903    2    3    3    0    0  0.12233340332E+00  0.97301884791E-02 -0.43574638748E-01  0.13174042923E+00  0.19916159682E-01 0.  0.
         14    1    1    2    0    0 -0.90763659914E-02  0.21401088248E-01  0.32255299236E-02  0.23468937792E-01  0.00000000000E+00 0.  1.
     999901    1    3    3    0    0 -0.11325703733E+00 -0.31131276727E-01  0.40349108825E-01  0.88872063298E+00  0.88000000000E+00 0.  1.
        -11    1    4    4    0    0  0.11718111612E+00  0.51458692875E-02 -0.39810843384E-01  0.12386709942E+00  0.51100000000E-03 0. -1.
         11    1    4    4    0    0  0.51522872001E-02  0.45843191916E-02 -0.37637953645E-02  0.78733298158E-02  0.51100000000E-03 0.  1.
</event>
<event>
 8    1  0.1123285E+005  0.1043930E+01  0.7957747E-01            NaN
         13   -1    0    0    0    0  0.00000000000E+00  0.00000000000E+00  0.74505805969E-08  0.10566000000E+00  0.10566000000E+00 0. -1.
     999900   -1    0    0    0    0 -0.00000000000E+00 -0.00000000000E+00 -0.74505805969E-08  0.93827000000E+00  0.93827000000E+00 0. -1.
     999902    2    1    2    0    0 -0.91655258078E-03 -0.22424225695E-01  0.57040011919E-02  0.10207735409E+01  0.10205108526E+01 0.  0.
     999903    2    3    3    0    0 -0.46678034548E-01  0.75554434892E-01  0.92517888182E-01  0.12991407832E+00  0.20755639501E-01 0.  0.
         14    1    1    2    0    0  0.91655258078E-03  0.22424225695E-01 -0.57040011919E-02  0.23156459061E-01  0.00000000000E+00 0. -1.
     999901    1    3    3    0    0  0.45761481967E-01 -0.97978660588E-01 -0.86813886990E-01  0.89085946262E+00  0.88000000000E+00 0. -1.
        -11    1    4    4    0    0 -0.41356980848E-01  0.56931575505E-01  0.62114484894E-01  0.93861997150E-01  0.51100000000E-03 0. -1.
         11    1    4    4    0    0 -0.53210536999E-02  0.18622859387E-01  0.30403403288E-01  0.36052081170E-01  0.51100000000E-03 0.  1.
</event>
<event>
 8    1  0.1123285E+005  0.1043930E+01  0.7957747E-01            NaN
         13   -1    0    0    0    0  0.00000000000E+00  0.00000000000E+00  0.74505805969E-08  0.10566000000E+00  0.10566000000E+00 0. -1.
     999900   -1    0    0    0    0 -0.00000000000E+00 -0.00000000000E+00 -0.74505805969E-08  0.93827000000E+00  0.93827000000E+00 0.  1.
     999902    2    1    2    0    0 -0.16282438436E-01  0.88948531900E-02  0.14095685124E-01  0.10206292585E+01  0.10203632484E+01 0.  0.
     999903    2    3    3    0    0 -0.27104862625E-01 -0.12522715412E+00  0.15994780837E-01  0.13039926336E+00  0.18210468544E-01 0.  0.
         14    1    1    2    0    0  0.16282438436E-01 -0.88948531900E-02 -0.14095685124E-01  0.23300741486E-01  0.00000000000E+00 0.  1.
     999901    1    3    3    0    0  0.10822424189E-01  0.13412200731E+00 -0.18990957128E-02  0.89022999516E+00  0.88000000000E+00 0. -1.
        -11    1    4    4    0    0 -0.12824747177E-01 -0.30205485642E-01 -0.91803340018E-03  0.32832139884E-01  0.51100000000E-03 0.  1.
         11    1    4    4    0    0 -0.14280115448E-01 -0.95021668474E-01  0.16912814237E-01  0.97567123475E-01  0.51100000000E-03 0. -1.
</event>
<event>
 8    1  0.1123285E+005  0.1043930E+01  0.7957747E-01            NaN
         13   -1    0    0    0    0  0.00000000000E+00  0.00000000000E+00  0.74505805969E-08  0.10566000000E+00  0.10566000000E+00 0. -1.
     999900   -1    0    0    0    0 -0.00000000000E+00 -0.00000000000E+00 -0.74505805969E-08  0.93827000000E+00  0.93827000000E+00 0. -1.
     999902    2    1    2    0    0 -0.15216837390E-02  0.79393100574E-03 -0.23729641702E-01  0.10201383682E+01  0.10198608967E+01 0.  0.
     999903    2    3    3    0    0  0.12239439844E+00 -0.13881290340E-01  0.34153506353E-01  0.12945266811E+00  0.20456106496E-01 0.  0.
         14    1    1    2    0    0  0.15216837390E-02 -0.79393100574E-03  0.23729641702E-01  0.23791631788E-01  0.00000000000E+00 0. -1.
     999901    1    3    3    0    0 -0.12391608218E+00  0.14675221345E-01 -0.57883148055E-01  0.89068570011E+00  0.88000000000E+00 0. -1.
        -11    1    4    4    0    0  0.23137418402E-01 -0.10329667199E-01  0.99297281469E-02  0.27219529328E-01  0.51100000000E-03 0. -1.
         11    1    4    4    0    0  0.99256980037E-01 -0.35516231406E-02  0.24223778206E-01  0.10223313878E+00  0.51100000000E-03 0.  1.
</event>
<event>
 8    1  0.1123285E+005  0.1043930E+01  0.7957747E-01            NaN
         13   -1    0    0    0    0  0.00000000000E+00  0.00000000000E+00  0.74505805969E-08  0.10566000000E+00  0.10566000000E+00 0.  1.
     999900   -1    0    0    0    0 -0.00000000000E+00 -0.00000000000E+00 -0.74505805969E-08  0.93827000000E+00  0.93827000000E+00 0. -1.
     999902    2    1    2    0    0  0.12852142218E-01 -0.17723580521E-01  0.96764540626E-02  0.10199939053E+01  0.10197130137E+01 0.  0.
     999903    2    3    3    0    0  0.80587517750E-01  0.52682571865E-01  0.86798558633E-01  0.13123469922E+00  0.20463506598E-01 0.  0.
         14    1    1    2    0    0 -0.12852142218E-01  0.17723580521E-01 -0.96764540626E-02  0.23936094696E-01  0.00000000000E+00 0. -1.
     999901    1    3    3    0    0 -0.67735375532E-01 -0.70406152386E-01 -0.77122104570E-01  0.88875920609E+00  0.88000000000E+00 0. -1.
        -11    1    4    4    0    0  0.17440677864E-01  0.20641879237E-01  0.17785794106E-01  0.32355216206E-01  0.51100000000E-03 0. -1.
         11    1    4    4    0    0  0.63146839886E-01  0.32040692629E-01  0.69012764527E-01  0.98879483010E-01  0.51100000000E-03 0.  1.
</event>
<event>
 8    1  0.1123285E+005  0.1043930E+01  0.7957747E-01            NaN
         13   -1    0    0    0    0  0.00000000000E+00  0.00000000000E+00  0.74505805969E-08  0.10566000000E+00  0.10566000000E+00 0. -1.
     999900   -1    0    0    0    0 -0.00000000000E+00 -0.00000000000E+00 -0.74505805969E-08  0.93827000000E+00  0.93827000000E+00 0.  1.
     999902    2    1    2    0    0  0.13267813785E-01 -0.70154954145E-02 -0.17713818396E-01  0.10207129498E+01  0.10204488691E+01 0.  0.
     999903    2    3    3    0    0 -0.11340848414E+00  0.23744280009E-02 -0.61243105118E-01  0.13052765788E+00  0.20484856950E-01 0.  0.
         14    1    1    2    0    0 -0.13267813785E-01  0.70154954145E-02  0.17713818396E-01  0.23217050216E-01  0.00000000000E+00 0. -1.
     999901    1    3    3    0    0  0.12667629793E+00 -0.93899234154E-02  0.43529286723E-01  0.89018529190E+00  0.88000000000E+00 0. -1.
        -11    1    4    4    0    0 -0.10386480989E+00  0.46683978652E-02 -0.49320235644E-01  0.11507579866E+00  0.51100000000E-03 0. -1.
         11    1    4    4    0    0 -0.95436742512E-02 -0.22939698643E-02 -0.11922869475E-01  0.15451859224E-01  0.51100000000E-03 0.  1.
</event>
<event>
 8    1  0.1123285E+005  0.1043930E+01  0.7957747E-01            NaN
         13   -1    0    0    0    0  0.00000000000E+00  0.00000000000E+00  0.74505805969E-08  0.10566000000E+00  0.10566000000E+00 0.  1.
     999900   -1    0    0    0    0 -0.00000000000E+00 -0.00000000000E+00 -0.74505805969E-08  0.93827000000E+00  0.93827000000E+00 0. -1.
     999902    2    1    2    0    0  0.10346333612E-01  0.16200988142E-01  0.13498560106E-01  0.10204410715E+01  0.10201706968E+01 0.  0.
     999903    2    3    3    0    0  0.12039445559E+00 -0.18456900356E-01  0.46950673292E-01  0.13227959845E+00  0.21401970329E-01 0.  0.
         14    1    1    2    0    0 -0.10346333612E-01 -0.16200988142E-01 -0.13498560106E-01  0.23488928475E-01  0.00000000000E+00 0. -1.
     999901    1    3    3    0    0 -0.11004812198E+00  0.34657888497E-01 -0.33452113186E-01  0.88816147308E+00  0.88000000000E+00 0. -1.
        -11    1    4    4    0    0  0.33008320036E-01 -0.13930645471E-01  0.18086367031E-01  0.40137138267E-01  0.51100000000E-03 0. -1.
         11    1    4    4    0    0  0.87386135557E-01 -0.45262548848E-02  0.28864306260E-01  0.92142460178E-01  0.51100000000E-03 0.  1.
</event>
<event>
 8    1  0.1123285E+005  0.1043930E+01  0.7957747E-01            NaN
         13   -1    0    0    0    0  0.00000000000E+00  0.00000000000E+00  0.74505805969E-08  0.10566000000E+00  0.10566000000E+00 0. -1.
     999900   -1    0    0    0    0 -0.00000000000E+00 -0.00000000000E+00 -0.74505805969E-08  0.93827000000E+00  0.93827000000E+00 0.  1.
     999902    2    1    2    0    0  0.21647166669E-01  0.64492280253E-03 -0.11058991488E-01  0.10196129886E+01  0.10193229760E+01 0.  0.
     999903    2    3    3    0    0 -0.97640383901E-01 -0.65612357416E-01  0.44479673279E-01  0.12736633539E+00  0.20127494650E-01 0.  0.
         14    1    1    2    0    0 -0.21647166669E-01 -0.64492280253E-03  0.11058991488E-01  0.24317011390E-01  0.00000000000E+00 0. -1.
     999901    1    3    3    0    0  0.11928755057E+00  0.66257280218E-01 -0.55538664768E-01  0.89224665322E+00  0.88000000000E+00 0.  1.
        -11    1    4    4    0    0 -0.78575730647E-01 -0.45156013915E-01  0.39915173438E-01  0.99028749518E-01  0.51100000000E-03 0. -1.
         11    1    4    4    0    0 -0.19064653254E-01 -0.20456343501E-01  0.45644998416E-02  0.28337585869E-01  0.51100000000E-03 0.  1.
</event>
<event>
 8    1  0.1123285E+005  0.1043930E+01  0.7957747E-01            NaN
         13   -1    0    0    0    0  0.00000000000E+00  0.00000000000E+00  0.74505805969E-08  0.10566000000E+00  0.10566000000E+00 0. -1.
     999900   -1    0    0    0    0 -0.00000000000E+00 -0.00000000000E+00 -0.74505805969E-08  0.93827000000E+00  0.93827000000E+00 0.  1.
     999902    2    1    2    0    0  0.15650933403E-01  0.16581977169E-01 -0.81441929862E-02  0.10197175742E+01  0.10194300808E+01 0.  0.
     999903    2    3    3    0    0  0.18456790642E-01  0.12889991210E+00  0.13033020341E-01  0.13232157146E+00  0.19578002782E-01 0.  0.
         14    1    1    2    0    0 -0.15650933403E-01 -0.16581977169E-01  0.81441929862E-02  0.24212425789E-01  0.00000000000E+00 0. -1.
     999901    1    3    3    0    0 -0.28058572390E-02 -0.11231793493E+00 -0.21177213328E-01  0.88739600276E+00  0.88000000000E+00 0.  1.
        -11    1    4    4    0    0  0.29670812158E-03  0.10506625931E-01  0.64907569020E-02  0.12363990874E-01  0.51100000000E-03 0.  1.
         11    1    4    4    0    0  0.18160082520E-01  0.11839328617E+00  0.65422634395E-02  0.11995758058E+00  0.51100000000E-03 0. -1.
</event>
<event>
 8    1  0.1123285E+005  0.1043930E+01  0.7957747E-01            NaN
         13   -1    0    0    0    0  0.00000000000E+00  0.00000000000E+00  0.74505805969E-08  0.10566000000E+00  0.10566000000E+00 0.  1.
     999900   -1    0    0    0    0 -0.00000000000E+00 -0.00000000000E+00 -0.74505805969E-08  0.93827000000E+00  0.93827000000E+00 0. -1.
     999902    2    1    2    0    0 -0.14658634188E-01  0.74360360088E-02 -0.16997565132E-01  0.10202849708E+01  0.10200109480E+01 0.  0.
     999903    2    3    3    0    0  0.70168640180E-01  0.88129415895E-01  0.60185103328E-01  0.12918214147E+00  0.19373874226E-01 0.  0.
         14    1    1    2    0    0  0.14658634188E-01 -0.74360360088E-02  0.16997565132E-01  0.23645029249E-01  0.00000000000E+00 0.  1.
     999901    1    3    3    0    0 -0.84827274368E-01 -0.80693379886E-01 -0.77182668460E-01  0.89110282928E+00  0.88000000000E+00 0. -1.
        -11    1    4    4    0    0  0.25233350970E-01  0.19721994679E-01  0.22051532584E-01  0.38887148078E-01  0.51100000000E-03 0. -1.
         11    1    4    4    0    0  0.44935289210E-01  0.68407421216E-01  0.38133570744E-01  0.90294993397E-01  0.51100000000E-03 0.  1.
</event>
<event>
 8    1  0.1123285E+005  0.1043930E+01  0.7957747E-01            NaN
         13   -1    0    0    0    0  0.00000000000E+00  0.00000000000E+00  0.74505805969E-08  0.10566000000E+00  0.10566000000E+00 0. -1.
     999900   -1    0    0    0    0 -0.00000000000E+00 -0.00000000000E+00 -0.74505805969E-08  0.93827000000E+00  0.93827000000E+00 0. -1.
     999902    2    1    2    0    0  0.24134116111E-02 -0.83129443450E-02  0.22539572766E-01  0.10197853952E+01  0.10194995294E+01 0.  0.
     999903    2    3    3    0    0  0.31404140820E-02 -0.21742918297E-01  0.12979860696E+00  0.13317082668E+00  0.20104079510E-01 0.  0.
         14    1    1    2    0    0 -0.24134116111E-02  0.83129443450E-02 -0.22539572766E-01  0.24144604775E-01  0.00000000000E+00 0.  1.
     999901    1    3    3    0    0 -0.72700247097E-03  0.13429973952E-01 -0.10725903420E+00  0.88661456854E+00  0.88000000000E+00 0. -1.
        -11    1    4    4    0    0  0.91748071573E-02 -0.18568921958E-01  0.11522764893E+00  0.11707542077E+00  0.51100000000E-03 0.  1.
         11    1    4    4    0    0 -0.60343930752E-02 -0.31739963391E-02  0.14570958037E-01  0.16095405918E-01  0.51100000000E-03 0. -1.
</event>
<event>
 8    1  0.1123285E+005  0.1043930E+01  0.7957747E-01            NaN
         13   -1    0    0    0    0  0.00000000000E+00  0.00000000000E+00  0.74505805969E-08  0.10566000000E+00  0.10566000000E+00 0.  1.
     999900   -1    0    0    0    0 -0.00000000000E+00 -0.00000000000E+00 -0.74505805969E-08  0.93827000000E+00  0.93827000000E+00 0.  1.
     999902    2    1    2    0    0 -0.10176454305E-01  0.14275987067E-01  0.15942358561E-01  0.10202335272E+01  0.10199582967E+01 0.  0.
     999903    2    3    3    0    0 -0.82552783394E-01  0.55069836455E-01  0.87051133667E-01  0.13346471339E+00  0.19679454123E-01 0.  0.
         14    1    1    2    0    0  0.10176454305E-01 -0.14275987067E-01 -0.15942358561E-01  0.23696472849E-01  0.00000000000E+00 0. -1.
     999901    1    3    3    0    0  0.72376329089E-01 -0.40793849387E-01 -0.71108775106E-01  0.88676881376E+00  0.88000000000E+00 0.  1.
        -11    1    4    4    0    0 -0.47369679116E-01  0.37984125043E-01  0.63242302879E-01  0.87672859251E-01  0.51100000000E-03 0. -1.
         11    1    4    4    0    0 -0.35183104278E-01  0.17085711412E-01  0.23808830789E-01  0.45791854140E-01  0.51100000000E-03 0.  1.
</event>
<event>
 8    1  0.1123285E+005  0.1043930E+01  0.7957747E-01            NaN
         13   -1    0    0    0    0  0.00000000000E+00  0.00000000000E+00  0.74505805969E-08  0.10566000000E+00  0.10566000000E+00 0. -1.
     999900   -1    0    0    0    0 -0.00000000000E+00 -0.00000000000E+00 -0.74505805969E-08  0.93827000000E+00  0.93827000000E+00 0.  1.
     999902    2    1    2    0    0  0.11546129253E-01 -0.12606917619E-01 -0.15872048038E-01  0.10206025616E+01  0.10203359346E+01 0.  0.
     999903    2    3    3    0    0 -0.92764135087E-01 -0.74561381508E-01 -0.52542880699E-01  0.13152228582E+00  0.19307329822E-01 0.  0.
         14    1    1    2    0    0 -0.11546129253E-01  0.12606917619E-01  0.15872048038E-01  0.23327438382E-01  0.00000000000E+00 0. -1.
     999901    1    3    3    0    0  0.10431026434E+00  0.61954463889E-01  0.36670832661E-01  0.88908027580E+00  0.88000000000E+00 0. -1.
        -11    1    4    4    0    0 -0.71864249751E-01 -0.47418614718E-01 -0.34044632124E-01  0.92586681070E-01  0.51100000000E-03 0.  1.
         11    1    4    4    0    0 -0.20899885336E-01 -0.27142766790E-01 -0.18498248574E-01  0.38935604752E-01  0.51100000000E-03 0. -1.
</event>
<event>
 8    1  0.1123285E+005  0.1043930E+01  0.7957747E-01            NaN
         13   -1    0    0    0    0  0.00000000000E+00  0.00000000000E+00  0.74505805969E-08  0.10566000000E+00  0.10566000000E+00 0. -1.
     999900   -1    0    0    0    0 -0.00000000000E+00 -0.00000000000E+00 -0.74505805969E-08  0.93827000000E+00  0.93827000000E+00 0. -1.
     999902    2    1    2    0    0  0.23289551939E-01  0.61399364561E-02 -0.23814756124E-03  0.10198435149E+01  0.10195590401E+01 0.  0.
     999903    2    3    3    0    0 -0.54225915507E-01 -0.56402913386E-01  0.10043002341E+00  0.12852183539E+00  0.17604943023E-01 0.  0.
         14    1    1    2    0    0 -0.23289551939E-01 -0.61399364561E-02  0.23814756124E-03  0.24086485079E-01  0.00000000000E+00 0.  1.
     999901    1    3    3    0    0  0.77515467446E-01  0.62542849842E-01 -0.10066817097E+00  0.89132167953E+00  0.88000000000E+00 0.  1.
        -11    1    4    4    0    0 -0.62311161100E-02 -0.31541717458E-03  0.98394826915E-02  0.11662025408E-01  0.51100000000E-03 0.  1.
         11    1    4    4    0    0 -0.47994799397E-01 -0.56087496211E-01  0.90590540716E-01  0.11685980998E+00  0.51100000000E-03 0. -1.
</event>
<event>
 8    1  0.1123285E+005  0.1043930E+01  0.7957747E-01            NaN
         13   -1    0    0    0    0  0.00000000000E+00  0.00000000000E+00  0.74505805969E-08  0.10566000000E+00  0.10566000000E+00 0.  1.
     999900   -1    0    0    0    0 -0.00000000000E+00 -0.00000000000E+00 -0.74505805969E-08  0.93827000000E+00  0.93827000000E+00 0.  1.
     999902    2    1    2    0    0 -0.41348771470E-02 -0.15705440607E-01  0.17281011166E-01  0.10202152067E+01  0.10199395456E+01 0.  0.
     999903    2    3    3    0    0  0.51494385241E-01 -0.11518274578E+00  0.36128717324E-01  0.13266487850E+00  0.19389407838E-01 0.  0.
         14    1    1    2    0    0  0.41348771470E-02  0.15705440607E-01 -0.17281011166E-01  0.23714793286E-01  0.00000000000E+00 0. -1.
     999901    1    3    3    0    0 -0.55629262388E-01  0.99477305173E-01 -0.18847706158E-01  0.88755032821E+00  0.88000000000E+00 0.  1.
        -11    1    4    4    0    0  0.12282065773E-01 -0.43490382198E-01  0.60947308681E-02  0.45603391856E-01  0.51100000000E-03 0. -1.
         11    1    4    4    0    0  0.39212319468E-01 -0.71692363581E-01  0.30033986456E-01  0.87061486648E-01  0.51100000000E-03 0.  1.
</event>
<event>
 8    1  0.1123285E+005  0.1043930E+01  0.7957747E-01            NaN
         13   -1    0    0    0    0  0.00000000000E+00  0.00000000000E+00  0.74505805969E-08  0.10566000000E+00  0.10566000000E+00 0. -1.
     999900   -1    0    0    0    0 -0.00000000000E+00 -0.00000000000E+00 -0.74505805969E-08  0.93827000000E+00  0.93827000000E+00 0.  1.
     999902    2    1    2    0    0 -0.20222002156E-01 -0.64557729859E-02 -0.99954643272E-02  0.10204669294E+01  0.10201971566E+01 0.  0.
     999903    2    3    3    0    0  0.45999077163E-01  0.10777340723E+00  0.49060720492E-01  0.12865911940E+00  0.20376268161E-01 0.  0.
         14    1    1    2    0    0  0.20222002156E-01  0.64557729859E-02  0.99954643272E-02  0.23463070625E-01  0.00000000000E+00 0. -1.
     999901    1    3    3    0    0 -0.66221079319E-01 -0.11422918022E+00 -0.59056184820E-01  0.89180780997E+00  0.88000000000E+00 0. -1.
        -11    1    4    4    0    0  0.47739854247E-01  0.98378449942E-01  0.44494711275E-01  0.11805699280E+00  0.51100000000E-03 0. -1.
         11    1    4    4    0    0 -0.17407770844E-02  0.93949572911E-02  0.45660092175E-02  0.10602126604E-01  0.51100000000E-03 0.  1.
</event>
<event>
 8    1  0.1123285E+005  0.1043930E+01  0.7957747E-01            NaN
         13   -1    0    0    0    0  0.00000000000E+00  0.00000000000E+00  0.74505805969E-08  0.10566000000E+00  0.10566000000E+00 0. -1.
     999900   -1    0    0    0    0 -0.00000000000E+00 -0.00000000000E+00 -0.74505805969E-08  0.93827000000E+00  0.93827000000E+00 0.  1.
     999902    2    1    2    0    0 -0.83093645985E-02  0.20519021270E-01 -0.82333752251E-02  0.10203108501E+01  0.10200374339E+01 0.  0.
     999903    2    3    3    0    0 -0.10854247308E+00  0.58804628121E-01 -0.45065456322E-01  0.13302900880E+00  0.20648706439E-01 0.  0.
         14    1    1    2    0    0  0.83093645985E-02 -0.20519021270E-01  0.82333752251E-02  0.23619149890E-01  0.00000000000E+00 0. -1.
     999901    1    3    3    0    0  0.10023310848E+00 -0.38285606850E-01  0.36832081097E-01  0.88728184131E+00  0.88000000000E+00 0.  1.
        -11    1    4    4    0    0 -0.47255044840E-01  0.35915304556E-01 -0.26632437651E-01  0.65057637680E-01  0.51100000000E-03 0.  1.
         11    1    4    4    0    0 -0.61287428237E-01  0.22889323565E-01 -0.18433018671E-01  0.67971371117E-01  0.51100000000E-03 0. -1.
</event>
<event>
 7    1  0.1123285E+005  0.1043930E+01  0.7957747E-01            NaN
         13   -1    0    0    0    0  0.00000000000E+00  0.00000000000E+00  0.74505805969E-08  0.10566000000E+00  0.10566000000E+00 0. -1.
     999900   -1    0    0    0    0 -0.00000000000E+00 -0.00000000000E+00 -0.74505805969E-08  0.93827000000E+00  0.93827000000E+00 0. -1.
     999903    2    1    2    0    0  0.34557396606E-01 -0.13945443260E-01  0.92139245624E-01  0.10135022248E+00  0.19837791347E-01 0.  0.
         14    1    1    2    0    0  0.23731499741E-01  0.50024489459E-01 -0.36240592638E-02  0.55486641916E-01  0.00000000000E+00 0.  1.
     999901    1    1    2    0    0 -0.58288896347E-01 -0.36079046199E-01 -0.88515186360E-01  0.88709313560E+00  0.88000000000E+00 0. -1.
        -11    1    3    3    0    0  0.14575918753E-01 -0.15458545765E-01  0.36850889966E-01  0.42540254548E-01  0.51100000000E-03 0. -1.
         11    1    3    3    0    0  0.19981477853E-01  0.15131025049E-02  0.55288355657E-01  0.58809967936E-01  0.51100000000E-03 0.  1.
</event>
<event>
 8    1  0.1123285E+005  0.1043930E+01  0.7957747E-01            NaN
         13   -1    0    0    0    0  0.00000000000E+00  0.00000000000E+00  0.74505805969E-08  0.10566000000E+00  0.10566000000E+00 0.  1.
     999900   -1    0    0    0    0 -0.00000000000E+00 -0.00000000000E+00 -0.74505805969E-08  0.93827000000E+00  0.93827000000E+00 0.  1.
     999902    2    1    2    0    0  0.10069736866E-01  0.15910772313E-01  0.13087638273E-01  0.10209988301E+01  0.10207412858E+01 0.  0.
     999903    2    3    3    0    0  0.87481448265E-02  0.99553389977E-01  0.87020520007E-01  0.13394533394E+00  0.19528801512E-01 0.  0.
         14    1    1    2    0    0 -0.10069736866E-01 -0.15910772313E-01 -0.13087638273E-01  0.22931169872E-01  0.00000000000E+00 0. -1.
     999901    1    3    3    0    0  0.13215920396E-02 -0.83642617665E-01 -0.73932881734E-01  0.88705349619E+00  0.88000000000E+00 0.  1.
        -11    1    4    4    0    0  0.14982690049E-01  0.69918524076E-01  0.62645571890E-01  0.95067396138E-01  0.51100000000E-03 0.  1.
         11    1    4    4    0    0 -0.62345452226E-02  0.29634865902E-01  0.24374948117E-01  0.38877937803E-01  0.51100000000E-03 0. -1.
</event>
<event>
 8    1  0.1123285E+005  0.1043930E+01  0.7957747E-01            NaN
         13   -1    0    0    0    0  0.00000000000E+00  0.00000000000E+00  0.74505805969E-08  0.10566000000E+00  0.10566000000E+00 0.  1.
     999900   -1    0    0    0    0 -0.00000000000E+00 -0.00000000000E+00 -0.74505805969E-08  0.93827000000E+00  0.93827000000E+00 0. -1.
     999902    2    1    2    0    0 -0.16195732285E-01 -0.41682818016E-02 -0.16614564988E-01  0.10203562840E+01  0.10200839309E+01 0.  0.
     999903    2    3    3    0    0  0.80250347624E-01  0.86043622116E-01  0.49217982893E-01  0.12807047870E+00  0.11662524317E-01 0.  0.
         14    1    1    2    0    0  0.16195732285E-01  0.41682818016E-02  0.16614564988E-01  0.23573716024E-01  0.00000000000E+00 0.  1.
     999901    1    3    3    0    0 -0.96446079909E-01 -0.90211903918E-01 -0.65832547881E-01  0.89228580528E+00  0.88000000000E+00 0. -1.
        -11    1    4    4    0    0  0.47211418819E-01  0.42623994782E-01  0.28602463826E-01  0.69742992881E-01  0.51100000000E-03 0.  1.
         11    1    4    4    0    0  0.33038928805E-01  0.43419627334E-01  0.20615519067E-01  0.58327485818E-01  0.51100000000E-03 0. -1.
</event>
<event>
 8    1  0.1123285E+005  0.1043930E+01  0.7957747E-01            NaN
         13   -1    0    0    0    0  0.00000000000E+00  0.00000000000E+00  0.74505805969E-08  0.10566000000E+00  0.10566000000E+00 0.  1.
     999900   -1    0    0    0    0 -0.00000000000E+00 -0.00000000000E+00 -0.74505805969E-08  0.93827000000E+00  0.93827000000E+00 0.  1.
     999902    2    1    2    0    0 -0.52766776085E-02  0.99047174467E-02 -0.21422435077E-01  0.10197459664E+01  0.10194591549E+01 0.  0.
     999903    2    3    3    0    0 -0.11581384724E+00 -0.55906130157E-01 -0.49064135199E-02  0.13023918598E+00  0.19995751275E-01 0.  0.
         14    1    1    2    0    0  0.52766776085E-02 -0.99047174467E-02  0.21422435077E-01  0.24184033553E-01  0.00000000000E+00 0.  1.
     999901    1    3    3    0    0  0.11053716963E+00  0.65810847604E-01 -0.16516021557E-01  0.88950678047E+00  0.88000000000E+00 0. -1.
        -11    1    4    4    0    0 -0.42031014230E-01 -0.31152912951E-01 -0.21993805434E-02  0.52366101042E-01  0.51100000000E-03 0. -1.
         11    1    4    4    0    0 -0.73782833009E-01 -0.24753217206E-01 -0.27070329765E-02  0.77873084936E-01  0.51100000000E-03 0.  1.
</event>
<event>
 8    1  0.1123285E+005  0.1043930E+01  0.7957747E-01            NaN
         13   -1    0    0    0    0  0.00000000000E+00  0.00000000000E+00  0.74505805969E-08  0.10566000000E+00  0.10566000000E+00 0. -1.
     999900   -1    0    0    0    0 -0.00000000000E+00 -0.00000000000E+00 -0.74505805969E-08  0.93827000000E+00  0.93827000000E+00 0. -1.
     999902    2    1    2    0    0  0.18783598552E-01  0.10917984243E-01 -0.97582269523E-02  0.10201130114E+01  0.10198349411E+01 0.  0.
     999903    2    3    3    0    0 -0.10344624991E+00 -0.11045982800E-02  0.73624136219E-01  0.12767965428E+00  0.13387827474E-01 0.  0.
         14    1    1    2    0    0 -0.18783598552E-01 -0.10917984243E-01  0.97582269523E-02  0.23816988637E-01  0.00000000000E+00 0.  1.
     999901    1    3    3    0    0  0.12222984847E+00  0.12022582523E-01 -0.83382363171E-01  0.89243335708E+00  0.88000000000E+00 0.  1.
        -11    1    4    4    0    0 -0.45481697613E-01 -0.61540675161E-02  0.28282610936E-01  0.53913120547E-01  0.51100000000E-03 0. -1.
         11    1    4    4    0    0 -0.57964552300E-01  0.50494692361E-02  0.45341525282E-01  0.73766533732E-01  0.51100000000E-03 0.  1.
</event>
<event>
 8    1  0.1123285E+005  0.1043930E+01  0.7957747E-01            NaN
         13   -1    0    0    0    0  0.00000000000E+00  0.00000000000E+00  0.74505805969E-08  0.10566000000E+00  0.10566000000E+00 0. -1.
     999900   -1    0    0    0    0 -0.00000000000E+00 -0.00000000000E+00 -0.74505805969E-08  0.93827000000E+00  0.93827000000E+00 0.  1.
     999902    2    1    2    0    0 -0.82916934968E-02 -0.15890302961E-01  0.16938893407E-01  0.10192686939E+01  0.10189703089E+01 0.  0.
     999903    2    3    3    0    0  0.85413899981E-01  0.89398921570E-01 -0.21983865879E-01  0.12720281054E+00  0.20237666904E-01 0.  0.
         14    1    1    2    0    0  0.82916934968E-02  0.15890302961E-01 -0.16938893407E-01  0.24661306111E-01  0.00000000000E+00 0.  1.
     999901    1    3    3    0    0 -0.93705593478E-01 -0.10528922453E+00  0.38922759286E-01  0.89206588335E+00  0.88000000000E+00 0.  1.
        -11    1    4    4    0    0  0.29220182801E-01  0.36396695881E-01 -0.17413154823E-01  0.49819851825E-01  0.51100000000E-03 0.  1.
         11    1    4    4    0    0  0.56193717180E-01  0.53002225688E-01 -0.45707110563E-02  0.77382958712E-01  0.51100000000E-03 0. -1.
</event>
<event>
 8    1  0.1123285E+005  0.1043930E+01  0.7957747E-01            NaN
         13   -1    0    0    0    0  0.00000000000E+00  0.00000000000E+00  0.74505805969E-08  0.10566000000E+00  0.10566000000E+00 0. -1.
     999900   -1    0    0    0    0 -0.00000000000E+00 -0.00000000000E+00 -0.74505805969E-08  0.93827000000E+00  0.93827000000E+00 0.  1.
     999902    2    1    2    0    0 -0.26110128042E-01  0.16691076969E-01  0.54778785230E-02  0.10124603640E+01  0.10119711709E+01 0.  0.
     999903    2    3    3    0    0 -0.43284987035E-01  0.81489849062E-01 -0.82819853237E-01  0.12550470216E+00  0.19445219728E-01 0.  0.
         14    1    1    2    0    0  0.26110128042E-01 -0.16691076969E-01 -0.54778785230E-02  0.31469635999E-01  0.00000000000E+00 0.  1.
     999901    1    3    3    0    0  0.17174858992E-01 -0.64798772092E-01  0.88297731760E-01  0.88695566185E+00  0.88000000000E+00 0. -1.
        -11    1    4    4    0    0 -0.80277715404E-02  0.12695695140E-01 -0.50630711196E-02  0.15859432561E-01  0.51100000000E-03 0.  1.
         11    1    4    4    0    0 -0.35257215494E-01  0.68794153922E-01 -0.77756782118E-01  0.10964526959E+00  0.51100000000E-03 0. -1.
</event>
<event>
 8    1  0.1123285E+005  0.1043930E+01  0.7957747E-01            NaN
         13   -1    0    0    0    0  0.00000000000E+00  0.00000000000E+00  0.74505805969E-08  0.10566000000E+00  0.10566000000E+00 0. -1.
     999900   -1    0    0    0    0 -0.00000000000E+00 -0.00000000000E+00 -0.74505805969E-08  0.93827000000E+00  0.93827000000E+00 0.  1.
     999902    2    1    2    0    0  0.11474278007E-03  0.20273748405E-01  0.12076502775E-01  0.10203316958E+01  0.10200587677E+01 0.  0.
     999903    2    3    3    0    0 -0.10125683567E+00  0.41048681759E-01 -0.68784114248E-01  0.13058665698E+00  0.19587740186E-01 0.  0.
         14    1    1    2    0    0 -0.11474278007E-03 -0.20273748405E-01 -0.12076502775E-01  0.23598304167E-01  0.00000000000E+00 0.  1.
     999901    1    3    3    0    0  0.10137157845E+00 -0.20774933354E-01  0.80860617023E-01  0.88974503885E+00  0.88000000000E+00 0. -1.
        -11    1    4    4    0    0 -0.60855417844E-01  0.34622985380E-01 -0.45692873159E-01  0.83607611951E-01  0.51100000000E-03 0.  1.
         11    1    4    4    0    0 -0.40401417824E-01  0.64256963784E-02 -0.23091241088E-01  0.46979045032E-01  0.51100000000E-03 0. -1.
</event>
<event>
 8    1  0.1123285E+005  0.1043930E+01  0.7957747E-01            NaN
         13   -1    0    0    0    0  0.00000000000E+00  0.00000000000E+00  0.74505805969E-08  0.10566000000E+00  0.10566000000E+00 0.  1.
     999900   -1    0    0    0    0 -0.00000000000E+00 -0.00000000000E+00 -0.74505805969E-08  0.93827000000E+00  0.93827000000E+00 0.  1.
     999902    2    1    2    0    0 -0.12042085695E-01 -0.21376453380E-01 -0.12495985254E-02  0.10193632321E+01  0.10190671582E+01 0.  0.
     999903    2    3    3    0    0  0.14177429351E-01  0.12477754528E+00 -0.97681029019E-02  0.12688296949E+00  0.15278638742E-01 0.  0.
         14    1    1    2    0    0  0.12042085695E-01  0.21376453380E-01  0.12495985254E-02  0.24566767868E-01  0.00000000000E+00 0. -1.
     999901    1    3    3    0    0 -0.26219515047E-01 -0.14615399866E+00  0.85185043765E-02  0.89248026265E+00  0.88000000000E+00 0. -1.
        -11    1    4    4    0    0  0.11573963906E-01  0.42848258786E-01 -0.63575085463E-02  0.44839814422E-01  0.51100000000E-03 0. -1.
         11    1    4    4    0    0  0.26034654450E-02  0.81929286496E-01 -0.34105943556E-02  0.82043155065E-01  0.51100000000E-03 0.  1.
</event>
<event>
 8    1  0.1123285E+005  0.1043930E+01  0.7957747E-01            NaN
         13   -1    0    0    0    0  0.00000000000E+00  0.00000000000E+00  0.74505805969E-08  0.10566000000E+00  0.10566000000E+00 0.  1.
     999900   -1    0    0    0    0 -0.00000000000E+00 -0.00000000000E+00 -0.74505805969E-08  0.93827000000E+00  0.93827000000E+00 0.  1.
     999902    2    1    2    0    0  0.32169923679E-02  0.24118042780E-02 -0.24815229390E-01  0.10187911566E+01  0.10184809567E+01 0.  0.
     999903    2    3    3    0    0 -0.89128279842E-01  0.83575459438E-01  0.33474903087E-01  0.12833457269E+00  0.20505748523E-01 0.  0.
         14    1    1    2    0    0 -0.32169923679E-02 -0.24118042780E-02  0.24815229390E-01  0.25138843439E-01  0.00000000000E+00 0.  1.
     999901    1    3    3    0    0  0.92345272210E-01 -0.81163655160E-01 -0.58290132477E-01  0.89045658387E+00  0.88000000000E+00 0.  1.
        -11    1    4    4    0    0 -0.73254971473E-01  0.57318675848E-01  0.28212355231E-01  0.97200409234E-01  0.51100000000E-03 0. -1.
         11    1    4    4    0    0 -0.15873308369E-01  0.26256783590E-01  0.52625478562E-02  0.31134163455E-01  0.51100000000E-03 0.  1.
</event>
<event>
 8    1  0.1123285E+005  0.1043930E+01  0.7957747E-01            NaN
         13   -1    0    0    0    0  0.00000000000E+00  0.00000000000E+00  0.74505805969E-08  0.10566000000E+00  0.10566000000E+00 0. -1.
     999900   -1    0    0    0    0 -0.00000000000E+00 -0.00000000000E+00 -0.74505805969E-08  0.93827000000E+00  0.93827000000E+00 0. -1.
     999902    2    1    2    0    0  0.16276380541E-01  0.17287854883E-01 -0.36118472680E-02  0.10199125911E+01  0.10196297649E+01 0.  0.
     999903    2    3    3    0    0  0.57595411029E-01  0.87803741062E-01 -0.79025182434E-01  0.13291376155E+00  0.19858505364E-01 0.  0.
         14    1    1    2    0    0 -0.16276380541E-01 -0.17287854883E-01  0.36118472680E-02  0.24017408908E-01  0.00000000000E+00 0. -1.
     999901    1    3    3    0    0 -0.41319030488E-01 -0.70515886179E-01  0.75413335166E-01  0.88699882954E+00  0.88000000000E+00 0.  1.
        -11    1    4    4    0    0  0.22723679413E-01  0.18581618100E-01 -0.21686727076E-01  0.36499553279E-01  0.51100000000E-03 0.  1.
         11    1    4    4    0    0  0.34871731617E-01  0.69222122962E-01 -0.57338455357E-01  0.96414208274E-01  0.51100000000E-03 0. -1.
</event>
<event>
 8    1  0.1123285E+005  0.1043930E+01  0.7957747E-01            NaN
         13   -1    0    0    0    0  0.00000000000E+00  0.00000000000E+00  0.74505805969E-08  0.10566000000E+00  0.10566000000E+00 0.  1.
     999900   -1    0    0    0    0 -0.00000000000E+00 -0.00000000000E+00 -0.74505805969E-08  0.93827000000E+00  0.93827000000E+00 0. -1.
     999902    2    1    2    0    0  0.19350749261E-01 -0.17397780095E-01  0.49234056174E-02  0.10174465302E+01  0.10171017981E+01 0.  0.
     999903    2    3    3    0    0  0.92531944857E-01 -0.74809035856E-01  0.51945859385E-01  0.13129606283E+00  0.19537941124E-01 0.  0.
         14    1    1    2    0    0 -0.19350749261E-01  0.17397780095E-01 -0.49234056174E-02  0.26483469789E-01  0.00000000000E+00 0. -1.
     999901    1    3    3    0    0 -0.73181195596E-01  0.57411255761E-01 -0.47022453768E-01  0.88615046738E+00  0.88000000000E+00 0. -1.
        -11    1    4    4    0    0  0.48359523749E-03 -0.49318843420E-02  0.27741869340E-02  0.57021558784E-02  0.51100000000E-03 0. -1.
         11    1    4    4    0    0  0.92048349619E-01 -0.69877151514E-01  0.49171672451E-01  0.12559390695E+00  0.51100000000E-03 0.  1.
</event>
<event>
 8    1  0.1123285E+005  0.1043930E+01  0.7957747E-01            NaN
         13   -1    0    0    0    0  0.00000000000E+00  0.00000000000E+00  0.74505805969E-08  0.10566000000E+00  0.10566000000E+00 0.  1.
     999900   -1    0    0    0    0 -0.00000000000E+00 -0.00000000000E+00 -0.74505805969E-08  0.93827000000E+00  0.93827000000E+00 0. -1.
     999902    2    1    2    0    0 -0.33964415371E-02  0.19755408057E-01 -0.12397446572E-01  0.10203607691E+01  0.10200885209E+01 0.  0.
     999903    2    3    3    0    0 -0.12270725868E+00 -0.29497680010E-01 -0.27900979596E-01  0.13080959167E+00  0.20137034350E-01 0.  0.
         14    1    1    2    0    0  0.33964415371E-02 -0.19755408057E-01  0.12397446572E-01  0.23569230877E-01  0.00000000000E+00 0.  1.
     999901    1    3    3    0    0  0.11931081714E+00  0.49253088067E-01  0.15503533024E-01  0.88955117745E+00  0.88000000000E+00 0. -1.
        -11    1    4    4    0    0 -0.48976418403E-02  0.10168270785E-02 -0.47734677743E-02  0.69331052563E-02  0.51100000000E-03 0.  1.
         11    1    4    4    0    0 -0.11780961684E+00 -0.30514507089E-01 -0.23127511821E-01  0.12387648641E+00  0.51100000000E-03 0. -1.
</event>
<event>
 8    1  0.1123285E+005  0.1043930E+01  0.7957747E-01            NaN
         13   -1    0    0    0    0  0.00000000000E+00  0.00000000000E+00  0.74505805969E-08  0.10566000000E+00  0.10566000000E+00 0.  1.
     999900   -1    0    0    0    0 -0.00000000000E+00 -0.00000000000E+00 -0.74505805969E-08  0.93827000000E+00  0.93827000000E+00 0.  1.
     999902    2    1    2    0    0 -0.23142355897E-01  0.70309860585E-02  0.12168472392E-03  0.10197428503E+01  0.10194559640E+01 0.  0.
     999903    2    3    3    0    0  0.58672979468E-01 -0.60567303424E-01 -0.94607560896E-01  0.12831876057E+00  0.20104650529E-01 0.  0.
         14    1    1    2    0    0  0.23142355897E-01 -0.70309860585E-02 -0.12168472392E-03  0.24187149658E-01  0.00000000000E+00 0. -1.
     999901    1    3    3    0    0 -0.81815335365E-01  0.67598289482E-01  0.94729245620E-01  0.89142408977E+00  0.88000000000E+00 0. -1.
        -11    1    4    4    0    0  0.26386677739E-01 -0.36143948531E-01 -0.37924540283E-01  0.58661517661E-01  0.51100000000E-03 0. -1.
         11    1    4    4    0    0  0.32286301729E-01 -0.24423354892E-01 -0.56683020613E-01  0.69657242913E-01  0.51100000000E-03 0.  1.
</event>
<event>
 8    1  0.1123285E+005  0.1043930E+01  0.7957747E-01            NaN
         13   -1    0    0    0    0  0.00000000000E+00  0.00000000000E+00  0.74505805969E-08  0.10566000000E+00  0.10566000000E+00 0.  1.
     999900   -1    0    0    0    0 -0.00000000000E+00 -0.00000000000E+00 -0.74505805969E-08  0.93827000000E+00  0.93827000000E+00 0.  1.
     999902    2    1    2    0    0  0.14737859381E-01 -0.22593453577E-02 -0.20426539329E-01  0.10186406218E+01  0.10183266488E+01 0.  0.
     999903    2    3    3    0    0 -0.14297570920E-01  0.36709658778E-01 -0.12360736490E+00  0.13128053578E+00  0.20094248812E-01 0.  0.
         14    1    1    2    0    0 -0.14737859381E-01  0.22593453577E-02  0.20426539329E-01  0.25289378196E-01  0.00000000000E+00 0.  1.
     999901    1    3    3    0    0  0.29035430302E-01 -0.38969004136E-01  0.10318082557E+00  0.88736008602E+00  0.88000000000E+00 0. -1.
        -11    1    4    4    0    0  0.48979282815E-02  0.75978091194E-02 -0.32114450032E-01  0.33366381684E-01  0.51100000000E-03 0. -1.
         11    1    4    4    0    0 -0.19195499202E-01  0.29111849658E-01 -0.91492914872E-01  0.97914154099E-01  0.51100000000E-03 0.  1.
</event>
<event>
 8    1  0.1123285E+005  0.1043930E+01  0.7957747E-01            NaN
         13   -1    0    0    0    0  0.00000000000E+00  0.00000000000E+00  0.74505805969E-08  0.10566000000E+00  0.10566000000E+00 0. -1.
     999900   -1    0    0    0    0 -0.00000000000E+00 -0.00000000000E+00 -0.74505805969E-08  0.93827000000E+00  0.93827000000E+00 0.  1.
     999902    2    1    2    0    0 -0.15268981447E-01  0.11950386626E-01 -0.13538411093E-01  0.10202816996E+01  0.10200076002E+01 0.  0.
     999903    2    3    3    0    0 -0.69533980929E-02  0.11927732127E+00  0.50921962329E-01  0.13138161551E+00  0.19815487173E-01 0.  0.
         14    1    1    2    0    0  0.15268981447E-01 -0.11950386626E-01  0.13538411093E-01  0.23648300359E-01  0.00000000000E+00 0. -1.
     999901    1    3    3    0    0 -0.83155833540E-02 -0.10732693465E+00 -0.64460373422E-01  0.88890008413E+00  0.88000000000E+00 0.  1.
        -11    1    4    4    0    0  0.19632651029E-02  0.59028878917E-01  0.34073155706E-01  0.68187271663E-01  0.51100000000E-03 0. -1.
         11    1    4    4    0    0 -0.89166631958E-02  0.60248442354E-01  0.16848806623E-01  0.63194343847E-01  0.51100000000E-03 0.  1.
</event>
<event>
 8    1  0.1123285E+005  0.1043930E+01  0.7957747E-01            NaN
         13   -1    0    0    0    0  0.00000000000E+00  0.00000000000E+00  0.74505805969E-08  0.10566000000E+00  0.10566000000E+00 0.  1.
     999900   -1    0    0    0    0 -0.00000000000E+00 -0.00000000000E+00 -0.74505805969E-08  0.93827000000E+00  0.93827000000E+00 0.  1.
     999902    2    1    2    0    0 -0.20333995022E-01 -0.11750177704E-01 -0.34535960723E-02  0.10201925748E+01  0.10199163810E+01 0.  0.
     999903    2    3    3    0    0 -0.71321868837E-01  0.42857152826E-01  0.99260429469E-01  0.13107396917E+00  0.20104925085E-01 0.  0.
         14    1    1    2    0    0  0.20333995022E-01  0.11750177704E-01  0.34535960723E-02  0.23737425207E-01  0.00000000000E+00 0. -1.
     999901    1    3    3    0    0  0.50987873815E-01 -0.54607330530E-01 -0.10271402554E+00  0.88911860562E+00  0.88000000000E+00 0.  1.
        -11    1    4    4    0    0 -0.18737187821E-01  0.21329629132E-01  0.27373653178E-01  0.39441263870E-01  0.51100000000E-03 0.  1.
         11    1    4    4    0    0 -0.52584681016E-01  0.21527523693E-01  0.71886776291E-01  0.91632705300E-01  0.51100000000E-03 0. -1.
</event>
<event>
 8    1  0.1123285E+005  0.1043930E+01  0.7957747E-01            NaN
         13   -1    0    0    0    0  0.00000000000E+00  0.00000000000E+00  0.74505805969E-08  0.10566000000E+00  0.10566000000E+00 0. -1.
     999900   -1    0    0    0    0 -0.00000000000E+00 -0.00000000000E+00 -0.74505805969E-08  0.93827000000E+00  0.93827000000E+00 0.  1.
     999902    2    1    2    0    0  0.18343133015E-01 -0.12029310223E-02  0.14904043046E-01  0.10202646652E+01  0.10199901661E+01 0.  0.
     999903    2    3    3    0    0 -0.90775158883E-02 -0.10327543783E+00  0.78553814441E-01  0.13165790064E+00  0.20368693705E-01 0.  0.
         14    1    1    2    0    0 -0.18343133015E-01  0.12029310223E-02 -0.14904043046E-01  0.23665334795E-01  0.00000000000E+00 0.  1.
     999901    1    3    3    0    0  0.27420648903E-01  0.10207250681E+00 -0.63649771395E-01  0.88860676457E+00  0.88000000000E+00 0.  1.
        -11    1    4    4    0    0 -0.22729039404E-02 -0.85442933723E-01  0.71028535826E-01  0.11113494067E+00  0.51100000000E-03 0.  1.
         11    1    4    4    0    0 -0.68046119479E-02 -0.17832504110E-01  0.75252786146E-02  0.20522959968E-01  0.51100000000E-03 0. -1.
</event>
<event>
 8    1  0.1123285E+005  0.1043930E+01  0.7957747E-01            NaN
         13   -1    0    0    0    0  0.00000000000E+00  0.00000000000E+00  0.74505805969E-08  0.10566000000E+00  0.10566000000E+00 0.  1.
     999900   -1    0    0    0    0 -0.00000000000E+00 -0.00000000000E+00 -0.74505805969E-08  0.93827000000E+00  0.93827000000E+00 0. -1.
     999902    2    1    2    0    0  0.31289930225E-02  0.25116180488E-01  0.53835698135E-02  0.10180534480E+01  0.10177245340E+01 0.  0.
     999903    2    3    3    0    0 -0.12597971314E-01 -0.53967041776E-01  0.11325866801E+00  0.12780711677E+00  0.20880199649E-01 0.  0.
         14    1    1    2    0    0 -0.31289930225E-02 -0.25116180488E-01 -0.53835698135E-02  0.25876552003E-01  0.00000000000E+00 0. -1.
     999901    1    3    3    0    0  0.15726964336E-01  0.79083222264E-01 -0.10787509820E+00  0.89024633123E+00  0.88000000000E+00 0. -1.
        -11    1    4    4    0    0 -0.37137960835E-02 -0.45915156040E-01  0.78310898046E-01  0.90856214478E-01  0.51100000000E-03 0. -1.
         11    1    4    4    0    0 -0.88841752300E-02 -0.80518857364E-02  0.34947769969E-01  0.36950902292E-01  0.51100000000E-03 0.  1.
</event>
<event>
 8    1  0.1123285E+005  0.1043930E+01  0.7957747E-01            NaN
         13   -1    0    0    0    0  0.00000000000E+00  0.00000000000E+00  0.74505805969E-08  0.10566000000E+00  0.10566000000E+00 0.  1.
     999900   -1    0    0    0    0 -0.00000000000E+00 -0.00000000000E+00 -0.74505805969E-08  0.93827000000E+00  0.93827000000E+00 0. -1.
     999902    2    1    2    0    0 -0.18832430119E-01 -0.37332178842E-03 -0.23348645171E-01  0.10139306829E+01  0.10134867886E+01 0.  0.
     999903    2    3    3    0    0 -0.86518025526E-01  0.89415743700E-01  0.85154448292E-02  0.12620395902E+00  0.19348966644E-01 0.  0.
         14    1    1    2    0    0  0.18832430119E-01  0.37332178842E-03  0.23348645171E-01  0.29999317070E-01  0.00000000000E+00 0.  1.
     999901    1    3    3    0    0  0.67685595407E-01 -0.89789065488E-01 -0.31864090000E-01  0.88772672391E+00  0.88000000000E+00 0. -1.
        -11    1    4    4    0    0 -0.78631953955E-01  0.73490482309E-01  0.11253361818E-01  0.10821614688E+00  0.51100000000E-03 0.  1.
         11    1    4    4    0    0 -0.78860715705E-02  0.15925261391E-01 -0.27379169884E-02  0.17987812141E-01  0.51100000000E-03 0. -1.
</event>
<event>
 8    1  0.1123285E+005  0.1043930E+01  0.7957747E-01            NaN
         13   -1    0    0    0    0  0.00000000000E+00  0.00000000000E+00  0.74505805969E-08  0.10566000000E+00  0.10566000000E+00 0.  1.
     999900   -1    0    0    0    0 -0.00000000000E+00 -0.00000000000E+00 -0.74505805969E-08  0.93827000000E+00  0.93827000000E+00 0.  1.
     999902    2    1    2    0    0  0.40188830528E-02  0.13343864788E-01  0.12464239291E-01  0.10252332781E+01  0.10250627820E+01 0.  0.
     999903    2    3    3    0    0  0.52611537518E-01 -0.46580721895E-01  0.11412313886E+00  0.13602760223E+00  0.23274024420E-01 0.  0.
         14    1    1    2    0    0 -0.40188830528E-02 -0.13343864788E-01 -0.12464239291E-01  0.18696721894E-01  0.00000000000E+00 0. -1.
     999901    1    3    3    0    0 -0.48592654465E-01  0.59924586683E-01 -0.10165889956E+00  0.88920567588E+00  0.88000000000E+00 0.  1.
        -11    1    4    4    0    0  0.15433233977E-01 -0.28734115715E-01  0.54862171540E-01  0.63827526225E-01  0.51100000000E-03 0. -1.
         11    1    4    4    0    0  0.37178303540E-01 -0.17846606179E-01  0.59260967316E-01  0.72200076000E-01  0.51100000000E-03 0.  1.
</event>
<event>
 7    1  0.1123285E+005  0.1043930E+01  0.7957747E-01            NaN
         13   -1    0    0    0    0  0.00000000000E+00  0.00000000000E+00  0.74505805969E-08  0.10566000000E+00  0.10566000000E+00 0. -1.
     999900   -1    0    0    0    0 -0.00000000000E+00 -0.00000000000E+00 -0.74505805969E-08  0.93827000000E+00  0.93827000000E+00 0.  1.
     999903    2    1    2    0    0  0.88161589192E-01 -0.64569873539E-01  0.13349221649E-01  0.11256324004E+00  0.23463736106E-01 0.  0.
         14    1    1    2    0    0  0.11836869688E-02  0.46328367943E-01 -0.50298266609E-02  0.46615640587E-01  0.00000000000E+00 0.  1.
     999901    1    1    2    0    0 -0.89345276161E-01  0.18241505596E-01 -0.83193949885E-02  0.88475111937E+00  0.88000000000E+00 0.  1.
        -11    1    3    3    0    0  0.53831808263E-01 -0.43292647750E-01  0.19318032031E-01  0.71732589613E-01  0.51100000000E-03 0.  1.
         11    1    3    3    0    0  0.34329780929E-01 -0.21277225788E-01 -0.59688103820E-02  0.40830650427E-01  0.51100000000E-03 0. -1.
</event>
<event>
 8    1  0.1123285E+005  0.1043930E+01  0.7957747E-01            NaN
         13   -1    0    0    0    0  0.00000000000E+00  0.00000000000E+00  0.74505805969E-08  0.10566000000E+00  0.10566000000E+00 0.  1.
     999900   -1    0    0    0    0 -0.00000000000E+00 -0.00000000000E+00 -0.74505805969E-08  0.93827000000E+00  0.93827000000E+00 0. -1.
     999902    2    1    2    0    0 -0.19605713193E-01  0.28462209599E-02  0.12457315920E-01  0.10205276565E+01  0.10202592944E+01 0.  0.
     999903    2    3    3    0    0 -0.81459523246E-01  0.98328615379E-01  0.31713454555E-01  0.13299535826E+00  0.19438404996E-01 0.  0.
         14    1    1    2    0    0  0.19605713193E-01 -0.28462209599E-02 -0.12457315920E-01  0.23402343547E-01  0.00000000000E+00 0. -1.
     999901    1    3    3    0    0  0.61853810053E-01 -0.95482394419E-01 -0.19256138635E-01  0.88753229819E+00  0.88000000000E+00 0. -1.
        -11    1    4    4    0    0 -0.28627595084E-01  0.21603094235E-01  0.61176373015E-02  0.36385704445E-01  0.51100000000E-03 0. -1.
         11    1    4    4    0    0 -0.52831928162E-01  0.76725521144E-01  0.25595817254E-01  0.96609653814E-01  0.51100000000E-03 0.  1.
</event>
<event>
 8    1  0.1123285E+005  0.1043930E+01  0.7957747E-01            NaN
         13   -1    0    0    0    0  0.00000000000E+00  0.00000000000E+00  0.74505805969E-08  0.10566000000E+00  0.10566000000E+00 0. -1.
     999900   -1    0    0    0    0 -0.00000000000E+00 -0.00000000000E+00 -0.74505805969E-08  0.93827000000E+00  0.93827000000E+00 0.  1.
     999902    2    1    2    0    0 -0.16565821729E-01 -0.16223162620E-01  0.36502086402E-02  0.10204578574E+01  0.10201878735E+01 0.  0.
     999903    2    3    3    0    0  0.10878316400E+00 -0.55953224795E-01 -0.38777527755E-01  0.12967676259E+00  0.18650092848E-01 0.  0.
         14    1    1    2    0    0  0.16565821729E-01  0.16223162620E-01 -0.36502086402E-02  0.23472142597E-01  0.00000000000E+00 0. -1.
     999901    1    3    3    0    0 -0.12534898572E+00  0.39730062175E-01  0.42427736395E-01  0.89078109481E+00  0.88000000000E+00 0. -1.
        -11    1    4    4    0    0  0.31533785244E-01 -0.11060937181E-01 -0.17937184587E-01  0.37930563600E-01  0.51100000000E-03 0.  1.
         11    1    4    4    0    0  0.77249378751E-01 -0.44892287614E-01 -0.20840343168E-01  0.91746198989E-01  0.51100000000E-03 0. -1.
</event>
<event>
 8    1  0.1123285E+005  0.1043930E+01  0.7957747E-01            NaN
         13   -1    0    0    0    0  0.00000000000E+00  0.00000000000E+00  0.74505805969E-08  0.10566000000E+00  0.10566000000E+00 0.  1.
     999900   -1    0    0    0    0 -0.00000000000E+00 -0.00000000000E+00 -0.74505805969E-08  0.93827000000E+00  0.93827000000E+00 0.  1.
     999902    2    1    2    0    0  0.13829671500E-01  0.78487601833E-02 -0.14478377438E-01  0.10224245062E+01  0.10221983098E+01 0.  0.
     999903    2    3    3    0    0 -0.11873832236E+00 -0.46169709980E-01  0.24211001052E-02  0.13069704758E+00  0.29076196546E-01 0.  0.
         14    1    1    2    0    0 -0.13829671500E-01 -0.78487601833E-02  0.14478377438E-01  0.21505493797E-01  0.00000000000E+00 0.  1.
     999901    1    3    3    0    0  0.13256799386E+00  0.54018470163E-01 -0.16899477543E-01  0.89172745862E+00  0.88000000000E+00 0. -1.
        -11    1    4    4    0    0 -0.39378844205E-01 -0.26251147650E-01 -0.86991043674E-02  0.48122257445E-01  0.51100000000E-03 0. -1.
         11    1    4    4    0    0 -0.79359478153E-01 -0.19918562330E-01  0.11120204473E-01  0.82574790139E-01  0.51100000000E-03 0.  1.
</event>
<event>
 8    1  0.1123285E+005  0.1043930E+01  0.7957747E-01            NaN
         13   -1    0    0    0    0  0.00000000000E+00  0.00000000000E+00  0.74505805969E-08  0.10566000000E+00  0.10566000000E+00 0. -1.
     999900   -1    0    0    0    0 -0.00000000000E+00 -0.00000000000E+00 -0.74505805969E-08  0.93827000000E+00  0.93827000000E+00 0.  1.
     999902    2    1    2    0    0 -0.28105292816E-02 -0.19885175164E-01  0.12491762850E-01  0.10202791352E+01  0.10200049756E+01 0.  0.
     999903    2    3    3    0    0  0.39440170639E-01  0.10660444946E+00  0.56429389275E-01  0.12914768486E+00  0.23975254460E-01 0.  0.
         14    1    1    2    0    0  0.28105292816E-02  0.19885175164E-01 -0.12491762850E-01  0.23650864789E-01  0.00000000000E+00 0. -1.
     999901    1    3    3    0    0 -0.42250699921E-01 -0.12648962463E+00 -0.43937626425E-01  0.89113145035E+00  0.88000000000E+00 0. -1.
        -11    1    4    4    0    0  0.10674966914E-02  0.34073460574E-01  0.15602633787E-01  0.37494580499E-01  0.51100000000E-03 0.  1.
         11    1    4    4    0    0  0.38372673948E-01  0.72530988889E-01  0.40826755488E-01  0.91653104365E-01  0.51100000000E-03 0. -1.
</event>
<event>
 8    1  0.1123285E+005  0.1043930E+01  0.7957747E-01            NaN
         13   -1    0    0    0    0  0.00000000000E+00  0.00000000000E+00  0.74505805969E-08  0.10566000000E+00  0.10566000000E+00 0. -1.
     999900   -1    0    0    0    0 -0.00000000000E+00 -0.00000000000E+00 -0.74505805969E-08  0.93827000000E+00  0.93827000000E+00 0. -1.
     999902    2    1    2    0    0  0.20876901720E-01  0.15077603072E-01 -0.13297296248E-01  0.10149472943E+01  0.10145333967E+01 0.  0.
     999903    2    3    3    0    0 -0.71978587855E-01  0.69921622943E-01  0.70830678994E-01  0.12438144912E+00  0.19591052374E-01 0.  0.
         14    1    1    2    0    0 -0.20876901720E-01 -0.15077603072E-01  0.13297296248E-01  0.28982705660E-01  0.00000000000E+00 0. -1.
     999901    1    3    3    0    0  0.92855489575E-01 -0.54844019871E-01 -0.84127975243E-01  0.89056584522E+00  0.88000000000E+00 0. -1.
        -11    1    4    4    0    0 -0.48457499437E-01  0.39377454567E-01  0.34171722810E-01  0.71180621947E-01  0.51100000000E-03 0. -1.
         11    1    4    4    0    0 -0.23521088418E-01  0.30544168376E-01  0.36658956184E-01  0.53200827170E-01  0.51100000000E-03 0.  1.
</event>
<event>
 8    1  0.1123285E+005  0.1043930E+01  0.7957747E-01            NaN
         13   -1    0    0    0    0  0.00000000000E+00  0.00000000000E+00  0.74505805969E-08  0.10566000000E+00  0.10566000000E+00 0. -1.
     999900   -1    0    0    0    0 -0.00000000000E+00 -0.00000000000E+00 -0.74505805969E-08  0.93827000000E+00  0.93827000000E+00 0. -1.
     999902    2    1    2    0    0  0.11392352642E-01  0.13868126395E-02  0.20316391325E-01  0.10205962325E+01  0.10203294591E+01 0.  0.
     999903    2    3    3    0    0  0.27352921681E-01  0.10971441666E+00 -0.62208633092E-01  0.12997847545E+00  0.15461387456E-01 0.  0.
         14    1    1    2    0    0 -0.11392352642E-01 -0.13868126395E-02 -0.20316391325E-01  0.23333767473E-01  0.00000000000E+00 0.  1.
     999901    1    3    3    0    0 -0.15960569040E-01 -0.10832760402E+00  0.82525024417E-01  0.89061775707E+00  0.88000000000E+00 0.  1.
        -11    1    4    4    0    0  0.24594740702E-01  0.68068138052E-01 -0.40157826466E-01  0.82771280257E-01  0.51100000000E-03 0. -1.
         11    1    4    4    0    0  0.27581809794E-02  0.41646278612E-01 -0.22050806626E-01  0.47207195197E-01  0.51100000000E-03 0.  1.
</event>
<event>
 8    1  0.1123285E+005  0.1043930E+01  0.7957747E-01            NaN
         13   -1    0    0    0    0  0.00000000000E+00  0.00000000000E+00  0.74505805969E-08  0.10566000000E+00  0.10566000000E+00 0.  1.
     999900   -1    0    0    0    0 -0.00000000000E+00 -0.00000000000E+00 -0.74505805969E-08  0.93827000000E+00  0.93827000000E+00 0.  1.
     999902    2    1    2    0    0  0.83240760216E-02  0.20938729383E-02 -0.21661994292E-01  0.10206294304E+01  0.10203634243E+01 0.  0.
     999903    2    3    3    0    0 -0.45700491603E-01  0.32107320408E-01  0.11217880182E+00  0.12836667785E+00  0.27829937999E-01 0.  0.
         14    1    1    2    0    0 -0.83240760216E-02 -0.20938729383E-02  0.21661994292E-01  0.23300569568E-01  0.00000000000E+00 0.  1.
     999901    1    3    3    0    0  0.54024567625E-01 -0.30013447470E-01 -0.13384079611E+00  0.89226275258E+00  0.88000000000E+00 0.  1.
        -11    1    4    4    0    0 -0.27591898134E-01  0.11587571724E-01  0.83589298181E-01  0.88786353413E-01  0.51100000000E-03 0.  1.
         11    1    4    4    0    0 -0.18108593470E-01  0.20519748684E-01  0.28589503638E-01  0.39580324440E-01  0.51100000000E-03 0. -1.
</event>
<event>
 8    1  0.1123285E+005  0.1043930E+01  0.7957747E-01            NaN
         13   -1    0    0    0    0  0.00000000000E+00  0.00000000000E+00  0.74505805969E-08  0.10566000000E+00  0.10566000000E+00 0.  1.
     999900   -1    0    0    0    0 -0.00000000000E+00 -0.00000000000E+00 -0.74505805969E-08  0.93827000000E+00  0.93827000000E+00 0. -1.
     999902    2    1    2    0    0  0.22507325057E-01 -0.11304505624E-02 -0.12561009672E-02  0.10213593246E+01  0.10211099032E+01 0.  0.
     999903    2    3    3    0    0 -0.84650604511E-01 -0.78164253709E-01  0.56318725611E-01  0.12965764276E+00  0.19076951237E-01 0.  0.
         14    1    1    2    0    0 -0.22507325057E-01  0.11304505624E-02  0.12561009672E-02  0.22570675429E-01  0.00000000000E+00 0. -1.
     999901    1    3    3    0    0  0.10715792957E+00  0.77033803147E-01 -0.57574826578E-01  0.89170168182E+00  0.88000000000E+00 0. -1.
        -11    1    4    4    0    0 -0.58973925338E-01 -0.65226292342E-01  0.40159398166E-01  0.96671771808E-01  0.51100000000E-03 0.  1.
         11    1    4    4    0    0 -0.25676679173E-01 -0.12937961367E-01  0.16159327444E-01  0.32985870947E-01  0.51100000000E-03 0. -1.
</event>
<event>
 8    1  0.1123285E+005  0.1043930E+01  0.7957747E-01            NaN
         13   -1    0    0    0    0  0.00000000000E+00  0.00000000000E+00  0.74505805969E-08  0.10566000000E+00  0.10566000000E+00 0.  1.
     999900   -1    0    0    0    0 -0.00000000000E+00 -0.00000000000E+00 -0.74505805969E-08  0.93827000000E+00  0.93827000000E+00 0.  1.
     999902    2    1    2    0    0 -0.18314351791E-01  0.12795618844E-01  0.16166766301E-01  0.10163526964E+01  0.10159784918E+01 0.  0.
     999903    2    3    3    0    0 -0.41950106519E-01  0.50270765439E-01  0.11056045376E+00  0.13019627465E+00  0.20987965656E-01 0.  0.
         14    1    1    2    0    0  0.18314351791E-01 -0.12795618844E-01 -0.16166766301E-01  0.27577303634E-01  0.00000000000E+00 0. -1.
     999901    1    3    3    0    0  0.23635754728E-01 -0.37475146595E-01 -0.94393687460E-01  0.88615642171E+00  0.88000000000E+00 0.  1.
        -11    1    4    4    0    0 -0.36270752862E-01  0.36032814683E-01  0.97323718294E-01  0.10993679325E+00  0.51100000000E-03 0.  1.
         11    1    4    4    0    0 -0.56793536562E-02  0.14237950756E-01  0.13236735467E-01  0.20259481398E-01  0.51100000000E-03 0. -1.
</event>
<event>
 8    1  0.1123285E+005  0.1043930E+01  0.7957747E-01            NaN
         13   -1    0    0    0    0  0.00000000000E+00  0.00000000000E+00  0.74505805969E-08  0.10566000000E+00  0.10566000000E+00 0. -1.
     999900   -1    0    0    0    0 -0.00000000000E+00 -0.00000000000E+00 -0.74505805969E-08  0.93827000000E+00  0.93827000000E+00 0. -1.
     999902    2    1    2    0    0 -0.22321194095E-01  0.16343253355E-01  0.68516701345E-02  0.10154294207E+01  0.10150293717E+01 0.  0.
     999903    2    3    3    0    0 -0.76089633874E-02 -0.58565571608E-01 -0.10839661054E+00  0.12463766728E+00  0.17230798768E-01 0.  0.
         14    1    1    2    0    0  0.22321194095E-01 -0.16343253355E-01 -0.68516701345E-02  0.28500579287E-01  0.00000000000E+00 0.  1.
     999901    1    3    3    0    0 -0.14712230708E-01  0.74908824963E-01  0.11524828068E+00  0.89079175344E+00  0.88000000000E+00 0.  1.
        -11    1    4    4    0    0 -0.82173859782E-02 -0.54153269590E-01 -0.87234935467E-01  0.10300629654E+00  0.51100000000E-03 0.  1.
         11    1    4    4    0    0  0.60842259080E-03 -0.44123020175E-02 -0.21161675074E-01  0.21631370739E-01  0.51100000000E-03 0. -1.
</event>
<event>
 8    1  0.1123285E+005  0.1043930E+01  0.7957747E-01            NaN
         13   -1    0    0    0    0  0.00000000000E+00  0.00000000000E+00  0.74505805969E-08  0.10566000000E+00  0.10566000000E+00 0.  1.
     999900   -1    0    0    0    0 -0.00000000000E+00 -0.00000000000E+00 -0.74505805969E-08  0.93827000000E+00  0.93827000000E+00 0. -1.
     999902    2    1    2    0    0  0.21575711982E-01  0.30720208988E-02 -0.14753832928E-01  0.10176122447E+01  0.10172718694E+01 0.  0.
     999903    2    3    3    0    0  0.53816637416E-01 -0.96187349528E-02  0.11449569801E+00  0.12749653656E+00  0.12543980556E-01 0.  0.
         14    1    1    2    0    0 -0.21575711982E-01 -0.30720208988E-02  0.14753832928E-01  0.26317755338E-01  0.00000000000E+00 0.  1.
     999901    1    3    3    0    0 -0.32240925434E-01  0.12690755852E-01 -0.12924953094E+00  0.89011570810E+00  0.88000000000E+00 0. -1.
        -11    1    4    4    0    0  0.36262849775E-01 -0.27805522592E-02  0.64224861663E-01  0.73809347113E-01  0.51100000000E-03 0. -1.
         11    1    4    4    0    0  0.17553787641E-01 -0.68381826936E-02  0.50270836347E-01  0.53687189450E-01  0.51100000000E-03 0.  1.
</event>
<event>
 8    1  0.1123285E+005  0.1043930E+01  0.7957747E-01            NaN
         13   -1    0    0    0    0  0.00000000000E+00  0.00000000000E+00  0.74505805969E-08  0.10566000000E+00  0.10566000000E+00 0. -1.
     999900   -1    0    0    0    0 -0.00000000000E+00 -0.00000000000E+00 -0.74505805969E-08  0.93827000000E+00  0.93827000000E+00 0.  1.
     999902    2    1    2    0    0  0.16969822549E-01  0.80633720497E-02  0.13801986312E-01  0.10206171779E+01  0.10203508888E+01 0.  0.
     999903    2    3    3    0    0  0.90166322693E-01 -0.58807664900E-01 -0.72001511593E-01  0.13090278362E+00  0.19052923346E-01 0.  0.
         14    1    1    2    0    0 -0.16969822549E-01 -0.80633720497E-02 -0.13801986312E-01  0.23312822058E-01  0.00000000000E+00 0.  1.
     999901    1    3    3    0    0 -0.73196500144E-01  0.66871036950E-01  0.85803497905E-01  0.88971439432E+00  0.88000000000E+00 0. -1.
        -11    1    4    4    0    0  0.71328073432E-01 -0.43229472788E-01 -0.46163593131E-01  0.95330057321E-01  0.51100000000E-03 0.  1.
         11    1    4    4    0    0  0.18838249261E-01 -0.15578192112E-01 -0.25837918462E-01  0.35572726296E-01  0.51100000000E-03 0. -1.
</event>
<event>
 8    1  0.1123285E+005  0.1043930E+01  0.7957747E-01            NaN
         13   -1    0    0    0    0  0.00000000000E+00  0.00000000000E+00  0.74505805969E-08  0.10566000000E+00  0.10566000000E+00 0.  1.
     999900   -1    0    0    0    0 -0.00000000000E+00 -0.00000000000E+00 -0.74505805969E-08  0.93827000000E+00  0.93827000000E+00 0.  1.
     999902    2    1    2    0    0  0.36081050595E-02 -0.19974697116E-01  0.11906497354E-01  0.10203976472E+01  0.10201262603E+01 0.  0.
     999903    2    3    3    0    0  0.20487182899E-01 -0.65672455964E-01  0.11248747466E+00  0.13332959944E+00  0.19767498517E-01 0.  0.
         14    1    1    2    0    0 -0.36081050595E-02  0.19974697116E-01 -0.11906497354E-01  0.23532352756E-01  0.00000000000E+00 0. -1.
     999901    1    3    3    0    0 -0.16879077840E-01  0.45697758848E-01 -0.10058097730E+00  0.88706804780E+00  0.88000000000E+00 0.  1.
        -11    1    4    4    0    0  0.21842936416E-01 -0.44186540101E-01  0.86696934469E-01  0.99730555822E-01  0.51100000000E-03 0. -1.
         11    1    4    4    0    0 -0.13557535167E-02 -0.21485915863E-01  0.25790540189E-01  0.33599043621E-01  0.51100000000E-03 0.  1.
</event>
<event>
 8    1  0.1123285E+005  0.1043930E+01  0.7957747E-01            NaN
         13   -1    0    0    0    0  0.00000000000E+00  0.00000000000E+00  0.74505805969E-08  0.10566000000E+00  0.10566000000E+00 0. -1.
     999900   -1    0    0    0    0 -0.00000000000E+00 -0.00000000000E+00 -0.74505805969E-08  0.93827000000E+00  0.93827000000E+00 0.  1.
     999902    2    1    2    0    0 -0.91724667569E-02 -0.22729912263E-01 -0.69170333011E-02  0.10184618158E+01  0.10181433307E+01 0.  0.
     999903    2    3    3    0    0 -0.88357730135E-01 -0.49181708289E-01  0.79716375772E-01  0.13027526386E+00  0.19774096729E-01 0.  0.
         14    1    1    2    0    0  0.91724667569E-02  0.22729912263E-01  0.69170333011E-02  0.25468184222E-01  0.00000000000E+00 0. -1.
     999901    1    3    3    0    0  0.79185263379E-01  0.26451796026E-01 -0.86633409073E-01  0.88818655192E+00  0.88000000000E+00 0.  1.
        -11    1    4    4    0    0 -0.63935182725E-01 -0.40947732047E-01  0.68134518672E-01  0.10201469554E+00  0.51100000000E-03 0.  1.
         11    1    4    4    0    0 -0.24422547411E-01 -0.82339762419E-02  0.11581857099E-01  0.28260568318E-01  0.51100000000E-03 0. -1.
</event>
<event>
 8    1  0.1123285E+005  0.1043930E+01  0.7957747E-01            NaN
         13   -1    0    0    0    0  0.00000000000E+00  0.00000000000E+00  0.74505805969E-08  0.10566000000E+00  0.10566000000E+00 0.  1.
     999900   -1    0    0    0    0 -0.00000000000E+00 -0.00000000000E+00 -0.74505805969E-08  0.93827000000E+00  0.93827000000E+00 0. -1.
     999902    2    1    2    0    0  0.20609251554E-03 -0.70884083389E-02  0.22872595270E-01  0.10199833171E+01  0.10197021740E+01 0.  0.
     999903    2    3    3    0    0  0.10077713232E+00 -0.69825367043E-01 -0.38015941713E-01  0.12995080424E+00  0.20258021067E-01 0.  0.
         14    1    1    2    0    0 -0.20609251554E-03  0.70884083389E-02 -0.22872595270E-01  0.23946682887E-01  0.00000000000E+00 0. -1.
     999901    1    3    3    0    0 -0.10057103980E+00  0.62736958705E-01  0.60888536983E-01  0.89003251287E+00  0.88000000000E+00 0.  1.
        -11    1    4    4    0    0  0.70855743911E-01 -0.50332706487E-01 -0.17159286749E-01  0.88592437771E-01  0.51100000000E-03 0.  1.
         11    1    4    4    0    0  0.29921388407E-01 -0.19492660556E-01 -0.20856654964E-01  0.41358366470E-01  0.51100000000E-03 0. -1.
</event>
<event>
 8    1  0.1123285E+005  0.1043930E+01  0.7957747E-01            NaN
         13   -1    0    0    0    0  0.00000000000E+00  0.00000000000E+00  0.74505805969E-08  0.10566000000E+00  0.10566000000E+00 0. -1.
     999900   -1    0    0    0    0 -0.00000000000E+00 -0.00000000000E+00 -0.74505805969E-08  0.93827000000E+00  0.93827000000E+00 0.  1.
     999902    2    1    2    0    0 -0.16855903047E-01  0.84426689523E-02 -0.91560720462E-02  0.10229720950E+01  0.10227573873E+01 0.  0.
     999903    2    3    3    0    0  0.26453579163E-01  0.78866929015E-01  0.10091664589E+00  0.13226940000E+00  0.19779798159E-01 0.  0.
         14    1    1    2    0    0  0.16855903047E-01 -0.84426689523E-02  0.91560720462E-02  0.20957904997E-01  0.00000000000E+00 0. -1.
     999901    1    3    3    0    0 -0.43309482210E-01 -0.70424260063E-01 -0.11007271794E+00  0.89070269500E+00  0.88000000000E+00 0.  1.
        -11    1    4    4    0    0  0.13502663145E-01  0.30130287968E-01  0.54532999796E-01  0.63751590982E-01  0.51100000000E-03 0. -1.
         11    1    4    4    0    0  0.12950916018E-01  0.48736641047E-01  0.46383646094E-01  0.68517809016E-01  0.51100000000E-03 0.  1.
</event>
<event>
 8    1  0.1123285E+005  0.1043930E+01  0.7957747E-01            NaN
         13   -1    0    0    0    0  0.00000000000E+00  0.00000000000E+00  0.74505805969E-08  0.10566000000E+00  0.10566000000E+00 0.  1.
     999900   -1    0    0    0    0 -0.00000000000E+00 -0.00000000000E+00 -0.74505805969E-08  0.93827000000E+00  0.93827000000E+00 0.  1.
     999902    2    1    2    0    0 -0.40247626142E-02 -0.21727811510E-01  0.90224483976E-02  0.10200615882E+01  0.10197823016E+01 0.  0.
     999903    2    3    3    0    0 -0.28685810657E-01 -0.12510666134E+00  0.29841210291E-01  0.13342255525E+00  0.20893251877E-01 0.  0.
         14    1    1    2    0    0  0.40247626142E-02  0.21727811510E-01 -0.90224483976E-02  0.23868411808E-01  0.00000000000E+00 0. -1.
     999901    1    3    3    0    0  0.24661048042E-01  0.10337884983E+00 -0.20818761893E-01  0.88663903294E+00  0.88000000000E+00 0.  1.
        -11    1    4    4    0    0 -0.20961262534E-01 -0.72129522291E-01  0.77850338977E-02  0.75517616400E-01  0.51100000000E-03 0. -1.
         11    1    4    4    0    0 -0.77245481228E-02 -0.52977139050E-01  0.22056176393E-01  0.57904938854E-01  0.51100000000E-03 0.  1.
</event>
<event>
 8    1  0.1123285E+005  0.1043930E+01  0.7957747E-01            NaN
         13   -1    0    0    0    0  0.00000000000E+00  0.00000000000E+00  0.74505805969E-08  0.10566000000E+00  0.10566000000E+00 0. -1.
     999900   -1    0    0    0    0 -0.00000000000E+00 -0.00000000000E+00 -0.74505805969E-08  0.93827000000E+00  0.93827000000E+00 0.  1.
     999902    2    1    2    0    0  0.13183603934E-02 -0.22386762002E-01  0.13173716732E-01  0.10179213092E+01  0.10175889836E+01 0.  0.
     999903    2    3    3    0    0  0.99358581316E-01 -0.81851696649E-01  0.65470465325E-02  0.13045757686E+00  0.20111877517E-01 0.  0.
         14    1    1    2    0    0 -0.13183603934E-02  0.22386762002E-01 -0.13173716732E-01  0.26008690848E-01  0.00000000000E+00 0.  1.
     999901    1    3    3    0    0 -0.98040220923E-01  0.59464934647E-01  0.66266701999E-02  0.88746373229E+00  0.88000000000E+00 0. -1.
        -11    1    4    4    0    0  0.69104356479E-01 -0.67858397701E-01  0.71322166643E-02  0.97114900290E-01  0.51100000000E-03 0. -1.
         11    1    4    4    0    0  0.30254224837E-01 -0.13993298948E-01 -0.58517013186E-03  0.33342676573E-01  0.51100000000E-03 0.  1.
</event>
<event>
 8    1  0.1123285E+005  0.1043930E+01  0.7957747E-01            NaN
         13   -1    0    0    0    0  0.00000000000E+00  0.00000000000E+00  0.74505805969E-08  0.10566000000E+00  0.10566000000E+00 0. -1.
     999900   -1    0    0    0    0 -0.00000000000E+00 -0.00000000000E+00 -0.74505805969E-08  0.93827000000E+00  0.93827000000E+00 0. -1.
     999902    2    1    2    0    0  0.40038244903E-02 -0.24173593450E-01  0.12832377393E-02  0.10193934980E+01  0.10190981620E+01 0.  0.
     999903    2    3    3    0    0  0.11410539246E+00  0.53101923139E-01  0.19740229805E-01  0.12898094122E+00  0.20163127125E-01 0.  0.
         14    1    1    2    0    0 -0.40038244903E-02  0.24173593450E-01 -0.12832377393E-02  0.24536501990E-01  0.00000000000E+00 0. -1.
     999901    1    3    3    0    0 -0.11010156797E+00 -0.77275516588E-01 -0.18456992066E-01  0.89041255679E+00  0.88000000000E+00 0. -1.
        -11    1    4    4    0    0  0.57211430278E-01  0.26804116830E-01  0.20095688683E-01  0.66300122610E-01  0.51100000000E-03 0. -1.
         11    1    4    4    0    0  0.56893962183E-01  0.26297806309E-01 -0.35545887796E-03  0.62680818610E-01  0.51100000000E-03 0.  1.
</event>
<event>
 8    1  0.1123285E+005  0.1043930E+01  0.7957747E-01            NaN
         13   -1    0    0    0    0  0.00000000000E+00  0.00000000000E+00  0.74505805969E-08  0.10566000000E+00  0.10566000000E+00 0.  1.
     999900   -1    0    0    0    0 -0.00000000000E+00 -0.00000000000E+00 -0.74505805969E-08  0.93827000000E+00  0.93827000000E+00 0. -1.
     999902    2    1    2    0    0 -0.94081955510E-03  0.19847557128E-01  0.12888508434E-01  0.10202461592E+01  0.10199712256E+01 0.  0.
     999903    2    3    3    0    0 -0.11710945475E+00 -0.39127517541E-01 -0.34650816659E-01  0.12938522804E+00  0.17154332407E-01 0.  0.
         14    1    1    2    0    0  0.94081955510E-03 -0.19847557128E-01 -0.12888508434E-01  0.23683840800E-01  0.00000000000E+00 0. -1.
     999901    1    3    3    0    0  0.11616863519E+00  0.58975074669E-01  0.47539325093E-01  0.89086093116E+00  0.88000000000E+00 0.  1.
        -11    1    4    4    0    0 -0.56455244514E-01 -0.10927495117E-01 -0.11840391084E-01  0.58711674858E-01  0.51100000000E-03 0.  1.
         11    1    4    4    0    0 -0.60654210233E-01 -0.28200022424E-01 -0.22810425575E-01  0.70673553183E-01  0.51100000000E-03 0. -1.
</event>
<event>
 8    1  0.1123285E+005  0.1043930E+01  0.7957747E-01            NaN
         13   -1    0    0    0    0  0.00000000000E+00  0.00000000000E+00  0.74505805969E-08  0.10566000000E+00  0.10566000000E+00 0.  1.
     999900   -1    0    0    0    0 -0.00000000000E+00 -0.00000000000E+00 -0.74505805969E-08  0.93827000000E+00  0.93827000000E+00 0.  1.
     999902    2    1    2    0    0 -0.22255744186E-01 -0.53005468577E-02  0.18553785981E-02  0.10209766478E+01  0.10207185993E+01 0.  0.
     999903    2    3    3    0    0 -0.17128487771E-01  0.40980622917E-01 -0.12201857169E+00  0.13108171527E+00  0.17918919982E-01 0.  0.
         14    1    1    2    0    0  0.22255744186E-01  0.53005468577E-02 -0.18553785981E-02  0.22953352173E-01  0.00000000000E+00 0.  1.
     999901    1    3    3    0    0 -0.51272564146E-02 -0.46281169775E-01  0.12387395028E+00  0.88989493256E+00  0.88000000000E+00 0. -1.
        -11    1    4    4    0    0 -0.15250387993E-01  0.33142377484E-01 -0.11401753786E+00  0.11971320553E+00  0.51100000000E-03 0. -1.
         11    1    4    4    0    0 -0.18780997777E-02  0.78382454333E-02 -0.80010338299E-02  0.11368509735E-01  0.51100000000E-03 0.  1.
</event>
<event>
 8    1  0.1123285E+005  0.1043930E+01  0.7957747E-01            NaN
         13   -1    0    0    0    0  0.00000000000E+00  0.00000000000E+00  0.74505805969E-08  0.10566000000E+00  0.10566000000E+00 0. -1.
     999900   -1    0    0    0    0 -0.00000000000E+00 -0.00000000000E+00 -0.74505805969E-08  0.93827000000E+00  0.93827000000E+00 0.  1.
     999902    2    1    2    0    0  0.18498884662E-01  0.14470098314E-01 -0.44436223011E-02  0.10200273169E+01  0.10197472182E+01 0.  0.
     999903    2    3    3    0    0 -0.51491278795E-01 -0.47462377858E-01 -0.10651343580E+00  0.12921167864E+00  0.21130943822E-01 0.  0.
         14    1    1    2    0    0 -0.18498884662E-01 -0.14470098314E-01  0.44436223011E-02  0.23902683074E-01  0.00000000000E+00 0. -1.
     999901    1    3    3    0    0  0.69990163457E-01  0.61932476172E-01  0.10206981350E+00  0.89081563829E+00  0.88000000000E+00 0. -1.
        -11    1    4    4    0    0 -0.40074297374E-01 -0.36611521368E-01 -0.64281086324E-01  0.84134844071E-01  0.51100000000E-03 0. -1.
         11    1    4    4    0    0 -0.11416981421E-01 -0.10850856490E-01 -0.42232349479E-01  0.45076834570E-01  0.51100000000E-03 0.  1.
</event>
<event>
 8    1  0.1123285E+005  0.1043930E+01  0.7957747E-01            NaN
         13   -1    0    0    0    0  0.00000000000E+00  0.00000000000E+00  0.74505805969E-08  0.10566000000E+00  0.10566000000E+00 0. -1.
     999900   -1    0    0    0    0 -0.00000000000E+00 -0.00000000000E+00 -0.74505805969E-08  0.93827000000E+00  0.93827000000E+00 0.  1.
     999902    2    1    2    0    0  0.19394485322E-01 -0.10308366778E-01 -0.41680121474E-02  0.10215742220E+01  0.10213295796E+01 0.  0.
     999903    2    3    3    0    0 -0.24582368638E-01 -0.56218971367E-01  0.11480231623E+00  0.13129579004E+00  0.17150716681E-01 0.  0.
         14    1    1    2    0    0 -0.19394485322E-01  0.10308366778E-01  0.41680121474E-02  0.22355778041E-01  0.00000000000E+00 0. -1.
     999901    1    3    3    0    0  0.43976853960E-01  0.45910604589E-01 -0.11897032838E+00  0.89027843191E+00  0.88000000000E+00 0. -1.
        -11    1    4    4    0    0 -0.11067279603E-01 -0.43605090711E-01  0.76167098752E-01  0.88462289520E-01  0.51100000000E-03 0.  1.
         11    1    4    4    0    0 -0.13515089034E-01 -0.12613880656E-01  0.38635217476E-01  0.42833500525E-01  0.51100000000E-03 0. -1.
</event>
<event>
 8    1  0.1123285E+005  0.1043930E+01  0.7957747E-01            NaN
         13   -1    0    0    0    0  0.00000000000E+00  0.00000000000E+00  0.74505805969E-08  0.10566000000E+00  0.10566000000E+00 0. -1.
     999900   -1    0    0    0    0 -0.00000000000E+00 -0.00000000000E+00 -0.74505805969E-08  0.93827000000E+00  0.93827000000E+00 0.  1.
     999902    2    1    2    0    0  0.20312060343E-01 -0.75014161222E-02  0.12129805730E-01  0.10191109906E+01  0.10188087298E+01 0.  0.
     999903    2    3    3    0    0  0.36425084261E-01  0.78600073397E-01 -0.93075042170E-01  0.12852626357E+00  0.18742429189E-01 0.  0.
         14    1    1    2    0    0 -0.20312060343E-01  0.75014161222E-02 -0.12129805730E-01  0.24819009373E-01  0.00000000000E+00 0. -1.
     999901    1    3    3    0    0 -0.16113023918E-01 -0.86101489520E-01  0.10520484790E+00  0.89058472705E+00  0.88000000000E+00 0. -1.
        -11    1    4    4    0    0  0.14373721500E-01  0.34475455029E-01 -0.53665460884E-01  0.65386571115E-01  0.51100000000E-03 0.  1.
         11    1    4    4    0    0  0.22051362761E-01  0.44124618368E-01 -0.39409581286E-01  0.63139692459E-01  0.51100000000E-03 0. -1.
</event>
<event>
 8    1  0.1123285E+005  0.1043930E+01  0.7957747E-01            NaN
         13   -1    0    0    0    0  0.00000000000E+00  0.00000000000E+00  0.74505805969E-08  0.10566000000E+00  0.10566000000E+00 0. -1.
     999900   -1    0    0    0    0 -0.00000000000E+00 -0.00000000000E+00 -0.74505805969E-08  0.93827000000E+00  0.93827000000E+00 0. -1.
     999902    2    1    2    0    0  0.54594855217E-02  0.21101560691E-01 -0.92175583309E-02  0.10202647253E+01  0.10199902276E+01 0.  0.
     999903    2    3    3    0    0 -0.55316146653E-01 -0.10648884170E+00  0.39107746293E-01  0.12767953422E+00  0.19310570959E-01 0.  0.
         14    1    1    2    0    0 -0.54594855217E-02 -0.21101560691E-01  0.92175583309E-02  0.23665274715E-01  0.00000000000E+00 0. -1.
     999901    1    3    3    0    0  0.60775632175E-01  0.12759040239E+00 -0.48325304624E-01  0.89258519107E+00  0.88000000000E+00 0. -1.
        -11    1    4    4    0    0 -0.26342517819E-01 -0.65967067777E-01  0.16251854512E-01  0.72869514697E-01  0.51100000000E-03 0.  1.
         11    1    4    4    0    0 -0.28973628835E-01 -0.40521773921E-01  0.22855891782E-01  0.54810019519E-01  0.51100000000E-03 0. -1.
</event>
<event>
 8    1  0.1123285E+005  0.1043930E+01  0.7957747E-01            NaN
         13   -1    0    0    0    0  0.00000000000E+00  0.00000000000E+00  0.74505805969E-08  0.10566000000E+00  0.10566000000E+00 0.  1.
     999900   -1    0    0    0    0 -0.00000000000E+00 -0.00000000000E+00 -0.74505805969E-08  0.93827000000E+00  0.93827000000E+00 0. -1.
     999902    2    1    2    0    0 -0.19141968719E-01 -0.13456606309E-01 -0.27604080340E-02  0.10203691199E+01  0.10200970668E+01 0.  0.
     999903    2    3    3    0    0 -0.96685525544E-01  0.86215132736E-01 -0.86567290290E-02  0.13133468557E+00  0.19817182320E-01 0.  0.
         14    1    1    2    0    0  0.19141968719E-01  0.13456606309E-01  0.27604080340E-02  0.23560880126E-01  0.00000000000E+00 0.  1.
     999901    1    3    3    0    0  0.77543556825E-01 -0.99671739045E-01  0.58963209949E-02  0.88903443430E+00  0.88000000000E+00 0.  1.
        -11    1    4    4    0    0 -0.81094054388E-01  0.77139244923E-01 -0.15406612822E-02  0.11193455017E+00  0.51100000000E-03 0.  1.
         11    1    4    4    0    0 -0.15591471156E-01  0.90758878129E-02 -0.71160677468E-02  0.19400135401E-01  0.51100000000E-03 0. -1.
</event>
<event>
 8    1  0.1123285E+005  0.1043930E+01  0.7957747E-01            NaN
         13   -1    0    0    0    0  0.00000000000E+00  0.00000000000E+00  0.74505805969E-08  0.10566000000E+00  0.10566000000E+00 0. -1.
     999900   -1    0    0    0    0 -0.00000000000E+00 -0.00000000000E+00 -0.74505805969E-08  0.93827000000E+00  0.93827000000E+00 0.  1.
     999902    2    1    2    0    0 -0.26701084257E-01  0.38274833879E-02  0.19210499572E-01  0.10108144323E+01  0.10102718326E+01 0.  0.
     999903    2    3    3    0    0  0.73917654621E-01  0.91186662007E-01  0.20296750666E-01  0.12078244601E+00  0.19940265371E-01 0.  0.
         14    1    1    2    0    0  0.26701084257E-01 -0.38274833879E-02 -0.19210499572E-01  0.33115567690E-01  0.00000000000E+00 0.  1.
     999901    1    3    3    0    0 -0.10061873888E+00 -0.87359178619E-01 -0.10862510936E-02  0.89003198630E+00  0.88000000000E+00 0.  1.
        -11    1    4    4    0    0  0.26590956147E-01  0.36909794387E-01 -0.15723203531E-02  0.45520821421E-01  0.51100000000E-03 0. -1.
         11    1    4    4    0    0  0.47326698474E-01  0.54276867620E-01  0.21869071019E-01  0.75261624586E-01  0.51100000000E-03 0.  1.
</event>
<event>
 7    1  0.1123285E+005  0.1043930E+01  0.7957747E-01            NaN
         13   -1    0    0    0    0  0.00000000000E+00  0.00000000000E+00  0.74505805969E-08  0.10566000000E+00  0.10566000000E+00 0.  1.
     999900   -1    0    0    0    0 -0.00000000000E+00 -0.00000000000E+00 -0.74505805969E-08  0.93827000000E+00  0.93827000000E+00 0. -1.
     999902    2    1    2    0    0  0.68845925339E-03 -0.17883226717E-01  0.15232212702E-01  0.10204288494E+01  0.10201581900E+01 0.  0.
         14    1    1    2    0    0 -0.68845925339E-03  0.17883226717E-01 -0.15232212702E-01  0.23501150562E-01  0.00000000000E+00 0.  1.
     999901    1    3    3    0    0  0.89352787966E-01  0.33797421871E-01  0.86449633153E-01  0.88938165346E+00  0.88000000000E+00 0.  1.
        -11    1    3    3    0    0 -0.67355941164E-01 -0.36076657554E-01 -0.29995005139E-01  0.82087206583E-01  0.51100000000E-03 0.  1.
         11    1    3    3    0    0 -0.21308387549E-01 -0.15603991034E-01 -0.41222415312E-01  0.48959989392E-01  0.51100000000E-03 0. -1.
</event>
<event>
 8    1  0.1123285E+005  0.1043930E+01  0.7957747E-01            NaN
         13   -1    0    0    0    0  0.00000000000E+00  0.00000000000E+00  0.74505805969E-08  0.10566000000E+00  0.10566000000E+00 0. -1.
     999900   -1    0    0    0    0 -0.00000000000E+00 -0.00000000000E+00 -0.74505805969E-08  0.93827000000E+00  0.93827000000E+00 0. -1.
     999902    2    1    2    0    0  0.43917701617E-02 -0.21142417017E-01 -0.23129672725E-01  0.10122871303E+01  0.10117924505E+01 0.  0.
     999903    2    3    3    0    0 -0.46411120368E-01 -0.34873501771E-01  0.10528014628E+00  0.12141196621E+00  0.16935262576E-01 0.  0.
         14    1    1    2    0    0 -0.43917701617E-02  0.21142417017E-01  0.23129672725E-01  0.31642869700E-01  0.00000000000E+00 0. -1.
     999901    1    3    3    0    0  0.50802890530E-01  0.13731084754E-01 -0.12840981901E+00  0.89087516409E+00  0.88000000000E+00 0. -1.
        -11    1    4    4    0    0 -0.88866484356E-02 -0.16276919093E-01  0.34328207191E-01  0.39020475978E-01  0.51100000000E-03 0.  1.
         11    1    4    4    0    0 -0.37524471932E-01 -0.18596582678E-01  0.70951939090E-01  0.82391490232E-01  0.51100000000E-03 0. -1.
</event>
<event>
 8    1  0.1123285E+005  0.1043930E+01  0.7957747E-01            NaN
         13   -1    0    0    0    0  0.00000000000E+00  0.00000000000E+00  0.74505805969E-08  0.10566000000E+00  0.10566000000E+00 0.  1.
     999900   -1    0    0    0    0 -0.00000000000E+00 -0.00000000000E+00 -0.74505805969E-08  0.93827000000E+00  0.93827000000E+00 0. -1.
     999902    2    1    2    0    0 -0.21383963351E-01  0.66274783838E-02 -0.21886017127E-02  0.10214358377E+01  0.10211881234E+01 0.  0.
     999903    2    3    3    0    0 -0.22481139880E-01  0.12157115503E-01 -0.12901233055E+00  0.13232614885E+00  0.14588732865E-01 0.  0.
         14    1    1    2    0    0  0.21383963351E-01 -0.66274783838E-02  0.21886017127E-02  0.22494162260E-01  0.00000000000E+00 0.  1.
     999901    1    3    3    0    0  0.10971765293E-02 -0.55296371194E-02  0.12682372884E+00  0.88910968889E+00  0.88000000000E+00 0.  1.
        -11    1    4    4    0    0 -0.79061128362E-02  0.88119567268E-03 -0.16629451440E-01  0.18441336778E-01  0.51100000000E-03 0. -1.
         11    1    4    4    0    0 -0.14575027044E-01  0.11275919830E-01 -0.11238287911E+00  0.11388481207E+00  0.51100000000E-03 0.  1.
</event>
<event>
 8    1  0.1123285E+005  0.1043930E+01  0.7957747E-01            NaN
         13   -1    0    0    0    0  0.00000000000E+00  0.00000000000E+00  0.74505805969E-08  0.10566000000E+00  0.10566000000E+00 0. -1.
     999900   -1    0    0    0    0 -0.00000000000E+00 -0.00000000000E+00 -0.74505805969E-08  0.93827000000E+00  0.93827000000E+00 0. -1.
     999902    2    1    2    0    0  0.22402858488E-01  0.68556086418E-02 -0.24917512302E-02  0.10203695191E+01  0.10200974753E+01 0.  0.
     999903    2    3    3    0    0 -0.97542353869E-01 -0.70264047521E-01  0.39062131810E-01  0.12792287049E+00  0.19668845430E-01 0.  0.
         14    1    1    2    0    0 -0.22402858488E-01 -0.68556086418E-02  0.24917512302E-02  0.23560480948E-01  0.00000000000E+00 0.  1.
     999901    1    3    3    0    0  0.11994521236E+00  0.77119656163E-01 -0.41553883040E-01  0.89244664856E+00  0.88000000000E+00 0. -1.
        -11    1    4    4    0    0 -0.89847723936E-02 -0.13451508053E-01  0.17131303121E-02  0.16274677888E-01  0.51100000000E-03 0. -1.
         11    1    4    4    0    0 -0.88557581475E-01 -0.56812539468E-01  0.37349001498E-01  0.11164819260E+00  0.51100000000E-03 0.  1.
</event>
<event>
 8    1  0.1123285E+005  0.1043930E+01  0.7957747E-01            NaN
         13   -1    0    0    0    0  0.00000000000E+00  0.00000000000E+00  0.74505805969E-08  0.10566000000E+00  0.10566000000E+00 0. -1.
     999900   -1    0    0    0    0 -0.00000000000E+00 -0.00000000000E+00 -0.74505805969E-08  0.93827000000E+00  0.93827000000E+00 0. -1.
     999902    2    1    2    0    0 -0.21597537325E-02  0.22248972014E-02 -0.22469260219E-01  0.10212477964E+01  0.10209958763E+01 0.  0.
     999903    2    3    3    0    0  0.48085439529E-01 -0.79958499287E-01  0.87212492542E-01  0.12922269758E+00  0.19670170588E-01 0.  0.
         14    1    1    2    0    0  0.21597537325E-02 -0.22248972014E-02  0.22469260219E-01  0.22682203564E-01  0.00000000000E+00 0. -1.
     999901    1    3    3    0    0 -0.50245193262E-01  0.82183396489E-01 -0.10968175276E+00  0.89202509886E+00  0.88000000000E+00 0. -1.
        -11    1    4    4    0    0  0.27451097009E-01 -0.62150703206E-01  0.58921492768E-01  0.89934843453E-01  0.51100000000E-03 0. -1.
         11    1    4    4    0    0  0.20634342520E-01 -0.17807796082E-01  0.28290999774E-01  0.39287854125E-01  0.51100000000E-03 0.  1.
</event>
<event>
 8    1  0.1123285E+005  0.1043930E+01  0.7957747E-01            NaN
         13   -1    0    0    0    0  0.00000000000E+00  0.00000000000E+00  0.74505805969E-08  0.10566000000E+00  0.10566000000E+00 0. -1.
     999900   -1    0    0    0    0 -0.00000000000E+00 -0.00000000000E+00 -0.74505805969E-08  0.93827000000E+00  0.93827000000E+00 0. -1.
     999902    2    1    2    0    0 -0.84242300019E-02  0.22780934150E-01 -0.54924010453E-03  0.10196351389E+01  0.10193456608E+01 0.  0.
     999903    2    3    3    0    0  0.96817236486E-01  0.51848366933E-01  0.67160902235E-01  0.13030654647E+00  0.20183627741E-01 0.  0.
         14    1    1    2    0    0  0.84242300019E-02 -0.22780934150E-01  0.54924010453E-03  0.24294861115E-01  0.00000000000E+00 0.  1.
     999901    1    3    3    0    0 -0.10524146649E+00 -0.29067432783E-01 -0.67710142339E-01  0.88932859242E+00  0.88000000000E+00 0. -1.
        -11    1    4    4    0    0  0.35231619889E-01  0.13039072528E-01  0.32515170934E-01  0.49686838441E-01  0.51100000000E-03 0. -1.
         11    1    4    4    0    0  0.61585616596E-01  0.38809294405E-01  0.34645731301E-01  0.80619708026E-01  0.51100000000E-03 0.  1.
</event>
<event>
 8    1  0.1123285E+005  0.1043930E+01  0.7957747E-01            NaN
         13   -1    0    0    0    0  0.00000000000E+00  0.00000000000E+00  0.74505805969E-08  0.10566000000E+00  0.10566000000E+00 0.  1.
     999900   -1    0    0    0    0 -0.00000000000E+00 -0.00000000000E+00 -0.74505805969E-08  0.93827000000E+00  0.93827000000E+00 0.  1.
     999902    2    1    2    0    0  0.14179727701E-01  0.90537463910E-02  0.16616273126E-01  0.10202839531E+01  0.10200099065E+01 0.  0.
     999903    2    3    3    0    0 -0.65758149406E-01  0.88788215973E-01  0.68361025519E-01  0.13156286680E+00  0.20690012119E-01 0.  0.
         14    1    1    2    0    0 -0.14179727701E-01 -0.90537463910E-02 -0.16616273126E-01  0.23646046900E-01  0.00000000000E+00 0. -1.
     999901    1    3    3    0    0  0.79937877107E-01 -0.79734469582E-01 -0.51744752393E-01  0.88872108630E+00  0.88000000000E+00 0.  1.
        -11    1    4    4    0    0 -0.23178199847E-01  0.32990673705E-01  0.36848611443E-01  0.54623207393E-01  0.51100000000E-03 0. -1.
         11    1    4    4    0    0 -0.42579949559E-01  0.55797542268E-01  0.31512414076E-01  0.76939659406E-01  0.51100000000E-03 0.  1.
</event>
<event>
 8    1  0.1123285E+005  0.1043930E+01  0.7957747E-01            NaN
         13   -1    0    0    0    0  0.00000000000E+00  0.00000000000E+00  0.74505805969E-08  0.10566000000E+00  0.10566000000E+00 0.  1.
     999900   -1    0    0    0    0 -0.00000000000E+00 -0.00000000000E+00 -0.74505805969E-08  0.93827000000E+00  0.93827000000E+00 0. -1.
     999902    2    1    2    0    0 -0.21143850076E-01  0.96181990527E-02  0.54231402642E-02  0.10200766439E+01  0.10197977136E+01 0.  0.
     999903    2    3    3    0    0 -0.95116819772E-03 -0.12458029044E+00 -0.27441953724E-01  0.12906761282E+00  0.19601897037E-01 0.  0.
         14    1    1    2    0    0  0.21143850076E-01 -0.96181990527E-02 -0.54231402642E-02  0.23853356145E-01  0.00000000000E+00 0. -1.
     999901    1    3    3    0    0 -0.20192681879E-01  0.13419848949E+00  0.32865093988E-01  0.89100903104E+00  0.88000000000E+00 0. -1.
        -11    1    4    4    0    0 -0.16926583276E-02 -0.95941952788E-01 -0.29364543843E-01  0.10035068985E+00  0.51100000000E-03 0.  1.
         11    1    4    4    0    0  0.74149012986E-03 -0.28638337653E-01  0.19225901197E-02  0.28716922970E-01  0.51100000000E-03 0. -1.
</event>
<event>
 8    1  0.1123285E+005  0.1043930E+01  0.7957747E-01            NaN
         13   -1    0    0    0    0  0.00000000000E+00  0.00000000000E+00  0.74505805969E-08  0.10566000000E+00  0.10566000000E+00 0.  1.
     999900   -1    0    0    0    0 -0.00000000000E+00 -0.00000000000E+00 -0.74505805969E-08  0.93827000000E+00  0.93827000000E+00 0. -1.
     999902    2    1    2    0    0 -0.55566739982E-02 -0.17531574345E-01  0.15167193857E-01  0.10200914494E+01  0.10198128694E+01 0.  0.
     999903    2    3    3    0    0 -0.67424460083E-01  0.31758560968E-01 -0.10292649811E+00  0.12868623264E+00  0.20288382035E-01 0.  0.
         14    1    1    2    0    0  0.55566739982E-02  0.17531574345E-01 -0.15167193857E-01  0.23838550595E-01  0.00000000000E+00 0. -1.
     999901    1    3    3    0    0  0.61867786085E-01 -0.49290135313E-01  0.11809369197E+00  0.89140521677E+00  0.88000000000E+00 0.  1.
        -11    1    4    4    0    0 -0.31675794756E-01  0.19897583949E-01 -0.66416110558E-01  0.76227492961E-01  0.51100000000E-03 0. -1.
         11    1    4    4    0    0 -0.35748665327E-01  0.11860977019E-01 -0.36510387552E-01  0.52458739679E-01  0.51100000000E-03 0.  1.
</event>
<event>
 8    1  0.1123285E+005  0.1043930E+01  0.7957747E-01            NaN
         13   -1    0    0    0    0  0.00000000000E+00  0.00000000000E+00  0.74505805969E-08  0.10566000000E+00  0.10566000000E+00 0.  1.
     999900   -1    0    0    0    0 -0.00000000000E+00 -0.00000000000E+00 -0.74505805969E-08  0.93827000000E+00  0.93827000000E+00 0. -1.
     999902    2    1    2    0    0  0.14809382527E-01 -0.17545244558E-01 -0.13075574091E-02  0.10209329758E+01  0.10206739332E+01 0.  0.
     999903    2    3    3    0    0  0.52910522664E-01 -0.58753564847E-01  0.10486180120E+00  0.13277659581E+00  0.19547947576E-01 0.  0.
         14    1    1    2    0    0 -0.14809382527E-01  0.17545244558E-01  0.13075574091E-02  0.22997024238E-01  0.00000000000E+00 0.  1.
     999901    1    3    3    0    0 -0.38101140137E-01  0.41208320289E-01 -0.10616935860E+00  0.88815637995E+00  0.88000000000E+00 0. -1.
        -11    1    4    4    0    0  0.27229288837E-01 -0.22822724947E-01  0.33394148344E-01  0.48762087827E-01  0.51100000000E-03 0.  1.
         11    1    4    4    0    0  0.25681233826E-01 -0.35930839900E-01  0.71467652851E-01  0.84014507984E-01  0.51100000000E-03 0. -1.
</event>
<event>
 8    1  0.1123285E+005  0.1043930E+01  0.7957747E-01            NaN
         13   -1    0    0    0    0  0.00000000000E+00  0.00000000000E+00  0.74505805969E-08  0.10566000000E+00  0.10566000000E+00 0. -1.
     999900   -1    0    0    0    0 -0.00000000000E+00 -0.00000000000E+00 -0.74505805969E-08  0.93827000000E+00  0.93827000000E+00 0.  1.
     999902    2    1    2    0    0 -0.77732707979E-02  0.29801839191E-02  0.22783844383E-01  0.10196728608E+01  0.10193842918E+01 0.  0.
     999903    2    3    3    0    0  0.36902300100E-03 -0.16684696254E-01 -0.12448112449E+00  0.12718197825E+00  0.20029727185E-01 0.  0.
         14    1    1    2    0    0  0.77732707979E-02 -0.29801839191E-02 -0.22783844383E-01  0.24257139154E-01  0.00000000000E+00 0.  1.
     999901    1    3    3    0    0 -0.81422937989E-02  0.19664880173E-01  0.14726496887E+00  0.89249088260E+00  0.88000000000E+00 0. -1.
        -11    1    4    4    0    0 -0.58679999268E-02 -0.18606601323E-01 -0.94570108736E-01  0.96562961964E-01  0.51100000000E-03 0.  1.
         11    1    4    4    0    0  0.62370229278E-02  0.19219050690E-02 -0.29911015750E-01  0.30619016285E-01  0.51100000000E-03 0. -1.
</event>
<event>
 8    1  0.1123285E+005  0.1043930E+01  0.7957747E-01            NaN
         13   -1    0    0    0    0  0.00000000000E+00  0.00000000000E+00  0.74505805969E-08  0.10566000000E+00  0.10566000000E+00 0.  1.
     999900   -1    0    0    0    0 -0.00000000000E+00 -0.00000000000E+00 -0.74505805969E-08  0.93827000000E+00  0.93827000000E+00 0. -1.
     999902    2    1    2    0    0 -0.39581633940E-03 -0.21697992394E-01 -0.99760077216E-02  0.10200452711E+01  0.10197655980E+01 0.  0.
     999903    2    3    3    0    0 -0.86580301550E-01 -0.52788178136E-01  0.80025743181E-01  0.13072267479E+00  0.20038906302E-01 0.  0.
         14    1    1    2    0    0  0.39581633940E-03  0.21697992394E-01  0.99760077216E-02  0.23884728899E-01  0.00000000000E+00 0.  1.
     999901    1    3    3    0    0  0.86184485211E-01  0.31090185742E-01 -0.90001750902E-01  0.88932259631E+00  0.88000000000E+00 0. -1.
        -11    1    4    4    0    0 -0.18564653424E-01 -0.19979410404E-01  0.27505098147E-01  0.38737768933E-01  0.51100000000E-03 0.  1.
         11    1    4    4    0    0 -0.68015648127E-01 -0.32808767731E-01  0.52520645034E-01  0.91984905859E-01  0.51100000000E-03 0. -1.
</event>
<event>
 8    1  0.1123285E+005  0.1043930E+01  0.7957747E-01            NaN
         13   -1    0    0    0    0  0.00000000000E+00  0.00000000000E+00  0.74505805969E-08  0.10566000000E+00  0.10566000000E+00 0.  1.
     999900   -1    0    0    0    0 -0.00000000000E+00 -0.00000000000E+00 -0.74505805969E-08  0.93827000000E+00  0.93827000000E+00 0.  1.
     999902    2    1    2    0    0 -0.11285346671E-01 -0.18714161764E-01  0.98439284052E-03  0.10220542616E+01  0.10218201240E+01 0.  0.
     999903    2    3    3    0    0 -0.13062485587E+00  0.17705896622E-01  0.18062771718E-02  0.13325225072E+00  0.19404843173E-01 0.  0.
         14    1    1    2    0    0  0.11285346671E-01  0.18714161764E-01 -0.98439284052E-03  0.21875738371E-01  0.00000000000E+00 0.  1.
     999901    1    3    3    0    0  0.11933950920E+00 -0.36420058386E-01 -0.82188433126E-03  0.88880201091E+00  0.88000000000E+00 0. -1.
        -11    1    4    4    0    0 -0.10255864338E+00  0.20077751399E-01 -0.35936834098E-02  0.10456848050E+00  0.51100000000E-03 0. -1.
         11    1    4    4    0    0 -0.28066212490E-01 -0.23718547768E-02  0.53999605816E-02  0.28683770218E-01  0.51100000000E-03 0.  1.
</event>
<event>
 8    1  0.1123285E+005  0.1043930E+01  0.7957747E-01            NaN
         13   -1    0    0    0    0  0.00000000000E+00  0.00000000000E+00  0.74505805969E-08  0.10566000000E+00  0.10566000000E+00 0.  1.
     999900   -1    0    0    0    0 -0.00000000000E+00 -0.00000000000E+00 -0.74505805969E-08  0.93827000000E+00  0.93827000000E+00 0. -1.
     999902    2    1    2    0    0  0.37409622637E-03  0.12349859917E-01 -0.20035832285E-01  0.10203908079E+01  0.10201192613E+01 0.  0.
     999903    2    3    3    0    0 -0.42334878146E-02  0.11011764593E+00  0.67299215718E-01  0.13066771594E+00  0.20026212540E-01 0.  0.
         14    1    1    2    0    0 -0.37409622637E-03 -0.12349859917E-01  0.20035832285E-01  0.23539192070E-01  0.00000000000E+00 0.  1.
     999901    1    3    3    0    0  0.46075840410E-02 -0.97767786012E-01 -0.87335048003E-01  0.88972309199E+00  0.88000000000E+00 0.  1.
        -11    1    4    4    0    0  0.24845553522E-02  0.50104737957E-01  0.20201156611E-01  0.54083321186E-01  0.51100000000E-03 0. -1.
         11    1    4    4    0    0 -0.67180431668E-02  0.60012907971E-01  0.47098059107E-01  0.76584394754E-01  0.51100000000E-03 0.  1.
</event>
<event>
 8    1  0.1123285E+005  0.1043930E+01  0.7957747E-01            NaN
         13   -1    0    0    0    0  0.00000000000E+00  0.00000000000E+00  0.74505805969E-08  0.10566000000E+00  0.10566000000E+00 0.  1.
     999900   -1    0    0    0    0 -0.00000000000E+00 -0.00000000000E+00 -0.74505805969E-08  0.93827000000E+00  0.93827000000E+00 0.  1.
     999902    2    1    2    0    0 -0.44054478908E-02  0.37470193967E-02 -0.24083151159E-01  0.10191621520E+01  0.10188611514E+01 0.  0.
     999903    2    3    3    0    0  0.74560014737E-02 -0.25991241246E-03  0.12360827918E+00  0.12676677544E+00  0.27113634235E-01 0.  0.
         14    1    1    2    0    0  0.44054478908E-02 -0.37470193967E-02  0.24083151159E-01  0.24767848014E-01  0.00000000000E+00 0. -1.
     999901    1    3    3    0    0 -0.11861449365E-01  0.40069318092E-02 -0.14769143034E+00  0.89239537655E+00  0.88000000000E+00 0.  1.
        -11    1    4    4    0    0  0.85896355346E-02 -0.11710973898E-01  0.91674059461E-01  0.92818764521E-01  0.51100000000E-03 0. -1.
         11    1    4    4    0    0 -0.11336340609E-02  0.11451061485E-01  0.31934219719E-01  0.33948010920E-01  0.51100000000E-03 0.  1.
</event>
<event>
 7    1  0.1123285E+005  0.1043930E+01  0.7957747E-01            NaN
         13   -1    0    0    0    0  0.00000000000E+00  0.00000000000E+00  0.74505805969E-08  0.10566000000E+00  0.10566000000E+00 0. -1.
     999900   -1    0    0    0    0 -0.00000000000E+00 -0.00000000000E+00 -0.74505805969E-08  0.93827000000E+00  0.93827000000E+00 0. -1.
     999903    2    1    2    0    0  0.10438376828E+00 -0.66501010467E-02  0.12312688187E-01  0.10731530425E+00  0.20610126427E-01 0.  0.
         14    1    1    2    0    0  0.39747443535E-01  0.96881240062E-02  0.17238902327E-01  0.44394805639E-01  0.00000000000E+00 0.  1.
     999901    1    1    2    0    0 -0.14413121182E+00 -0.30380229596E-02 -0.29551590514E-01  0.89221989011E+00  0.88000000000E+00 0.  1.
        -11    1    3    3    0    0  0.74626817812E-01 -0.13341867737E-01  0.12348560420E-01  0.76810907018E-01  0.51100000000E-03 0. -1.
         11    1    3    3    0    0  0.29756950472E-01  0.66917666904E-02 -0.35872233747E-04  0.30504397234E-01  0.51100000000E-03 0.  1.
</event>
<event>
 8    1  0.1123285E+005  0.1043930E+01  0.7957747E-01            NaN
         13   -1    0    0    0    0  0.00000000000E+00  0.00000000000E+00  0.74505805969E-08  0.10566000000E+00  0.10566000000E+00 0. -1.
     999900   -1    0    0    0    0 -0.00000000000E+00 -0.00000000000E+00 -0.74505805969E-08  0.93827000000E+00  0.93827000000E+00 0. -1.
     999902    2    1    2    0    0  0.18466268850E-01  0.13530853334E-01 -0.48102922148E-02  0.10205371381E+01  0.10202689960E+01 0.  0.
     999903    2    3    3    0    0  0.26871177817E-01 -0.11216467722E+00 -0.56389779996E-01  0.13007071398E+00  0.20871232226E-01 0.  0.
         14    1    1    2    0    0 -0.18466268850E-01 -0.13530853334E-01  0.48102922148E-02  0.23392861911E-01  0.00000000000E+00 0. -1.
     999901    1    3    3    0    0 -0.84049089663E-02  0.12569553056E+00  0.51579487781E-01  0.89046642410E+00  0.88000000000E+00 0.  1.
        -11    1    4    4    0    0  0.28896388166E-01 -0.10999254309E+00 -0.56634080718E-01  0.12704739669E+00  0.51100000000E-03 0.  1.
         11    1    4    4    0    0 -0.20252103495E-02 -0.21721341291E-02  0.24430072212E-03  0.30233172968E-02  0.51100000000E-03 0. -1.
</event>
<event>
 8    1  0.1123285E+005  0.1043930E+01  0.7957747E-01            NaN
         13   -1    0    0    0    0  0.00000000000E+00  0.00000000000E+00  0.74505805969E-08  0.10566000000E+00  0.10566000000E+00 0.  1.
     999900   -1    0    0    0    0 -0.00000000000E+00 -0.00000000000E+00 -0.74505805969E-08  0.93827000000E+00  0.93827000000E+00 0. -1.
     999902    2    1    2    0    0  0.24605765335E-01  0.45154979539E-02  0.33862716609E-02  0.10186851937E+01  0.10183723404E+01 0.  0.
     999903    2    3    3    0    0 -0.73786236603E-01  0.76650261392E-01  0.68055713720E-01  0.12791780157E+00  0.20290699964E-01 0.  0.
         14    1    1    2    0    0 -0.24605765335E-01 -0.45154979539E-02 -0.33862716609E-02  0.25244806303E-01  0.00000000000E+00 0. -1.
     999901    1    3    3    0    0  0.98392001939E-01 -0.72134763438E-01 -0.64669442059E-01  0.89076739213E+00  0.88000000000E+00 0.  1.
        -11    1    4    4    0    0 -0.37621796826E-01  0.53244220203E-01  0.42538945745E-01  0.77847091195E-01  0.51100000000E-03 0. -1.
         11    1    4    4    0    0 -0.36164439777E-01  0.23406041189E-01  0.25516767975E-01  0.50070710375E-01  0.51100000000E-03 0.  1.
</event>
<event>
 8    1  0.1123285E+005  0.1043930E+01  0.7957747E-01            NaN
         13   -1    0    0    0    0  0.00000000000E+00  0.00000000000E+00  0.74505805969E-08  0.10566000000E+00  0.10566000000E+00 0.  1.
     999900   -1    0    0    0    0 -0.00000000000E+00 -0.00000000000E+00 -0.74505805969E-08  0.93827000000E+00  0.93827000000E+00 0. -1.
     999902    2    1    2    0    0 -0.41493000264E-02  0.20448058671E-01 -0.99680136168E-02  0.10208063954E+01  0.10205444605E+01 0.  0.
     999903    2    3    3    0    0 -0.68352559882E-02  0.13172654950E+00  0.68319472752E-02  0.13363541100E+00  0.20325919445E-01 0.  0.
         14    1    1    2    0    0  0.41493000264E-02 -0.20448058671E-01  0.99680136168E-02  0.23123604598E-01  0.00000000000E+00 0. -1.
     999901    1    3    3    0    0  0.26859559618E-02 -0.11127849083E+00 -0.16799960892E-01  0.88717098440E+00  0.88000000000E+00 0. -1.
        -11    1    4    4    0    0  0.25563244418E-02  0.54683386336E-01  0.11269975205E-01  0.55893479029E-01  0.51100000000E-03 0.  1.
         11    1    4    4    0    0 -0.93915804300E-02  0.77043163166E-01 -0.44380279301E-02  0.77741931971E-01  0.51100000000E-03 0. -1.
</event>
<event>
 8    1  0.1123285E+005  0.1043930E+01  0.7957747E-01            NaN
         13   -1    0    0    0    0  0.00000000000E+00  0.00000000000E+00  0.74505805969E-08  0.10566000000E+00  0.10566000000E+00 0.  1.
     999900   -1    0    0    0    0 -0.00000000000E+00 -0.00000000000E+00 -0.74505805969E-08  0.93827000000E+00  0.93827000000E+00 0. -1.
     999902    2    1    2    0    0  0.64516186876E-03  0.89480769534E-02  0.22512587401E-01  0.10196957080E+01  0.10194076889E+01 0.  0.
     999903    2    3    3    0    0 -0.80504197247E-01 -0.83035865760E-01 -0.50895393458E-01  0.12816051757E+00  0.21421867612E-01 0.  0.
         14    1    1    2    0    0 -0.64516186876E-03 -0.89480769534E-02 -0.22512587401E-01  0.24234291954E-01  0.00000000000E+00 0. -1.
     999901    1    3    3    0    0  0.81149359115E-01  0.91983942713E-01  0.73407980859E-01  0.89153519048E+00  0.88000000000E+00 0. -1.
        -11    1    4    4    0    0 -0.80433438914E-01 -0.78538655152E-01 -0.45926167239E-01  0.12143859521E+00  0.51100000000E-03 0.  1.
         11    1    4    4    0    0 -0.70758332621E-04 -0.44972106082E-02 -0.49692262193E-02  0.67219223600E-02  0.51100000000E-03 0. -1.
</event>
<event>
 8    1  0.1123285E+005  0.1043930E+01  0.7957747E-01            NaN
         13   -1    0    0    0    0  0.00000000000E+00  0.00000000000E+00  0.74505805969E-08  0.10566000000E+00  0.10566000000E+00 0. -1.
     999900   -1    0    0    0    0 -0.00000000000E+00 -0.00000000000E+00 -0.74505805969E-08  0.93827000000E+00  0.93827000000E+00 0. -1.
     999902    2    1    2    0    0 -0.20679188612E-01  0.59802165643E-02  0.68399608638E-02  0.10213429042E+01  0.10210931158E+01 0.  0.
     999903    2    3    3    0    0 -0.19732162643E-01  0.12952227543E+00 -0.45146574557E-02  0.13264021797E+00  0.20190770538E-01 0.  0.
         14    1    1    2    0    0  0.20679188612E-01 -0.59802165643E-02 -0.68399608638E-02  0.22587095794E-01  0.00000000000E+00 0.  1.
     999901    1    3    3    0    0 -0.94702596877E-03 -0.12354205887E+00  0.11354618320E-01  0.88870268624E+00  0.88000000000E+00 0. -1.
        -11    1    4    4    0    0 -0.10975482161E-01  0.10948641656E+00  0.11668146080E-02  0.11004253358E+00  0.51100000000E-03 0.  1.
         11    1    4    4    0    0 -0.87566804818E-02  0.20035858876E-01 -0.56814720637E-02  0.22597684390E-01  0.51100000000E-03 0. -1.
</event>
<event>
 8    1  0.1123285E+005  0.1043930E+01  0.7957747E-01            NaN
         13   -1    0    0    0    0  0.00000000000E+00  0.00000000000E+00  0.74505805969E-08  0.10566000000E+00  0.10566000000E+00 0.  1.
     999900   -1    0    0    0    0 -0.00000000000E+00 -0.00000000000E+00 -0.74505805969E-08  0.93827000000E+00  0.93827000000E+00 0. -1.
     999902    2    1    2    0    0 -0.16848868181E-01  0.13660932004E-01  0.46251810761E-02  0.10217512326E+01  0.10215104912E+01 0.  0.
     999903    2    3    3    0    0  0.16882064044E-01  0.62132787349E-02 -0.12872962910E+00  0.13103424686E+00  0.16584556777E-01 0.  0.
         14    1    1    2    0    0  0.16848868181E-01 -0.13660932004E-01 -0.46251810761E-02  0.22178767373E-01  0.00000000000E+00 0.  1.
     999901    1    3    3    0    0 -0.33730932225E-01  0.74476532693E-02  0.13335481018E+00  0.89071698576E+00  0.88000000000E+00 0.  1.
        -11    1    4    4    0    0  0.10848914368E-01  0.11889498334E-01 -0.89351760930E-01  0.90791284911E-01  0.51100000000E-03 0. -1.
         11    1    4    4    0    0  0.60331496768E-02 -0.56762195989E-02 -0.39377868173E-01  0.40242961953E-01  0.51100000000E-03 0.  1.
</event>
<event>
 8    1  0.1123285E+005  0.1043930E+01  0.7957747E-01            NaN
         13   -1    0    0    0    0  0.00000000000E+00  0.00000000000E+00  0.74505805969E-08  0.10566000000E+00  0.10566000000E+00 0.  1.
     999900   -1    0    0    0    0 -0.00000000000E+00 -0.00000000000E+00 -0.74505805969E-08  0.93827000000E+00  0.93827000000E+00 0. -1.
     999902    2    1    2    0    0  0.52070209550E-02 -0.33378145795E-02  0.23351305083E-01  0.10197734787E+01  0.10194873272E+01 0.  0.
     999903    2    3    3    0    0 -0.43107915062E-01  0.99858243317E-01  0.70411429793E-01  0.13117997502E+00  0.20505006724E-01 0.  0.
         14    1    1    2    0    0 -0.52070209550E-02  0.33378145795E-02 -0.23351305083E-01  0.24156521324E-01  0.00000000000E+00 0. -1.
     999901    1    3    3    0    0  0.48314936017E-01 -0.10319605790E+00 -0.47060124710E-01  0.88859350366E+00  0.88000000000E+00 0.  1.
        -11    1    4    4    0    0 -0.26734678015E-01  0.77324762526E-01  0.59914406852E-01  0.10140936435E+00  0.51100000000E-03 0. -1.
         11    1    4    4    0    0 -0.16373237047E-01  0.22533480791E-01  0.10497022941E-01  0.29770610668E-01  0.51100000000E-03 0.  1.
</event>
<event>
 8    1  0.1123285E+005  0.1043930E+01  0.7957747E-01            NaN
         13   -1    0    0    0    0  0.00000000000E+00  0.00000000000E+00  0.74505805969E-08  0.10566000000E+00  0.10566000000E+00 0.  1.
     999900   -1    0    0    0    0 -0.00000000000E+00 -0.00000000000E+00 -0.74505805969E-08  0.93827000000E+00  0.93827000000E+00 0.  1.
     999902    2    1    2    0    0  0.23149576310E-01 -0.33904103574E-02 -0.46568095767E-02  0.10200745260E+01  0.10197955456E+01 0.  0.
     999903    2    3    3    0    0  0.11327453585E-01  0.11509289550E+00  0.55948783102E-01  0.12998964563E+00  0.19807974170E-01 0.  0.
         14    1    1    2    0    0 -0.23149576310E-01  0.33904103574E-02  0.46568095767E-02  0.23855474030E-01  0.00000000000E+00 0.  1.
     999901    1    3    3    0    0  0.11822122725E-01 -0.11848330586E+00 -0.60605592679E-01  0.89008488034E+00  0.88000000000E+00 0.  1.
        -11    1    4    4    0    0  0.11797584985E-01  0.34656052398E-01  0.21716897614E-01  0.42568882323E-01  0.51100000000E-03 0.  1.
         11    1    4    4    0    0 -0.47013140048E-03  0.80436843100E-01  0.34231885488E-01  0.87420763303E-01  0.51100000000E-03 0. -1.
</event>
<event>
 8    1  0.1123285E+005  0.1043930E+01  0.7957747E-01            NaN
         13   -1    0    0    0    0  0.00000000000E+00  0.00000000000E+00  0.74505805969E-08  0.10566000000E+00  0.10566000000E+00 0.  1.
     999900   -1    0    0    0    0 -0.00000000000E+00 -0.00000000000E+00 -0.74505805969E-08  0.93827000000E+00  0.93827000000E+00 0.  1.
     999902    2    1    2    0    0 -0.39709809032E-02 -0.22585692681E-01  0.51729922377E-02  0.10204216600E+01  0.10201508330E+01 0.  0.
     999903    2    3    3    0    0 -0.29778547494E-01 -0.44008209649E-01  0.11908127812E+00  0.13244640561E+00  0.23199464491E-01 0.  0.
         14    1    1    2    0    0  0.39709809032E-02  0.22585692681E-01 -0.51729922377E-02  0.23508340050E-01  0.00000000000E+00 0. -1.
     999901    1    3    3    0    0  0.25807566591E-01  0.21422516968E-01 -0.11390828588E+00  0.88797525434E+00  0.88000000000E+00 0.  1.
        -11    1    4    4    0    0 -0.15756695861E-01 -0.16453757430E-01  0.27102029249E-01  0.35408765983E-01  0.51100000000E-03 0.  1.
         11    1    4    4    0    0 -0.14021851633E-01 -0.27554452219E-01  0.91979248873E-01  0.97037639628E-01  0.51100000000E-03 0. -1.
</event>
<event>
 8    1  0.1123285E+005  0.1043930E+01  0.7957747E-01            NaN
         13   -1    0    0    0    0  0.00000000000E+00  0.00000000000E+00  0.74505805969E-08  0.10566000000E+00  0.10566000000E+00 0. -1.
     999900   -1    0    0    0    0 -0.00000000000E+00 -0.00000000000E+00 -0.74505805969E-08  0.93827000000E+00  0.93827000000E+00 0. -1.
     999902    2    1    2    0    0  0.20305365271E-01  0.10976173618E-01 -0.39279434934E-02  0.10205160515E+01  0.10202474201E+01 0.  0.
     999903    2    3    3    0    0 -0.33804241836E-01  0.11898767289E+00 -0.40334380806E-01  0.13151674762E+00  0.19209361333E-01 0.  0.
         14    1    1    2    0    0 -0.20305365271E-01 -0.10976173618E-01  0.39279434934E-02  0.23413948539E-01  0.00000000000E+00 0.  1.
     999901    1    3    3    0    0  0.54109607107E-01 -0.10801149927E+00  0.36406437313E-01  0.88899930384E+00  0.88000000000E+00 0. -1.
        -11    1    4    4    0    0 -0.10399057592E-01  0.39038904449E-01 -0.38978857236E-02  0.40591022326E-01  0.51100000000E-03 0.  1.
         11    1    4    4    0    0 -0.23405184245E-01  0.79948768442E-01 -0.36436495083E-01  0.90925725292E-01  0.51100000000E-03 0. -1.
</event>
<event>
 8    1  0.1123285E+005  0.1043930E+01  0.7957747E-01            NaN
         13   -1    0    0    0    0  0.00000000000E+00  0.00000000000E+00  0.74505805969E-08  0.10566000000E+00  0.10566000000E+00 0.  1.
     999900   -1    0    0    0    0 -0.00000000000E+00 -0.00000000000E+00 -0.74505805969E-08  0.93827000000E+00  0.93827000000E+00 0.  1.
     999902    2    1    2    0    0 -0.44186832660E-03  0.72035487376E-02  0.23005948040E-01  0.10198185918E+01  0.10195335208E+01 0.  0.
     999903    2    3    3    0    0  0.18011424127E-01 -0.56347872577E-01  0.11684995768E+00  0.13235816712E+00  0.19112238283E-01 0.  0.
         14    1    1    2    0    0  0.44186832660E-03 -0.72035487376E-02 -0.23005948040E-01  0.24111408239E-01  0.00000000000E+00 0. -1.
     999901    1    3    3    0    0 -0.18453292454E-01  0.63551421315E-01 -0.93844009636E-01  0.88746042464E+00  0.88000000000E+00 0. -1.
        -11    1    4    4    0    0  0.72916709973E-02 -0.41004176931E-01  0.94014250839E-01  0.10282728954E+00  0.51100000000E-03 0.  1.
         11    1    4    4    0    0  0.10719753130E-01 -0.15343695647E-01  0.22835706837E-01  0.29530877586E-01  0.51100000000E-03 0. -1.
</event>
<event>
 8    1  0.1123285E+005  0.1043930E+01  0.7957747E-01            NaN
         13   -1    0    0    0    0  0.00000000000E+00  0.00000000000E+00  0.74505805969E-08  0.10566000000E+00  0.10566000000E+00 0.  1.
     999900   -1    0    0    0    0 -0.00000000000E+00 -0.00000000000E+00 -0.74505805969E-08  0.93827000000E+00  0.93827000000E+00 0.  1.
     999902    2    1    2    0    0  0.13240266233E-01  0.77808620675E-02  0.56053809872E-02  0.10275817047E+01  0.10274516500E+01 0.  0.
     999903    2    3    3    0    0 -0.13946276340E-01  0.11958081613E+00  0.64752925647E-01  0.13812300980E+00  0.19772562979E-01 0.  0.
         14    1    1    2    0    0 -0.13240266233E-01 -0.77808620675E-02 -0.56053809872E-02  0.16348295338E-01  0.00000000000E+00 0. -1.
     999901    1    3    3    0    0  0.27186542574E-01 -0.11179995406E+00 -0.59147544660E-01  0.88945869486E+00  0.88000000000E+00 0.  1.
        -11    1    4    4    0    0 -0.56248598751E-02  0.10020671621E+00  0.48355316171E-01  0.11140701390E+00  0.51100000000E-03 0. -1.
         11    1    4    4    0    0 -0.83214164651E-02  0.19374099918E-01  0.16397609476E-01  0.26715995904E-01  0.51100000000E-03 0.  1.
</event>
<event>
 8    1  0.1123285E+005  0.1043930E+01  0.7957747E-01            NaN
         13   -1    0    0    0    0  0.00000000000E+00  0.00000000000E+00  0.74505805969E-08  0.10566000000E+00  0.10566000000E+00 0. -1.
     999900   -1    0    0    0    0 -0.00000000000E+00 -0.00000000000E+00 -0.74505805969E-08  0.93827000000E+00  0.93827000000E+00 0.  1.
     999902    2    1    2    0    0 -0.13078521920E-01 -0.15494958296E-01  0.12030831150E-01  0.10203528423E+01  0.10200804088E+01 0.  0.
     999903    2    3    3    0    0  0.90210441906E-01  0.56447390575E-01  0.69440850247E-01  0.12954409630E+00  0.25207329734E-01 0.  0.
         14    1    1    2    0    0  0.13078521920E-01  0.15494958296E-01 -0.12030831150E-01  0.23577157724E-01  0.00000000000E+00 0.  1.
     999901    1    3    3    0    0 -0.10328896383E+00 -0.71942348871E-01 -0.57410019096E-01  0.89080874597E+00  0.88000000000E+00 0.  1.
        -11    1    4    4    0    0  0.14056014285E-01  0.15018341089E-01  0.24163525015E-01  0.31737346594E-01  0.51100000000E-03 0.  1.
         11    1    4    4    0    0  0.76154427621E-01  0.41429049486E-01  0.45277325232E-01  0.97806749709E-01  0.51100000000E-03 0. -1.
</event>
<event>
 8    1  0.1123285E+005  0.1043930E+01  0.7957747E-01            NaN
         13   -1    0    0    0    0  0.00000000000E+00  0.00000000000E+00  0.74505805969E-08  0.10566000000E+00  0.10566000000E+00 0. -1.
     999900   -1    0    0    0    0 -0.00000000000E+00 -0.00000000000E+00 -0.74505805969E-08  0.93827000000E+00  0.93827000000E+00 0.  1.
     999902    2    1    2    0    0  0.19473780337E-01  0.14393964271E-01  0.69263550055E-02  0.10187429255E+01  0.10184315193E+01 0.  0.
     999903    2    3    3    0    0 -0.75835911860E-01 -0.45787579159E-01 -0.88092298260E-01  0.12647934333E+00  0.19727730344E-01 0.  0.
         14    1    1    2    0    0 -0.19473780337E-01 -0.14393964271E-01 -0.69263550055E-02  0.25187074497E-01  0.00000000000E+00 0.  1.
     999901    1    3    3    0    0  0.95309692198E-01  0.60181543430E-01  0.95018653266E-01  0.89226358217E+00  0.88000000000E+00 0. -1.
        -11    1    4    4    0    0 -0.39279739936E-02 -0.49057332709E-02 -0.10333374799E-02  0.63893744582E-02  0.51100000000E-03 0. -1.
         11    1    4    4    0    0 -0.71907937867E-01 -0.40881845888E-01 -0.87058960780E-01  0.12008996888E+00  0.51100000000E-03 0.  1.
</event>
<event>
 8    1  0.1123285E+005  0.1043930E+01  0.7957747E-01            NaN
         13   -1    0    0    0    0  0.00000000000E+00  0.00000000000E+00  0.74505805969E-08  0.10566000000E+00  0.10566000000E+00 0.  1.
     999900   -1    0    0    0    0 -0.00000000000E+00 -0.00000000000E+00 -0.74505805969E-08  0.93827000000E+00  0.93827000000E+00 0. -1.
     999902    2    1    2    0    0 -0.26137338536E-02  0.10607364816E-01  0.20062113355E-01  0.10210862660E+01  0.10208307040E+01 0.  0.
     999903    2    3    3    0    0 -0.78297112997E-03 -0.83003487911E-01  0.10074075818E+00  0.13244945197E+00  0.22449162989E-01 0.  0.
         14    1    1    2    0    0  0.26137338536E-02 -0.10607364816E-01 -0.20062113355E-01  0.22843734049E-01  0.00000000000E+00 0.  1.
     999901    1    3    3    0    0 -0.18307627236E-02  0.93610852727E-01 -0.80678644821E-01  0.88863681399E+00  0.88000000000E+00 0. -1.
        -11    1    4    4    0    0  0.97071111537E-02 -0.21813558950E-01  0.26619839366E-01  0.35762219309E-01  0.51100000000E-03 0.  1.
         11    1    4    4    0    0 -0.10490082284E-01 -0.61189928962E-01  0.74120918810E-01  0.96687232657E-01  0.51100000000E-03 0. -1.
</event>
<event>
 8    1  0.1123285E+005  0.1043930E+01  0.7957747E-01            NaN
         13   -1    0    0    0    0  0.00000000000E+00  0.00000000000E+00  0.74505805969E-08  0.10566000000E+00  0.10566000000E+00 0.  1.
     999900   -1    0    0    0    0 -0.00000000000E+00 -0.00000000000E+00 -0.74505805969E-08  0.93827000000E+00  0.93827000000E+00 0. -1.
     999902    2    1    2    0    0 -0.67630960936E-03 -0.16498312458E-01 -0.16162751731E-01  0.10208240213E+01  0.10205624901E+01 0.  0.
     999903    2    3    3    0    0  0.35805941630E-01  0.26608235448E-01 -0.12310005454E+00  0.13255338918E+00  0.20657054650E-01 0.  0.
         14    1    1    2    0    0  0.67630960936E-03  0.16498312458E-01  0.16162751731E-01  0.23105978710E-01  0.00000000000E+00 0.  1.
     999901    1    3    3    0    0 -0.36482251240E-01 -0.43106547906E-01  0.10693730281E+00  0.88827063210E+00  0.88000000000E+00 0.  1.
        -11    1    4    4    0    0  0.22467094286E-01  0.38976751229E-02 -0.58410648528E-01  0.62705878349E-01  0.51100000000E-03 0.  1.
         11    1    4    4    0    0  0.13338847345E-01  0.22710560325E-01 -0.64689406013E-01  0.69847510836E-01  0.51100000000E-03 0. -1.
</event>
<event>
 8    1  0.1123285E+005  0.1043930E+01  0.7957747E-01            NaN
         13   -1    0    0    0    0  0.00000000000E+00  0.00000000000E+00  0.74505805969E-08  0.10566000000E+00  0.10566000000E+00 0.  1.
     999900   -1    0    0    0    0 -0.00000000000E+00 -0.00000000000E+00 -0.74505805969E-08  0.93827000000E+00  0.93827000000E+00 0. -1.
     999902    2    1    2    0    0 -0.10744388669E-01 -0.42164958582E-03 -0.20166691294E-01  0.10210757856E+01  0.10208199865E+01 0.  0.
     999903    2    3    3    0    0  0.37108881571E-01 -0.10591592530E+00  0.61400088936E-01  0.12974413170E+00  0.21640620712E-01 0.  0.
         14    1    1    2    0    0  0.10744388669E-01  0.42164958582E-03  0.20166691294E-01  0.22854214360E-01  0.00000000000E+00 0.  1.
     999901    1    3    3    0    0 -0.47853270240E-01  0.10549427572E+00 -0.81566780230E-01  0.89133165394E+00  0.88000000000E+00 0.  1.
        -11    1    4    4    0    0  0.28157322422E-01 -0.56536818380E-01  0.25877338127E-01  0.68257925460E-01  0.51100000000E-03 0. -1.
         11    1    4    4    0    0  0.89515591497E-02 -0.49379106922E-01  0.35522750809E-01  0.61486206239E-01  0.51100000000E-03 0.  1.
</event>
<event>
 8    1  0.1123285E+005  0.1043930E+01  0.7957747E-01            NaN
         13   -1    0    0    0    0  0.00000000000E+00  0.00000000000E+00  0.74505805969E-08  0.10566000000E+00  0.10566000000E+00 0.  1.
     999900   -1    0    0    0    0 -0.00000000000E+00 -0.00000000000E+00 -0.74505805969E-08  0.93827000000E+00  0.93827000000E+00 0. -1.
     999902    2    1    2    0    0 -0.34162530208E-02 -0.17077555398E-01 -0.14646567709E-01  0.10211739980E+01  0.10209204173E+01 0.  0.
     999903    2    3    3    0    0  0.98689534848E-01 -0.16435797236E-01 -0.84600405815E-01  0.13251233949E+00  0.19812413645E-01 0.  0.
         14    1    1    2    0    0  0.34162530208E-02  0.17077555398E-01  0.14646567709E-01  0.22756002037E-01  0.00000000000E+00 0.  1.
     999901    1    3    3    0    0 -0.10210578787E+00 -0.64175816219E-03  0.69953838106E-01  0.88866165847E+00  0.88000000000E+00 0.  1.
        -11    1    4    4    0    0  0.48491135917E-01 -0.16047760816E-01 -0.34863343335E-01  0.61843631193E-01  0.51100000000E-03 0.  1.
         11    1    4    4    0    0  0.50198398931E-01 -0.38803642012E-03 -0.49737062480E-01  0.70668708299E-01  0.51100000000E-03 0. -1.
</event>
<event>
 8    1  0.1123285E+005  0.1043930E+01  0.7957747E-01            NaN
         13   -1    0    0    0    0  0.00000000000E+00  0.00000000000E+00  0.74505805969E-08  0.10566000000E+00  0.10566000000E+00 0.  1.
     999900   -1    0    0    0    0 -0.00000000000E+00 -0.00000000000E+00 -0.74505805969E-08  0.93827000000E+00  0.93827000000E+00 0.  1.
     999902    2    1    2    0    0 -0.18923955453E-01  0.87703565061E-03 -0.15591616900E-01  0.10193946419E+01  0.10190993338E+01 0.  0.
     999903    2    3    3    0    0 -0.12186395928E+00  0.41163878216E-01 -0.25900473753E-01  0.13241891130E+00  0.17850604683E-01 0.  0.
         14    1    1    2    0    0  0.18923955453E-01 -0.87703565061E-03  0.15591616900E-01  0.24535358141E-01  0.00000000000E+00 0.  1.
     999901    1    3    3    0    0  0.10294000383E+00 -0.40286842565E-01  0.10308856853E-01  0.88697573056E+00  0.88000000000E+00 0. -1.
        -11    1    4    4    0    0 -0.50965395057E-01  0.15083326610E-01 -0.19446436338E-01  0.56598615196E-01  0.51100000000E-03 0.  1.
         11    1    4    4    0    0 -0.70898564225E-01  0.26080551605E-01 -0.64540374157E-02  0.75820296103E-01  0.51100000000E-03 0. -1.
</event>
<event>
 8    1  0.1123285E+005  0.1043930E+01  0.7957747E-01            NaN
         13   -1    0    0    0    0  0.00000000000E+00  0.00000000000E+00  0.74505805969E-08  0.10566000000E+00  0.10566000000E+00 0. -1.
     999900   -1    0    0    0    0 -0.00000000000E+00 -0.00000000000E+00 -0.74505805969E-08  0.93827000000E+00  0.93827000000E+00 0. -1.
     999902    2    1    2    0    0 -0.77531248343E-03 -0.16655570457E-01  0.17182789310E-01  0.10199872060E+01  0.10197061552E+01 0.  0.
     999903    2    3    3    0    0 -0.10880201211E-02  0.97867629772E-01  0.83480681227E-01  0.13009335184E+00  0.19390701631E-01 0.  0.
         14    1    1    2    0    0  0.77531248343E-03  0.16655570457E-01 -0.17182789310E-01  0.23942794013E-01  0.00000000000E+00 0.  1.
     999901    1    3    3    0    0  0.31270763770E-03 -0.11452320023E+00 -0.66297891918E-01  0.88989385415E+00  0.88000000000E+00 0. -1.
        -11    1    4    4    0    0  0.26327132936E-02  0.22956312106E-01  0.10305578136E-01  0.25305918409E-01  0.51100000000E-03 0. -1.
         11    1    4    4    0    0 -0.37207334148E-02  0.74911317666E-01  0.73175103092E-01  0.10478743343E+00  0.51100000000E-03 0.  1.
</event>
<event>
 8    1  0.1123285E+005  0.1043930E+01  0.7957747E-01            NaN
         13   -1    0    0    0    0  0.00000000000E+00  0.00000000000E+00  0.74505805969E-08  0.10566000000E+00  0.10566000000E+00 0.  1.
     999900   -1    0    0    0    0 -0.00000000000E+00 -0.00000000000E+00 -0.74505805969E-08  0.93827000000E+00  0.93827000000E+00 0.  1.
     999902    2    1    2    0    0  0.77625743654E-02  0.11596598249E-01 -0.17476514931E-01  0.10215655813E+01  0.10213207476E+01 0.  0.
     999903    2    3    3    0    0 -0.36749445312E-01 -0.53204747501E-01 -0.11412986901E+00  0.13278979110E+00  0.20645453094E-01 0.  0.
         14    1    1    2    0    0 -0.77625743654E-02 -0.11596598249E-01  0.17476514931E-01  0.22364418746E-01  0.00000000000E+00 0.  1.
     999901    1    3    3    0    0  0.44512019678E-01  0.64801345749E-01  0.96653354078E-01  0.88877579015E+00  0.88000000000E+00 0.  1.
        -11    1    4    4    0    0 -0.27507668663E-01 -0.22822786095E-01 -0.67322348325E-01  0.76224084812E-01  0.51100000000E-03 0. -1.
         11    1    4    4    0    0 -0.92417766494E-02 -0.30381961406E-01 -0.46807520683E-01  0.56565706289E-01  0.51100000000E-03 0.  1.
</event>
<event>
 8    1  0.1123285E+005  0.1043930E+01  0.7957747E-01            NaN
         13   -1    0    0    0    0  0.00000000000E+00  0.00000000000E+00  0.74505805969E-08  0.10566000000E+00  0.10566000000E+00 0. -1.
     999900   -1    0    0    0    0 -0.00000000000E+00 -0.00000000000E+00 -0.74505805969E-08  0.93827000000E+00  0.93827000000E+00 0.  1.
     999902    2    1    2    0    0  0.20980264901E-01  0.47589576920E-02 -0.99685282309E-02  0.10202194380E+01  0.10199438764E+01 0.  0.
     999903    2    3    3    0    0  0.82252147252E-01 -0.84711465204E-01  0.53325956922E-01  0.13130696091E+00  0.21363806703E-01 0.  0.
         14    1    1    2    0    0 -0.20980264901E-01 -0.47589576920E-02  0.99685282309E-02  0.23710561965E-01  0.00000000000E+00 0.  1.
     999901    1    3    3    0    0 -0.61271882351E-01  0.89470422896E-01 -0.63294485153E-01  0.88891247713E+00  0.88000000000E+00 0.  1.
        -11    1    4    4    0    0  0.28610014425E-01 -0.16891368371E-01  0.10762102136E-01  0.34927570975E-01  0.51100000000E-03 0. -1.
         11    1    4    4    0    0  0.53642132827E-01 -0.67820096834E-01  0.42563854786E-01  0.96379389934E-01  0.51100000000E-03 0.  1.
</event>
<event>
 8    1  0.1123285E+005  0.1043930E+01  0.7957747E-01            NaN
         13   -1    0    0    0    0  0.00000000000E+00  0.00000000000E+00  0.74505805969E-08  0.10566000000E+00  0.10566000000E+00 0. -1.
     999900   -1    0    0    0    0 -0.00000000000E+00 -0.00000000000E+00 -0.74505805969E-08  0.93827000000E+00  0.93827000000E+00 0.  1.
     999902    2    1    2    0    0 -0.19789919071E-01  0.10154415836E-01 -0.87480859800E-02  0.10200284924E+01  0.10197484215E+01 0.  0.
     999903    2    3    3    0    0 -0.11759804483E-01 -0.14012604504E-01  0.12631076670E+00  0.12936052883E+00  0.21097169209E-01 0.  0.
         14    1    1    2    0    0  0.19789919071E-01 -0.10154415836E-01  0.87480859800E-02  0.23901507612E-01  0.00000000000E+00 0. -1.
     999901    1    3    3    0    0 -0.80301145883E-02  0.24167020340E-01 -0.13505885268E+00  0.89066796355E+00  0.88000000000E+00 0.  1.
        -11    1    4    4    0    0 -0.12167609447E-01  0.14875480210E-02  0.62300341743E-01  0.63496907177E-01  0.51100000000E-03 0. -1.
         11    1    4    4    0    0  0.40780496421E-03 -0.15500152525E-01  0.64010424961E-01  0.65863621658E-01  0.51100000000E-03 0.  1.
</event>
<event>
 8    1  0.1123285E+005  0.1043930E+01  0.7957747E-01            NaN
         13   -1    0    0    0    0  0.00000000000E+00  0.00000000000E+00  0.74505805969E-08  0.10566000000E+00  0.10566000000E+00 0.  1.
     999900   -1    0    0    0    0 -0.00000000000E+00 -0.00000000000E+00 -0.74505805969E-08  0.93827000000E+00  0.93827000000E+00 0. -1.
     999902    2    1    2    0    0  0.15006181558E-01 -0.13206851991E-01 -0.13925041024E-01  0.10195678738E+01  0.10192767711E+01 0.  0.
     999903    2    3    3    0    0  0.43014673543E-01 -0.56169206014E-01 -0.11059302292E+00  0.13279003343E+00  0.19928231632E-01 0.  0.
         14    1    1    2    0    0 -0.15006181558E-01  0.13206851991E-01  0.13925041024E-01  0.24362126179E-01  0.00000000000E+00 0.  1.
     999901    1    3    3    0    0 -0.28008491985E-01  0.42962354024E-01  0.96667981892E-01  0.88677784039E+00  0.88000000000E+00 0.  1.
        -11    1    4    4    0    0  0.22667007189E-01 -0.14337412991E-01 -0.44654134289E-01  0.52092297476E-01  0.51100000000E-03 0. -1.
         11    1    4    4    0    0  0.20347666354E-01 -0.41831793023E-01 -0.65938888627E-01  0.80697735953E-01  0.51100000000E-03 0.  1.
</event>
<event>
 8    1  0.1123285E+005  0.1043930E+01  0.7957747E-01            NaN
         13   -1    0    0    0    0  0.00000000000E+00  0.00000000000E+00  0.74505805969E-08  0.10566000000E+00  0.10566000000E+00 0.  1.
     999900   -1    0    0    0    0 -0.00000000000E+00 -0.00000000000E+00 -0.74505805969E-08  0.93827000000E+00  0.93827000000E+00 0. -1.
     999902    2    1    2    0    0  0.10069401677E-01  0.59761683168E-02 -0.21054495315E-01  0.10198385241E+01  0.10195539299E+01 0.  0.
     999903    2    3    3    0    0 -0.44495363242E-01 -0.33019412070E-01 -0.11808598574E+00  0.13196855671E+00  0.20031999645E-01 0.  0.
         14    1    1    2    0    0 -0.10069401677E-01 -0.59761683168E-02  0.21054495315E-01  0.24091475896E-01  0.00000000000E+00 0.  1.
     999901    1    3    3    0    0  0.54564764918E-01  0.38995580387E-01  0.97031490423E-01  0.88786996739E+00  0.88000000000E+00 0.  1.
        -11    1    4    4    0    0 -0.13140823751E-01 -0.67298069291E-02 -0.53568933354E-01  0.55568545886E-01  0.51100000000E-03 0.  1.
         11    1    4    4    0    0 -0.31354539491E-01 -0.26289605141E-01 -0.64517052384E-01  0.76400010828E-01  0.51100000000E-03 0. -1.
</event>
<event>
 8    1  0.1123285E+005  0.1043930E+01  0.7957747E-01            NaN
         13   -1    0    0    0    0  0.00000000000E+00  0.00000000000E+00  0.74505805969E-08  0.10566000000E+00  0.10566000000E+00 0.  1.
     999900   -1    0    0    0    0 -0.00000000000E+00 -0.00000000000E+00 -0.74505805969E-08  0.93827000000E+00  0.93827000000E+00 0. -1.
     999902    2    1    2    0    0  0.22106608335E-01  0.36661290399E-02 -0.91796654991E-02  0.10197141190E+01  0.10194265425E+01 0.  0.
     999903    2    3    3    0    0  0.11658587560E+00  0.71532021895E-02  0.58154106918E-01  0.13209239296E+00  0.20568554523E-01 0.  0.
         14    1    1    2    0    0 -0.22106608335E-01 -0.36661290399E-02  0.91796654991E-02  0.24215881006E-01  0.00000000000E+00 0.  1.
     999901    1    3    3    0    0 -0.94479267265E-01 -0.34870731496E-02 -0.67333772418E-01  0.88762172604E+00  0.88000000000E+00 0. -1.
        -11    1    4    4    0    0  0.96568116129E-01  0.10125806322E-01  0.40407108944E-01  0.10517094932E+00  0.51100000000E-03 0.  1.
         11    1    4    4    0    0  0.20017759470E-01 -0.29726041326E-02  0.17746997974E-01  0.26921443640E-01  0.51100000000E-03 0. -1.
</event>
<event>
 8    1  0.1123285E+005  0.1043930E+01  0.7957747E-01            NaN
         13   -1    0    0    0    0  0.00000000000E+00  0.00000000000E+00  0.74505805969E-08  0.10566000000E+00  0.10566000000E+00 0.  1.
     999900   -1    0    0    0    0 -0.00000000000E+00 -0.00000000000E+00 -0.74505805969E-08  0.93827000000E+00  0.93827000000E+00 0. -1.
     999902    2    1    2    0    0  0.17586973373E-01 -0.45000382435E-02 -0.15710939069E-01  0.10199219684E+01  0.10196393656E+01 0.  0.
     999903    2    3    3    0    0  0.55334243420E-01  0.34050021339E-01 -0.11385779269E+00  0.13282345728E+00  0.21382034507E-01 0.  0.
         14    1    1    2    0    0 -0.17586973373E-01  0.45000382435E-02  0.15710939069E-01  0.24008031636E-01  0.00000000000E+00 0.  1.
     999901    1    3    3    0    0 -0.37747270047E-01 -0.38550059583E-01  0.98146853621E-01  0.88709851108E+00  0.88000000000E+00 0.  1.
        -11    1    4    4    0    0  0.43003460194E-01  0.19280551575E-01 -0.64815416261E-01  0.80139481928E-01  0.51100000000E-03 0.  1.
         11    1    4    4    0    0  0.12330783226E-01  0.14769469764E-01 -0.49042376430E-01  0.52683975353E-01  0.51100000000E-03 0. -1.
</event>
<event>
 8    1  0.1123285E+005  0.1043930E+01  0.7957747E-01            NaN
         13   -1    0    0    0    0  0.00000000000E+00  0.00000000000E+00  0.74505805969E-08  0.10566000000E+00  0.10566000000E+00 0.  1.
     999900   -1    0    0    0    0 -0.00000000000E+00 -0.00000000000E+00 -0.74505805969E-08  0.93827000000E+00  0.93827000000E+00 0.  1.
     999902    2    1    2    0    0 -0.34644858234E-02 -0.10108666318E-01 -0.21126382339E-01  0.10202548690E+01  0.10199801400E+01 0.  0.
     999903    2    3    3    0    0 -0.12319171522E+00  0.99585686361E-02  0.34734309207E-01  0.13016626654E+00  0.21480524242E-01 0.  0.
         14    1    1    2    0    0  0.34644858234E-02  0.10108666318E-01  0.21126382339E-01  0.23675130992E-01  0.00000000000E+00 0.  1.
     999901    1    3    3    0    0  0.11972722940E+00 -0.20067234954E-01 -0.55860691546E-01  0.89008860246E+00  0.88000000000E+00 0.  1.
        -11    1    4    4    0    0 -0.99904923208E-01  0.51487225482E-02  0.19499687442E-01  0.10192154805E+00  0.51100000000E-03 0. -1.
         11    1    4    4    0    0 -0.23286792012E-01  0.48098460879E-02  0.15234621765E-01  0.28244718496E-01  0.51100000000E-03 0.  1.
</event>
<event>
 8    1  0.1123285E+005  0.1043930E+01  0.7957747E-01            NaN
         13   -1    0    0    0    0  0.00000000000E+00  0.00000000000E+00  0.74505805969E-08  0.10566000000E+00  0.10566000000E+00 0. -1.
     999900   -1    0    0    0    0 -0.00000000000E+00 -0.00000000000E+00 -0.74505805969E-08  0.93827000000E+00  0.93827000000E+00 0. -1.
     999902    2    1    2    0    0 -0.20147023670E-01 -0.49008132727E-02  0.11186330818E-01  0.10203704047E+01  0.10200983817E+01 0.  0.
     999903    2    3    3    0    0  0.86587311363E-01  0.79948658568E-01  0.48787105133E-01  0.12907613827E+00  0.19781742770E-01 0.  0.
         14    1    1    2    0    0  0.20147023670E-01  0.49008132727E-02 -0.11186330818E-01  0.23559595299E-01  0.00000000000E+00 0.  1.
     999901    1    3    3    0    0 -0.10673433503E+00 -0.84849471841E-01 -0.37600774316E-01  0.89129426643E+00  0.88000000000E+00 0.  1.
        -11    1    4    4    0    0  0.68126685699E-01  0.50757254001E-01  0.34498480847E-01  0.91694876846E-01  0.51100000000E-03 0.  1.
         11    1    4    4    0    0  0.18460625664E-01  0.29191404567E-01  0.14288624286E-01  0.37381261422E-01  0.51100000000E-03 0. -1.
</event>
<event>
 8    1  0.1123285E+005  0.1043930E+01  0.7957747E-01            NaN
         13   -1    0    0    0    0  0.00000000000E+00  0.00000000000E+00  0.74505805969E-08  0.10566000000E+00  0.10566000000E+00 0.  1.
     999900   -1    0    0    0    0 -0.00000000000E+00 -0.00000000000E+00 -0.74505805969E-08  0.93827000000E+00  0.93827000000E+00 0.  1.
     999902    2    1    2    0    0 -0.21057795195E-01  0.43855204471E-02  0.73027209501E-02  0.10212145149E+01  0.10209618466E+01 0.  0.
     999903    2    3    3    0    0 -0.26560922145E-01 -0.59807786022E-01 -0.11159420573E+00  0.13088449513E+00  0.19875373175E-01 0.  0.
         14    1    1    2    0    0  0.21057795195E-01 -0.43855204471E-02 -0.73027209501E-02  0.22715485056E-01  0.00000000000E+00 0. -1.
     999901    1    3    3    0    0  0.55031269506E-02  0.64193306469E-01  0.11889692668E+00  0.89033001981E+00  0.88000000000E+00 0. -1.
        -11    1    4    4    0    0 -0.61284360099E-02 -0.26177427731E-01 -0.61947277437E-01  0.67531783283E-01  0.51100000000E-03 0. -1.
         11    1    4    4    0    0 -0.20432486135E-01 -0.33630358291E-01 -0.49646928297E-01  0.63352711850E-01  0.51100000000E-03 0.  1.
</event>
<event>
 8    1  0.1123285E+005  0.1043930E+01  0.7957747E-01            NaN
         13   -1    0    0    0    0  0.00000000000E+00  0.00000000000E+00  0.74505805969E-08  0.10566000000E+00  0.10566000000E+00 0. -1.
     999900   -1    0    0    0    0 -0.00000000000E+00 -0.00000000000E+00 -0.74505805969E-08  0.93827000000E+00  0.93827000000E+00 0.  1.
     999902    2    1    2    0    0  0.54809479042E-02  0.21169180920E-01  0.58817738889E-02  0.10212855686E+01  0.10210344961E+01 0.  0.
     999903    2    3    3    0    0  0.21772118525E-01 -0.75587876730E-01  0.10233213675E+00  0.13059482373E+00  0.19889432362E-01 0.  0.
         14    1    1    2    0    0 -0.54809479042E-02 -0.21169180920E-01 -0.58817738889E-02  0.22644431431E-01  0.00000000000E+00 0.  1.
     999901    1    3    3    0    0 -0.16291170621E-01  0.96757057649E-01 -0.96450362862E-01  0.89069074484E+00  0.88000000000E+00 0. -1.
        -11    1    4    4    0    0  0.12267033269E-01 -0.49888427837E-01  0.50926885048E-01  0.72340473311E-01  0.51100000000E-03 0. -1.
         11    1    4    4    0    0  0.95050852555E-02 -0.25699448893E-01  0.51405251703E-01  0.58254350419E-01  0.51100000000E-03 0.  1.
</event>
<event>
 8    1  0.1123285E+005  0.1043930E+01  0.7957747E-01            NaN
         13   -1    0    0    0    0  0.00000000000E+00  0.00000000000E+00  0.74505805969E-08  0.10566000000E+00  0.10566000000E+00 0. -1.
     999900   -1    0    0    0    0 -0.00000000000E+00 -0.00000000000E+00 -0.74505805969E-08  0.93827000000E+00  0.93827000000E+00 0. -1.
     999902    2    1    2    0    0  0.17159708231E-01  0.13554272356E-01  0.98113480214E-02  0.10199625964E+01  0.10196809607E+01 0.  0.
     999903    2    3    3    0    0 -0.62279192279E-01  0.11304430012E+00 -0.47250929180E-02  0.13068192492E+00  0.19943104537E-01 0.  0.
         14    1    1    2    0    0 -0.17159708231E-01 -0.13554272356E-01 -0.98113480214E-02  0.23967403607E-01  0.00000000000E+00 0.  1.
     999901    1    3    3    0    0  0.79438900509E-01 -0.99490027760E-01  0.14536440939E-01  0.88928067147E+00  0.88000000000E+00 0. -1.
        -11    1    4    4    0    0 -0.47118241304E-01  0.10014784487E+00 -0.44619159829E-02  0.11076953241E+00  0.51100000000E-03 0.  1.
         11    1    4    4    0    0 -0.15160950975E-01  0.12896455250E-01 -0.26317693517E-03  0.19912392512E-01  0.51100000000E-03 0. -1.
</event>
<event>
 8    1  0.1123285E+005  0.1043930E+01  0.7957747E-01            NaN
         13   -1    0    0    0    0  0.00000000000E+00  0.00000000000E+00  0.74505805969E-08  0.10566000000E+00  0.10566000000E+00 0.  1.
     999900   -1    0    0    0    0 -0.00000000000E+00 -0.00000000000E+00 -0.74505805969E-08  0.93827000000E+00  0.93827000000E+00 0. -1.
     999902    2    1    2    0    0 -0.16515160148E-01 -0.14342113979E-01  0.19731405452E-02  0.10219677590E+01  0.10217317458E+01 0.  0.
     999903    2    3    3    0    0 -0.18717777191E-02  0.99676259374E-01 -0.81713410280E-01  0.13055424273E+00  0.20699484097E-01 0.  0.
         14    1    1    2    0    0  0.16515160148E-01  0.14342113979E-01 -0.19731405452E-02  0.21962241045E-01  0.00000000000E+00 0. -1.
     999901    1    3    3    0    0 -0.14643382429E-01 -0.11401837335E+00  0.83686550825E-01  0.89141351622E+00  0.88000000000E+00 0.  1.
        -11    1    4    4    0    0 -0.60510986391E-02  0.83502242328E-01 -0.59303079773E-01  0.10259803439E+00  0.51100000000E-03 0.  1.
         11    1    4    4    0    0  0.41793209200E-02  0.16174017046E-01 -0.22410330507E-01  0.27956208348E-01  0.51100000000E-03 0. -1.
</event>
<event>
 8    1  0.1123285E+005  0.1043930E+01  0.7957747E-01            NaN
         13   -1    0    0    0    0  0.00000000000E+00  0.00000000000E+00  0.74505805969E-08  0.10566000000E+00  0.10566000000E+00 0. -1.
     999900   -1    0    0    0    0 -0.00000000000E+00 -0.00000000000E+00 -0.74505805969E-08  0.93827000000E+00  0.93827000000E+00 0. -1.
     999902    2    1    2    0    0 -0.19683508668E-01  0.12846771147E-01 -0.29910054798E-02  0.10202355670E+01  0.10199603845E+01 0.  0.
     999903    2    3    3    0    0 -0.11526681817E-02 -0.12347082734E+00 -0.31410843308E-01  0.12909384599E+00  0.20789568222E-01 0.  0.
         14    1    1    2    0    0  0.19683508668E-01 -0.12846771147E-01  0.29910054798E-02  0.23694433021E-01  0.00000000000E+00 0. -1.
     999901    1    3    3    0    0 -0.18530840486E-01  0.13631759849E+00  0.28419837829E-01  0.89114172099E+00  0.88000000000E+00 0.  1.
        -11    1    4    4    0    0 -0.11844124923E-02 -0.26171603416E-01  0.18419307659E-02  0.26268031678E-01  0.51100000000E-03 0.  1.
         11    1    4    4    0    0  0.31744310692E-04 -0.97299223925E-01 -0.33252774074E-01  0.10282581431E+00  0.51100000000E-03 0. -1.
</event>
<event>
 8    1  0.1123285E+005  0.1043930E+01  0.7957747E-01            NaN
         13   -1    0    0    0    0  0.00000000000E+00  0.00000000000E+00  0.74505805969E-08  0.10566000000E+00  0.10566000000E+00 0.  1.
     999900   -1    0    0    0    0 -0.00000000000E+00 -0.00000000000E+00 -0.74505805969E-08  0.93827000000E+00  0.93827000000E+00 0. -1.
     999902    2    1    2    0    0  0.44661840716E-02 -0.45364154288E-02 -0.22918559156E-01  0.10201437389E+01  0.10198663941E+01 0.  0.
     999903    2    3    3    0    0  0.99175709663E-01 -0.39824952517E-01 -0.76860034285E-01  0.13271776571E+00  0.16872825327E-01 0.  0.
         14    1    1    2    0    0 -0.44661840716E-02  0.45364154288E-02  0.22918559156E-01  0.23786261137E-01  0.00000000000E+00 0.  1.
     999901    1    3    3    0    0 -0.94709525591E-01  0.35288537088E-01  0.53941475129E-01  0.88742597315E+00  0.88000000000E+00 0.  1.
        -11    1    4    4    0    0  0.63497550428E-01 -0.17322127394E-01 -0.50665515716E-01  0.83061727719E-01  0.51100000000E-03 0. -1.
         11    1    4    4    0    0  0.35678159235E-01 -0.22502825123E-01 -0.26194518569E-01  0.49656037991E-01  0.51100000000E-03 0.  1.
</event>
<event>
 8    1  0.1123285E+005  0.1043930E+01  0.7957747E-01            NaN
         13   -1    0    0    0    0  0.00000000000E+00  0.00000000000E+00  0.74505805969E-08  0.10566000000E+00  0.10566000000E+00 0. -1.
     999900   -1    0    0    0    0 -0.00000000000E+00 -0.00000000000E+00 -0.74505805969E-08  0.93827000000E+00  0.93827000000E+00 0.  1.
     999902    2    1    2    0    0  0.13119938152E-01 -0.17544872183E-01 -0.10094391836E-01  0.10198083901E+01  0.10195230750E+01 0.  0.
     999903    2    3    3    0    0  0.21313222127E-01 -0.42601880555E-01 -0.12176545123E+00  0.13235956957E+00  0.20568346531E-01 0.  0.
         14    1    1    2    0    0 -0.13119938152E-01  0.17544872183E-01  0.10094391836E-01  0.24121609888E-01  0.00000000000E+00 0. -1.
     999901    1    3    3    0    0 -0.81932839749E-02  0.25057008372E-01  0.11167105940E+00  0.88744882054E+00  0.88000000000E+00 0. -1.
        -11    1    4    4    0    0  0.75850173950E-02 -0.62575764372E-03 -0.15290164207E-01  0.17087255601E-01  0.51100000000E-03 0.  1.
         11    1    4    4    0    0  0.13728204732E-01 -0.41976122912E-01 -0.10647528703E+00  0.11527231397E+00  0.51100000000E-03 0. -1.
</event>
<event>
 8    1  0.1123285E+005  0.1043930E+01  0.7957747E-01            NaN
         13   -1    0    0    0    0  0.00000000000E+00  0.00000000000E+00  0.74505805969E-08  0.10566000000E+00  0.10566000000E+00 0.  1.
     999900   -1    0    0    0    0 -0.00000000000E+00 -0.00000000000E+00 -0.74505805969E-08  0.93827000000E+00  0.93827000000E+00 0. -1.
     999902    2    1    2    0    0  0.21621052949E-01  0.71538534125E-02 -0.54980906164E-02  0.10205018855E+01  0.10202329252E+01 0.  0.
     999903    2    3    3    0    0 -0.20920568553E-01 -0.11273171094E+00  0.55861524258E-01  0.12924022893E+00  0.20890620914E-01 0.  0.
         14    1    1    2    0    0 -0.21621052949E-01 -0.71538534125E-02  0.54980906164E-02  0.23428114514E-01  0.00000000000E+00 0.  1.
     999901    1    3    3    0    0  0.42541621502E-01  0.11988556435E+00 -0.61359614874E-01  0.89126165655E+00  0.88000000000E+00 0. -1.
        -11    1    4    4    0    0  0.32417406566E-02 -0.27387355529E-01  0.96391748626E-02  0.29219016725E-01  0.51100000000E-03 0. -1.
         11    1    4    4    0    0 -0.24162309210E-01 -0.85344355413E-01  0.46222349395E-01  0.10002121221E+00  0.51100000000E-03 0.  1.
</event>
<event>
 8    1  0.1123285E+005  0.1043930E+01  0.7957747E-01            NaN
         13   -1    0    0    0    0  0.00000000000E+00  0.00000000000E+00  0.74505805969E-08  0.10566000000E+00  0.10566000000E+00 0.  1.
     999900   -1    0    0    0    0 -0.00000000000E+00 -0.00000000000E+00 -0.74505805969E-08  0.93827000000E+00  0.93827000000E+00 0.  1.
     999902    2    1    2    0    0  0.73889454170E-02  0.35242732689E-02 -0.19506906338E-01  0.10227749436E+01  0.10225561348E+01 0.  0.
     999903    2    3    3    0    0 -0.77088396762E-01 -0.10482474166E+00 -0.25805424390E-03  0.13190657583E+00  0.21643261702E-01 0.  0.
         14    1    1    2    0    0 -0.73889454170E-02 -0.35242732689E-02  0.19506906338E-01  0.21155056401E-01  0.00000000000E+00 0.  1.
     999901    1    3    3    0    0  0.84477342179E-01  0.10834901493E+00 -0.19248852094E-01  0.89086836777E+00  0.88000000000E+00 0.  1.
        -11    1    4    4    0    0 -0.53211532109E-01 -0.82078756480E-01 -0.76135398322E-02  0.98115322577E-01  0.51100000000E-03 0.  1.
         11    1    4    4    0    0 -0.23876864653E-01 -0.22745985179E-01  0.73554855883E-02  0.33791253257E-01  0.51100000000E-03 0. -1.
</event>
<event>
 8    1  0.1123285E+005  0.1043930E+01  0.7957747E-01            NaN
         13   -1    0    0    0    0  0.00000000000E+00  0.00000000000E+00  0.74505805969E-08  0.10566000000E+00  0.10566000000E+00 0.  1.
     999900   -1    0    0    0    0 -0.00000000000E+00 -0.00000000000E+00 -0.74505805969E-08  0.93827000000E+00  0.93827000000E+00 0.  1.
     999902    2    1    2    0    0  0.17851557921E-01  0.12991218952E-01 -0.28642504122E-02  0.10216667159E+01  0.10214241159E+01 0.  0.
     999903    2    3    3    0    0 -0.11696463756E+00  0.25444724840E-01 -0.47765930919E-01  0.13018106972E+00  0.18367533710E-01 0.  0.
         14    1    1    2    0    0 -0.17851557921E-01 -0.12991218952E-01  0.28642504122E-02  0.22263284135E-01  0.00000000000E+00 0.  1.
     999901    1    3    3    0    0  0.13481619548E+00 -0.12453505888E-01  0.44901680507E-01  0.89148564615E+00  0.88000000000E+00 0.  1.
        -11    1    4    4    0    0 -0.17688896639E-01 -0.15541228137E-02 -0.31534255633E-02  0.18042105637E-01  0.51100000000E-03 0. -1.
         11    1    4    4    0    0 -0.99275740922E-01  0.26998847654E-01 -0.44612505356E-01  0.11213896408E+00  0.51100000000E-03 0.  1.
</event>
<event>
 8    1  0.1123285E+005  0.1043930E+01  0.7957747E-01            NaN
         13   -1    0    0    0    0  0.00000000000E+00  0.00000000000E+00  0.74505805969E-08  0.10566000000E+00  0.10566000000E+00 0. -1.
     999900   -1    0    0    0    0 -0.00000000000E+00 -0.00000000000E+00 -0.74505805969E-08  0.93827000000E+00  0.93827000000E+00 0.  1.
     999902    2    1    2    0    0 -0.11030329032E-02 -0.11773241596E-02 -0.23018136341E-01  0.10208553955E+01  0.10205945821E+01 0.  0.
     999903    2    3    3    0    0  0.68932642183E-01 -0.52722474329E-01 -0.99363226619E-01  0.13327978117E+00  0.18949427585E-01 0.  0.
         14    1    1    2    0    0  0.11030329032E-02  0.11773241596E-02  0.23018136341E-01  0.23074604534E-01  0.00000000000E+00 0. -1.
     999901    1    3    3    0    0 -0.70035675086E-01  0.51545150170E-01  0.76345090277E-01  0.88757561430E+00  0.88000000000E+00 0. -1.
        -11    1    4    4    0    0  0.44351618385E-01 -0.27630682166E-01 -0.47372041114E-01  0.70532914661E-01  0.51100000000E-03 0.  1.
         11    1    4    4    0    0  0.24581023798E-01 -0.25091792163E-01 -0.51991185505E-01  0.62746866505E-01  0.51100000000E-03 0. -1.
</event>
<event>
 7    1  0.1123285E+005  0.1043930E+01  0.7957747E-01            NaN
         13   -1    0    0    0    0  0.00000000000E+00  0.00000000000E+00  0.74505805969E-08  0.10566000000E+00  0.10566000000E+00 0. -1.
     999900   -1    0    0    0    0 -0.00000000000E+00 -0.00000000000E+00 -0.74505805969E-08  0.93827000000E+00  0.93827000000E+00 0. -1.
     999903    2    1    2    0    0 -0.13400926436E-01  0.23612695520E-01 -0.90267738154E-01  0.96407731839E-01  0.20224786471E-01 0.  0.
         14    1    1    2    0    0  0.46888328339E-01 -0.14459243851E-01  0.43538882670E-01  0.65598928126E-01  0.00000000000E+00 0. -1.
     999901    1    1    2    0    0 -0.33487401902E-01 -0.91534516693E-02  0.46728855484E-01  0.88192334003E+00  0.88000000000E+00 0.  1.
        -11    1    3    3    0    0 -0.16036042112E-01  0.20435722263E-01 -0.54249604017E-01  0.60150262244E-01  0.51100000000E-03 0.  1.
         11    1    3    3    0    0  0.26351156759E-02  0.31769732576E-02 -0.36018134137E-01  0.36257469595E-01  0.51100000000E-03 0. -1.
</event>
<event>
 8    1  0.1123285E+005  0.1043930E+01  0.7957747E-01            NaN
         13   -1    0    0    0    0  0.00000000000E+00  0.00000000000E+00  0.74505805969E-08  0.10566000000E+00  0.10566000000E+00 0. -1.
     999900   -1    0    0    0    0 -0.00000000000E+00 -0.00000000000E+00 -0.74505805969E-08  0.93827000000E+00  0.93827000000E+00 0.  1.
     999902    2    1    2    0    0 -0.17332221977E-01  0.14968064407E-01 -0.51290951440E-02  0.10204617984E+01  0.10201919062E+01 0.  0.
     999903    2    3    3    0    0  0.12013678372E+00  0.41080931049E-01 -0.11168334607E-01  0.12938599815E+00  0.22260168913E-01 0.  0.
         14    1    1    2    0    0  0.17332221977E-01 -0.14968064407E-01  0.51290951440E-02  0.23468201630E-01  0.00000000000E+00 0. -1.
     999901    1    3    3    0    0 -0.13746900570E+00 -0.26112866641E-01  0.60392394626E-02  0.89107580022E+00  0.88000000000E+00 0.  1.
        -11    1    4    4    0    0  0.70180931341E-01  0.22321673339E-01 -0.17354846054E-01  0.75664205719E-01  0.51100000000E-03 0. -1.
         11    1    4    4    0    0  0.49955852378E-01  0.18759257710E-01  0.61865114471E-02  0.53721792427E-01  0.51100000000E-03 0.  1.
</event>
<event>
 8    1  0.1123285E+005  0.1043930E+01  0.7957747E-01            NaN
         13   -1    0    0    0    0  0.00000000000E+00  0.00000000000E+00  0.74505805969E-08  0.10566000000E+00  0.10566000000E+00 0.  1.
     999900   -1    0    0    0    0 -0.00000000000E+00 -0.00000000000E+00 -0.74505805969E-08  0.93827000000E+00  0.93827000000E+00 0.  1.
     999902    2    1    2    0    0 -0.18744058981E-01 -0.94690841887E-02  0.15314718485E-01  0.10179387725E+01  0.10176068989E+01 0.  0.
     999903    2    3    3    0    0  0.81092819016E-02 -0.11515901969E+00 -0.52900617228E-01  0.12858800012E+00  0.20224692896E-01 0.  0.
         14    1    1    2    0    0  0.18744058981E-01  0.94690841887E-02 -0.15314718485E-01  0.25991227457E-01  0.00000000000E+00 0. -1.
     999901    1    3    3    0    0 -0.26853340882E-01  0.10568993550E+00  0.68215335713E-01  0.88935077242E+00  0.88000000000E+00 0. -1.
        -11    1    4    4    0    0  0.11051452606E-01 -0.52984886189E-01 -0.17015920649E-01  0.56739187919E-01  0.51100000000E-03 0. -1.
         11    1    4    4    0    0 -0.29421707049E-02 -0.62174133502E-01 -0.35884696580E-01  0.71848812201E-01  0.51100000000E-03 0.  1.
</event>
<event>
 8    1  0.1123285E+005  0.1043930E+01  0.7957747E-01            NaN
         13   -1    0    0    0    0  0.00000000000E+00  0.00000000000E+00  0.74505805969E-08  0.10566000000E+00  0.10566000000E+00 0. -1.
     999900   -1    0    0    0    0 -0.00000000000E+00 -0.00000000000E+00 -0.74505805969E-08  0.93827000000E+00  0.93827000000E+00 0.  1.
     999902    2    1    2    0    0  0.85609501603E-02 -0.21131811530E-01 -0.88072225362E-02  0.10194880178E+01  0.10191949803E+01 0.  0.
     999903    2    3    3    0    0  0.74524218014E-01  0.61512918540E-01 -0.84479463425E-01  0.12993330212E+00  0.20203589784E-01 0.  0.
         14    1    1    2    0    0 -0.85609501603E-02  0.21131811530E-01  0.88072225362E-02  0.24441982223E-01  0.00000000000E+00 0.  1.
     999901    1    3    3    0    0 -0.65963267854E-01 -0.82644730070E-01  0.75672240889E-01  0.88955471566E+00  0.88000000000E+00 0. -1.
        -11    1    4    4    0    0  0.42214072065E-01  0.23789541567E-01 -0.34625261338E-01  0.59557871117E-01  0.51100000000E-03 0. -1.
         11    1    4    4    0    0  0.32310145949E-01  0.37723376973E-01 -0.49854202087E-01  0.70375430999E-01  0.51100000000E-03 0.  1.
</event>
<event>
 8    1  0.1123285E+005  0.1043930E+01  0.7957747E-01            NaN
         13   -1    0    0    0    0  0.00000000000E+00  0.00000000000E+00  0.74505805969E-08  0.10566000000E+00  0.10566000000E+00 0.  1.
     999900   -1    0    0    0    0 -0.00000000000E+00 -0.00000000000E+00 -0.74505805969E-08  0.93827000000E+00  0.93827000000E+00 0. -1.
     999902    2    1    2    0    0 -0.51258158577E-02  0.70770065311E-02 -0.22313247287E-01  0.10199667153E+01  0.10196851775E+01 0.  0.
     999903    2    3    3    0    0  0.11890721281E+00  0.10238182233E-01 -0.49866844608E-01  0.13083602413E+00  0.19688001038E-01 0.  0.
         14    1    1    2    0    0  0.51258158577E-02 -0.70770065311E-02  0.22313247287E-01  0.23963284711E-01  0.00000000000E+00 0.  1.
     999901    1    3    3    0    0 -0.12403302867E+00 -0.31611757017E-02  0.27553597321E-01  0.88913069116E+00  0.88000000000E+00 0. -1.
        -11    1    4    4    0    0  0.45494756459E-02 -0.48983446576E-03  0.17297071382E-02  0.49184015941E-02  0.51100000000E-03 0.  1.
         11    1    4    4    0    0  0.11435773717E+00  0.10728016699E-01 -0.51596551746E-01  0.12591762254E+00  0.51100000000E-03 0. -1.
</event>
<event>
 8    1  0.1123285E+005  0.1043930E+01  0.7957747E-01            NaN
         13   -1    0    0    0    0  0.00000000000E+00  0.00000000000E+00  0.74505805969E-08  0.10566000000E+00  0.10566000000E+00 0.  1.
     999900   -1    0    0    0    0 -0.00000000000E+00 -0.00000000000E+00 -0.74505805969E-08  0.93827000000E+00  0.93827000000E+00 0.  1.
     999902    2    1    2    0    0  0.34502535495E-02 -0.14786030491E-01  0.17927623789E-01  0.10204367958E+01  0.10201663216E+01 0.  0.
     999903    2    3    3    0    0  0.63816896270E-02  0.38407323634E-01 -0.12028432929E+00  0.12805757700E+00  0.20361107122E-01 0.  0.
         14    1    1    2    0    0 -0.34502535495E-02  0.14786030491E-01 -0.17927623789E-01  0.23493204165E-01  0.00000000000E+00 0. -1.
     999901    1    3    3    0    0 -0.29314360775E-02 -0.53193354124E-01  0.13821195308E+00  0.89237921884E+00  0.88000000000E+00 0. -1.
        -11    1    4    4    0    0  0.11236025684E-01  0.22382100304E-01 -0.90310415552E-01  0.93720003017E-01  0.51100000000E-03 0. -1.
         11    1    4    4    0    0 -0.48543360573E-02  0.16025223329E-01 -0.29973913734E-01  0.34337573980E-01  0.51100000000E-03 0.  1.
</event>
<event>
 8    1  0.1123285E+005  0.1043930E+01  0.7957747E-01            NaN
         13   -1    0    0    0    0  0.00000000000E+00  0.00000000000E+00  0.74505805969E-08  0.10566000000E+00  0.10566000000E+00 0. -1.
     999900   -1    0    0    0    0 -0.00000000000E+00 -0.00000000000E+00 -0.74505805969E-08  0.93827000000E+00  0.93827000000E+00 0. -1.
     999902    2    1    2    0    0 -0.21712835121E-01  0.85501486231E-02  0.15961758041E-02  0.10205398305E+01  0.10202717509E+01 0.  0.
     999903    2    3    3    0    0 -0.93819774645E-01  0.57222917567E-01 -0.72648239447E-01  0.13313874739E+00  0.19275553251E-01 0.  0.
         14    1    1    2    0    0  0.21712835121E-01 -0.85501486231E-02 -0.15961758041E-02  0.23390169467E-01  0.00000000000E+00 0.  1.
     999901    1    3    3    0    0  0.72106939524E-01 -0.48672768944E-01  0.74244415251E-01  0.88740108314E+00  0.88000000000E+00 0.  1.
        -11    1    4    4    0    0 -0.17173706157E-01  0.26152163737E-02 -0.95184258989E-02  0.19815072355E-01  0.51100000000E-03 0. -1.
         11    1    4    4    0    0 -0.76646068488E-01  0.54607701193E-01 -0.63129813548E-01  0.11332367504E+00  0.51100000000E-03 0.  1.
</event>
<event>
 8    1  0.1123285E+005  0.1043930E+01  0.7957747E-01            NaN
         13   -1    0    0    0    0  0.00000000000E+00  0.00000000000E+00  0.74505805969E-08  0.10566000000E+00  0.10566000000E+00 0. -1.
     999900   -1    0    0    0    0 -0.00000000000E+00 -0.00000000000E+00 -0.74505805969E-08  0.93827000000E+00  0.93827000000E+00 0.  1.
     999902    2    1    2    0    0  0.15269776168E-01  0.14453108095E-01 -0.11902638751E-01  0.10197694701E+01  0.10194832224E+01 0.  0.
     999903    2    3    3    0    0 -0.12031496708E+00  0.41355073354E-01  0.42441532220E-02  0.12883307658E+00  0.19849820860E-01 0.  0.
         14    1    1    2    0    0 -0.15269776168E-01 -0.14453108095E-01  0.11902638751E-01  0.24160529942E-01  0.00000000000E+00 0.  1.
     999901    1    3    3    0    0  0.13558474325E+00 -0.26901965259E-01 -0.16146791973E-01  0.89093639348E+00  0.88000000000E+00 0. -1.
        -11    1    4    4    0    0 -0.67438164230E-01  0.30187367842E-01 -0.47655059967E-02  0.74041571704E-01  0.51100000000E-03 0. -1.
         11    1    4    4    0    0 -0.52876802851E-01  0.11167705511E-01  0.90096592187E-02  0.54791504874E-01  0.51100000000E-03 0.  1.
</event>
<event>
 8    1  0.1123285E+005  0.1043930E+01  0.7957747E-01            NaN
         13   -1    0    0    0    0  0.00000000000E+00  0.00000000000E+00  0.74505805969E-08  0.10566000000E+00  0.10566000000E+00 0. -1.
     999900   -1    0    0    0    0 -0.00000000000E+00 -0.00000000000E+00 -0.74505805969E-08  0.93827000000E+00  0.93827000000E+00 0.  1.
     999902    2    1    2    0    0 -0.93930726555E-02 -0.12092207064E-01  0.17254813639E-01  0.10208609758E+01  0.10206002900E+01 0.  0.
     999903    2    3    3    0    0  0.54779145121E-01 -0.10918486968E+00 -0.43302711640E-01  0.13113502215E+00  0.19979456721E-01 0.  0.
         14    1    1    2    0    0  0.93930726555E-02  0.12092207064E-01 -0.17254813639E-01  0.23069024238E-01  0.00000000000E+00 0.  1.
     999901    1    3    3    0    0 -0.64172217777E-01  0.97092662616E-01  0.60557525279E-01  0.88972595362E+00  0.88000000000E+00 0. -1.
        -11    1    4    4    0    0  0.52834327771E-01 -0.93249851810E-01 -0.33382775954E-01  0.11225716861E+00  0.51100000000E-03 0. -1.
         11    1    4    4    0    0  0.19448173507E-02 -0.15935017870E-01 -0.99199356864E-02  0.18877853535E-01  0.51100000000E-03 0.  1.
</event>
<event>
 8    1  0.1123285E+005  0.1043930E+01  0.7957747E-01            NaN
         13   -1    0    0    0    0  0.00000000000E+00  0.00000000000E+00  0.74505805969E-08  0.10566000000E+00  0.10566000000E+00 0. -1.
     999900   -1    0    0    0    0 -0.00000000000E+00 -0.00000000000E+00 -0.74505805969E-08  0.93827000000E+00  0.93827000000E+00 0. -1.
     999902    2    1    2    0    0 -0.47699301283E-02  0.12254336175E-01  0.19761017053E-01  0.10201935558E+01  0.10199173851E+01 0.  0.
     999903    2    3    3    0    0  0.21927917160E-01  0.90136446967E-01 -0.88376768007E-01  0.12975985316E+00  0.20536643974E-01 0.  0.
         14    1    1    2    0    0  0.47699301283E-02 -0.12254336175E-01 -0.19761017053E-01  0.23736444205E-01  0.00000000000E+00 0. -1.
     999901    1    3    3    0    0 -0.26697847288E-01 -0.77882110792E-01  0.10813778506E+00  0.89043370264E+00  0.88000000000E+00 0.  1.
        -11    1    4    4    0    0  0.17815750190E-01  0.51665637440E-01 -0.63400913578E-01  0.83705889939E-01  0.51100000000E-03 0.  1.
         11    1    4    4    0    0  0.41121669705E-02  0.38470809527E-01 -0.24975854429E-01  0.46053963221E-01  0.51100000000E-03 0. -1.
</event>
<event>
 8    1  0.1123285E+005  0.1043930E+01  0.7957747E-01            NaN
         13   -1    0    0    0    0  0.00000000000E+00  0.00000000000E+00  0.74505805969E-08  0.10566000000E+00  0.10566000000E+00 0. -1.
     999900   -1    0    0    0    0 -0.00000000000E+00 -0.00000000000E+00 -0.74505805969E-08  0.93827000000E+00  0.93827000000E+00 0.  1.
     999902    2    1    2    0    0  0.19620623185E-01 -0.84790724616E-02 -0.12335326464E-01  0.10192515924E+01  0.10189527883E+01 0.  0.
     999903    2    3    3    0    0  0.52121735857E-01 -0.51461337215E-01  0.10525947763E+00  0.12979539033E+00  0.20058443185E-01 0.  0.
         14    1    1    2    0    0 -0.19620623185E-01  0.84790724616E-02  0.12335326464E-01  0.24678407626E-01  0.00000000000E+00 0. -1.
     999901    1    3    3    0    0 -0.32501112672E-01  0.42982264754E-01 -0.11759480409E+00  0.88945620205E+00  0.88000000000E+00 0.  1.
        -11    1    4    4    0    0  0.44245268077E-01 -0.41047660597E-01  0.71341547445E-01  0.93447480975E-01  0.51100000000E-03 0.  1.
         11    1    4    4    0    0  0.78764677799E-02 -0.10413676618E-01  0.33917930184E-01  0.36347909353E-01  0.51100000000E-03 0. -1.
</event>
<event>
 8    1  0.1123285E+005  0.1043930E+01  0.7957747E-01            NaN
         13   -1    0    0    0    0  0.00000000000E+00  0.00000000000E+00  0.74505805969E-08  0.10566000000E+00  0.10566000000E+00 0. -1.
     999900   -1    0    0    0    0 -0.00000000000E+00 -0.00000000000E+00 -0.74505805969E-08  0.93827000000E+00  0.93827000000E+00 0. -1.
     999902    2    1    2    0    0  0.24653333274E-02  0.13005652113E-01  0.19480240638E-01  0.10203778317E+01  0.10201059822E+01 0.  0.
     999903    2    3    3    0    0  0.88854846264E-01  0.13646531312E-01 -0.90820789365E-01  0.12929429137E+00  0.19677054603E-01 0.  0.
         14    1    1    2    0    0 -0.24653333274E-02 -0.13005652113E-01 -0.19480240638E-01  0.23552168278E-01  0.00000000000E+00 0.  1.
     999901    1    3    3    0    0 -0.86389512936E-01 -0.64087919860E-03  0.11030103000E+00  0.89108354035E+00  0.88000000000E+00 0.  1.
        -11    1    4    4    0    0  0.38634044804E-01 -0.38788056535E-02 -0.38390511636E-01  0.54605192573E-01  0.51100000000E-03 0.  1.
         11    1    4    4    0    0  0.50220801460E-01  0.17525336965E-01 -0.52430277729E-01  0.74689098794E-01  0.51100000000E-03 0. -1.
</event>
<event>
 8    1  0.1123285E+005  0.1043930E+01  0.7957747E-01            NaN
         13   -1    0    0    0    0  0.00000000000E+00  0.00000000000E+00  0.74505805969E-08  0.10566000000E+00  0.10566000000E+00 0. -1.
     999900   -1    0    0    0    0 -0.00000000000E+00 -0.00000000000E+00 -0.74505805969E-08  0.93827000000E+00  0.93827000000E+00 0.  1.
     999902    2    1    2    0    0 -0.15306380563E-01  0.16997728658E-01 -0.79425278074E-02  0.10197165365E+01  0.10194290182E+01 0.  0.
     999903    2    3    3    0    0 -0.99309752918E-01  0.85977865105E-01 -0.16156154995E-01  0.13299093666E+00  0.13074692198E-01 0.  0.
         14    1    1    2    0    0  0.15306380563E-01 -0.16997728658E-01  0.79425278074E-02  0.24213463474E-01  0.00000000000E+00 0. -1.
     999901    1    3    3    0    0  0.84003372355E-01 -0.68980136447E-01  0.82136271872E-02  0.88672559987E+00  0.88000000000E+00 0. -1.
        -11    1    4    4    0    0 -0.37689770687E-01  0.24613059911E-01 -0.43272242731E-02  0.45225076269E-01  0.51100000000E-03 0. -1.
         11    1    4    4    0    0 -0.61619982231E-01  0.61364805194E-01 -0.11828930721E-01  0.87765860388E-01  0.51100000000E-03 0.  1.
</event>
<event>
 8    1  0.1123285E+005  0.1043930E+01  0.7957747E-01            NaN
         13   -1    0    0    0    0  0.00000000000E+00  0.00000000000E+00  0.74505805969E-08  0.10566000000E+00  0.10566000000E+00 0. -1.
     999900   -1    0    0    0    0 -0.00000000000E+00 -0.00000000000E+00 -0.74505805969E-08  0.93827000000E+00  0.93827000000E+00 0.  1.
     999902    2    1    2    0    0 -0.13214274826E-01 -0.87612352887E-02  0.17327193320E-01  0.10204436650E+01  0.10201733507E+01 0.  0.
     999903    2    3    3    0    0 -0.12300485376E+00 -0.10950726232E-01  0.45964459983E-01  0.13315630562E+00  0.19177009451E-01 0.  0.
         14    1    1    2    0    0  0.13214274826E-01  0.87612352887E-02 -0.17327193320E-01  0.23486334991E-01  0.00000000000E+00 0.  1.
     999901    1    3    3    0    0  0.10979057893E+00  0.21894909436E-02 -0.28637266663E-01  0.88728735939E+00  0.88000000000E+00 0.  1.
        -11    1    4    4    0    0 -0.60956405293E-01 -0.83270114630E-02  0.13150026865E-01  0.62914281318E-01  0.51100000000E-03 0.  1.
         11    1    4    4    0    0 -0.62048448464E-01 -0.26237147692E-02  0.32814433117E-01  0.70242024300E-01  0.51100000000E-03 0. -1.
</event>
<event>
 7    1  0.1123285E+005  0.1043930E+01  0.7957747E-01            NaN
         13   -1    0    0    0    0  0.00000000000E+00  0.00000000000E+00  0.74505805969E-08  0.10566000000E+00  0.10566000000E+00 0. -1.
     999900   -1    0    0    0    0 -0.00000000000E+00 -0.00000000000E+00 -0.74505805969E-08  0.93827000000E+00  0.93827000000E+00 0.  1.
     999903    2    1    2    0    0  0.30153833909E-01  0.57298530775E-01  0.26972839128E-01  0.72701014833E-01  0.19118791245E-01 0.  0.
         14    1    1    2    0    0  0.52399900835E-02  0.39927246990E-01 -0.73648165929E-01  0.83938637665E-01  0.00000000000E+00 0.  1.
     999901    1    1    2    0    0 -0.35393823992E-01 -0.97225777766E-01  0.46675326801E-01  0.88729034750E+00  0.88000000000E+00 0. -1.
        -11    1    3    3    0    0  0.23661726559E-01  0.45261210517E-01  0.12099666887E-01  0.52489213568E-01  0.51100000000E-03 0.  1.
         11    1    3    3    0    0  0.64921073500E-02  0.12037320258E-01  0.14873172241E-01  0.20211801264E-01  0.51100000000E-03 0. -1.
</event>
<event>
 8    1  0.1123285E+005  0.1043930E+01  0.7957747E-01            NaN
         13   -1    0    0    0    0  0.00000000000E+00  0.00000000000E+00  0.74505805969E-08  0.10566000000E+00  0.10566000000E+00 0. -1.
     999900   -1    0    0    0    0 -0.00000000000E+00 -0.00000000000E+00 -0.74505805969E-08  0.93827000000E+00  0.93827000000E+00 0.  1.
     999902    2    1    2    0    0  0.14085006569E-01 -0.14082943557E-01  0.12785401323E-01  0.10202618105E+01  0.10199872444E+01 0.  0.
     999903    2    3    3    0    0 -0.10218358559E+00  0.43021610797E-01 -0.60813567621E-01  0.12773947243E+00  0.18075913529E-01 0.  0.
         14    1    1    2    0    0 -0.14085006569E-01  0.14082943557E-01 -0.12785401323E-01  0.23668189543E-01  0.00000000000E+00 0.  1.
     999901    1    3    3    0    0  0.11626859216E+00 -0.57104554354E-01  0.73598968944E-01  0.89252233803E+00  0.88000000000E+00 0. -1.
        -11    1    4    4    0    0 -0.72689174868E-01  0.30512450160E-01 -0.52233079074E-01  0.94568924221E-01  0.51100000000E-03 0. -1.
         11    1    4    4    0    0 -0.29494410721E-01  0.12509160637E-01 -0.85804885468E-02  0.33170548207E-01  0.51100000000E-03 0.  1.
</event>
<event>
 8    1  0.1123285E+005  0.1043930E+01  0.7957747E-01            NaN
         13   -1    0    0    0    0  0.00000000000E+00  0.00000000000E+00  0.74505805969E-08  0.10566000000E+00  0.10566000000E+00 0.  1.
     999900   -1    0    0    0    0 -0.00000000000E+00 -0.00000000000E+00 -0.74505805969E-08  0.93827000000E+00  0.93827000000E+00 0. -1.
     999902    2    1    2    0    0 -0.20972502888E-02  0.23336983679E-01 -0.17962156086E-02  0.10204302201E+01  0.10201595926E+01 0.  0.
     999903    2    3    3    0    0  0.10694139651E+00 -0.30320505408E-01  0.63583805190E-01  0.12967598924E+00  0.20424655862E-01 0.  0.
         14    1    1    2    0    0  0.20972502888E-02 -0.23336983679E-01  0.17962156086E-02  0.23499779925E-01  0.00000000000E+00 0. -1.
     999901    1    3    3    0    0 -0.10903864680E+00  0.53657489086E-01 -0.65380020798E-01  0.89075423084E+00  0.88000000000E+00 0. -1.
        -11    1    4    4    0    0  0.15750340194E-01 -0.11724124057E-01  0.14821423639E-01  0.24606178509E-01  0.51100000000E-03 0.  1.
         11    1    4    4    0    0  0.91191056317E-01 -0.18596381351E-01  0.48762381551E-01  0.10506981073E+00  0.51100000000E-03 0. -1.
</event>
<event>
 8    1  0.1123285E+005  0.1043930E+01  0.7957747E-01            NaN
         13   -1    0    0    0    0  0.00000000000E+00  0.00000000000E+00  0.74505805969E-08  0.10566000000E+00  0.10566000000E+00 0.  1.
     999900   -1    0    0    0    0 -0.00000000000E+00 -0.00000000000E+00 -0.74505805969E-08  0.93827000000E+00  0.93827000000E+00 0. -1.
     999902    2    1    2    0    0  0.66215177258E-02 -0.19895444265E-01 -0.12379902788E-01  0.10195797394E+01  0.10192889236E+01 0.  0.
     999903    2    3    3    0    0 -0.98004476659E-01 -0.63951896936E-01  0.52937081268E-01  0.12988660232E+00  0.19325431971E-01 0.  0.
         14    1    1    2    0    0 -0.66215177258E-02  0.19895444265E-01  0.12379902788E-01  0.24350260626E-01  0.00000000000E+00 0.  1.
     999901    1    3    3    0    0  0.10462599438E+00  0.44056452671E-01 -0.65316984056E-01  0.88969313706E+00  0.88000000000E+00 0. -1.
        -11    1    4    4    0    0 -0.14865419134E-01 -0.17332550976E-01  0.58795477327E-02  0.23584490919E-01  0.51100000000E-03 0. -1.
         11    1    4    4    0    0 -0.83139057525E-01 -0.46619345961E-01  0.47057533535E-01  0.10630211140E+00  0.51100000000E-03 0.  1.
</event>
<event>
 8    1  0.1123285E+005  0.1043930E+01  0.7957747E-01            NaN
         13   -1    0    0    0    0  0.00000000000E+00  0.00000000000E+00  0.74505805969E-08  0.10566000000E+00  0.10566000000E+00 0. -1.
     999900   -1    0    0    0    0 -0.00000000000E+00 -0.00000000000E+00 -0.74505805969E-08  0.93827000000E+00  0.93827000000E+00 0.  1.
     999902    2    1    2    0    0  0.21160729904E-01  0.15336220675E-02  0.77886554570E-02  0.10213293000E+01  0.10210792072E+01 0.  0.
     999903    2    3    3    0    0  0.13081988858E-01 -0.94686722450E-01 -0.87284650006E-01  0.13095715636E+00  0.19860836703E-01 0.  0.
         14    1    1    2    0    0 -0.21160729904E-01 -0.15336220675E-02 -0.77886554570E-02  0.22600700002E-01  0.00000000000E+00 0.  1.
     999901    1    3    3    0    0  0.80787410468E-02  0.96220344517E-01  0.95073305463E-01  0.89037214364E+00  0.88000000000E+00 0. -1.
        -11    1    4    4    0    0  0.85772660274E-02 -0.19254909989E-01 -0.11871757859E-01  0.24197537206E-01  0.51100000000E-03 0.  1.
         11    1    4    4    0    0  0.45047228302E-02 -0.75431812461E-01 -0.75412892147E-01  0.10675961915E+00  0.51100000000E-03 0. -1.
</event>
<event>
 8    1  0.1123285E+005  0.1043930E+01  0.7957747E-01            NaN
         13   -1    0    0    0    0  0.00000000000E+00  0.00000000000E+00  0.74505805969E-08  0.10566000000E+00  0.10566000000E+00 0.  1.
     999900   -1    0    0    0    0 -0.00000000000E+00 -0.00000000000E+00 -0.74505805969E-08  0.93827000000E+00  0.93827000000E+00 0.  1.
     999902    2    1    2    0    0 -0.21912694067E-01 -0.78576659046E-02 -0.10611437692E-01  0.10183465740E+01  0.10180251633E+01 0.  0.
     999903    2    3    3    0    0  0.33441826170E-01 -0.10718926530E+00  0.58820224455E-01  0.12831756031E+00  0.19941994522E-01 0.  0.
         14    1    1    2    0    0  0.21912694067E-01  0.78576659046E-02  0.10611437692E-01  0.25583425975E-01  0.00000000000E+00 0.  1.
     999901    1    3    3    0    0 -0.55354520237E-01  0.99331599395E-01 -0.69431662147E-01  0.89002901372E+00  0.88000000000E+00 0. -1.
        -11    1    4    4    0    0  0.61793603807E-02 -0.53146126535E-01  0.27129281647E-01  0.59991285235E-01  0.51100000000E-03 0.  1.
         11    1    4    4    0    0  0.27262465789E-01 -0.54043138764E-01  0.31690942807E-01  0.68326275073E-01  0.51100000000E-03 0. -1.
</event>
<event>
 8    1  0.1123285E+005  0.1043930E+01  0.7957747E-01            NaN
         13   -1    0    0    0    0  0.00000000000E+00  0.00000000000E+00  0.74505805969E-08  0.10566000000E+00  0.10566000000E+00 0. -1.
     999900   -1    0    0    0    0 -0.00000000000E+00 -0.00000000000E+00 -0.74505805969E-08  0.93827000000E+00  0.93827000000E+00 0.  1.
     999902    2    1    2    0    0 -0.20488627839E-01 -0.56658038918E-02  0.92742186289E-02  0.10207374077E+01  0.10204738895E+01 0.  0.
     999903    2    3    3    0    0  0.53271188296E-01  0.72726890098E-01 -0.89770545644E-01  0.12866353733E+00  0.19197263519E-01 0.  0.
         14    1    1    2    0    0  0.20488627839E-01  0.56658038918E-02 -0.92742186289E-02  0.23192592258E-01  0.00000000000E+00 0.  1.
     999901    1    3    3    0    0 -0.73759816135E-01 -0.78392693990E-01  0.99044764272E-01  0.89207387041E+00  0.88000000000E+00 0. -1.
        -11    1    4    4    0    0  0.33566639233E-01  0.30108131709E-01 -0.47273804831E-01  0.65332171314E-01  0.51100000000E-03 0. -1.
         11    1    4    4    0    0  0.19704549062E-01  0.42618758389E-01 -0.42496740812E-01  0.63331366013E-01  0.51100000000E-03 0.  1.
</event>
<event>
 8    1  0.1123285E+005  0.1043930E+01  0.7957747E-01            NaN
         13   -1    0    0    0    0  0.00000000000E+00  0.00000000000E+00  0.74505805969E-08  0.10566000000E+00  0.10566000000E+00 0. -1.
     999900   -1    0    0    0    0 -0.00000000000E+00 -0.00000000000E+00 -0.74505805969E-08  0.93827000000E+00  0.93827000000E+00 0. -1.
     999902    2    1    2    0    0  0.21865794522E-01 -0.78242114037E-02  0.67833290437E-02  0.10197360998E+01  0.10194490514E+01 0.  0.
     999903    2    3    3    0    0 -0.10305047733E+00 -0.37242660129E-01 -0.62528840321E-01  0.12773066432E+00  0.19971232418E-01 0.  0.
         14    1    1    2    0    0 -0.21865794522E-01  0.78242114037E-02 -0.67833290437E-02  0.24193900204E-01  0.00000000000E+00 0.  1.
     999901    1    3    3    0    0  0.12491627185E+00  0.29418448726E-01  0.69312169365E-01  0.89200543548E+00  0.88000000000E+00 0.  1.
        -11    1    4    4    0    0 -0.21283941839E-01  0.49224184912E-03 -0.10843634131E-01  0.23897573191E-01  0.51100000000E-03 0. -1.
         11    1    4    4    0    0 -0.81766535489E-01 -0.37734901979E-01 -0.51685206190E-01  0.10383309113E+00  0.51100000000E-03 0.  1.
</event>
<event>
 8    1  0.1123285E+005  0.1043930E+01  0.7957747E-01            NaN
         13   -1    0    0    0    0  0.00000000000E+00  0.00000000000E+00  0.74505805969E-08  0.10566000000E+00  0.10566000000E+00 0.  1.
     999900   -1    0    0    0    0 -0.00000000000E+00 -0.00000000000E+00 -0.74505805969E-08  0.93827000000E+00  0.93827000000E+00 0. -1.
     999902    2    1    2    0    0 -0.13814750861E-01  0.21039520012E-01  0.42757569293E-02  0.10183998053E+01  0.10180797477E+01 0.  0.
     999903    2    3    3    0    0  0.72042959979E-01  0.10574334136E+00  0.14379843939E-01  0.13011585497E+00  0.18748692678E-01 0.  0.
         14    1    1    2    0    0  0.13814750861E-01 -0.21039520012E-01 -0.42757569293E-02  0.25530194692E-01  0.00000000000E+00 0. -1.
     999901    1    3    3    0    0 -0.85857710840E-01 -0.84703821348E-01 -0.10104087009E-01  0.88828395034E+00  0.88000000000E+00 0. -1.
        -11    1    4    4    0    0  0.83999974458E-03  0.93308342495E-02  0.22422897398E-02  0.96467119600E-02  0.51100000000E-03 0. -1.
         11    1    4    4    0    0  0.71202960234E-01  0.96412507111E-01  0.12137554199E-01  0.12046914301E+00  0.51100000000E-03 0.  1.
</event>
<event>
 8    1  0.1123285E+005  0.1043930E+01  0.7957747E-01            NaN
         13   -1    0    0    0    0  0.00000000000E+00  0.00000000000E+00  0.74505805969E-08  0.10566000000E+00  0.10566000000E+00 0. -1.
     999900   -1    0    0    0    0 -0.00000000000E+00 -0.00000000000E+00 -0.74505805969E-08  0.93827000000E+00  0.93827000000E+00 0.  1.
     999902    2    1    2    0    0  0.76300170219E-02  0.18856560905E-01 -0.73136144213E-02  0.10223134322E+01  0.10220848681E+01 0.  0.
     999903    2    3    3    0    0 -0.22679668565E-02 -0.30169497251E-01 -0.12746810588E+00  0.13274127305E+00  0.21372536467E-01 0.  0.
         14    1    1    2    0    0 -0.76300170219E-02 -0.18856560905E-01  0.73136144213E-02  0.21616567832E-01  0.00000000000E+00 0. -1.
     999901    1    3    3    0    0  0.98979838784E-02  0.49026058156E-01  0.12015449146E+00  0.88957215912E+00  0.88000000000E+00 0. -1.
        -11    1    4    4    0    0 -0.10390321420E-01 -0.77557642850E-02 -0.52062289169E-01  0.53654950688E-01  0.51100000000E-03 0. -1.
         11    1    4    4    0    0  0.81223545631E-02 -0.22413732966E-01 -0.75405816714E-01  0.79086322360E-01  0.51100000000E-03 0.  1.
</event>
<event>
 8    1  0.1123285E+005  0.1043930E+01  0.7957747E-01            NaN
         13   -1    0    0    0    0  0.00000000000E+00  0.00000000000E+00  0.74505805969E-08  0.10566000000E+00  0.10566000000E+00 0.  1.
     999900   -1    0    0    0    0 -0.00000000000E+00 -0.00000000000E+00 -0.74505805969E-08  0.93827000000E+00  0.93827000000E+00 0. -1.
     999902    2    1    2    0    0 -0.21120645811E-01  0.12550821263E-01 -0.99681214288E-04  0.10193614280E+01  0.10190653101E+01 0.  0.
     999903    2    3    3    0    0 -0.25881058305E-01  0.12645258651E+00 -0.16756732678E-01  0.13185157959E+00  0.21070480231E-01 0.  0.
         14    1    1    2    0    0  0.21120645811E-01 -0.12550821263E-01  0.99681214288E-04  0.24568572001E-01  0.00000000000E+00 0.  1.
     999901    1    3    3    0    0  0.47604124939E-02 -0.11390176525E+00  0.16657051464E-01  0.88750984841E+00  0.88000000000E+00 0.  1.
        -11    1    4    4    0    0 -0.25253362676E-01  0.98706288414E-01 -0.59380957163E-02  0.10205971684E+00  0.51100000000E-03 0. -1.
         11    1    4    4    0    0 -0.62769562877E-03  0.27746298096E-01 -0.10818636962E-01  0.29791862757E-01  0.51100000000E-03 0.  1.
</event>
<event>
 8    1  0.1123285E+005  0.1043930E+01  0.7957747E-01            NaN
         13   -1    0    0    0    0  0.00000000000E+00  0.00000000000E+00  0.74505805969E-08  0.10566000000E+00  0.10566000000E+00 0.  1.
     999900   -1    0    0    0    0 -0.00000000000E+00 -0.00000000000E+00 -0.74505805969E-08  0.93827000000E+00  0.93827000000E+00 0.  1.
     999902    2    1    2    0    0 -0.12094784807E-01 -0.55383003152E-02 -0.18364855900E-01  0.10212534808E+01  0.10210016883E+01 0.  0.
     999903    2    3    3    0    0  0.31905762532E-01 -0.11082766515E+00 -0.62719341413E-01  0.13277769674E+00  0.19885972925E-01 0.  0.
         14    1    1    2    0    0  0.12094784807E-01  0.55383003152E-02  0.18364855900E-01  0.22676519181E-01  0.00000000000E+00 0.  1.
     999901    1    3    3    0    0 -0.44000547339E-01  0.10528936483E+00  0.44354485513E-01  0.88847578408E+00  0.88000000000E+00 0.  1.
        -11    1    4    4    0    0  0.22348476646E-01 -0.46363600075E-01 -0.33070466451E-01  0.61179691831E-01  0.51100000000E-03 0.  1.
         11    1    4    4    0    0  0.95572858860E-02 -0.64464065073E-01 -0.29648874962E-01  0.71598004907E-01  0.51100000000E-03 0. -1.
</event>
<event>
 8    1  0.1123285E+005  0.1043930E+01  0.7957747E-01            NaN
         13   -1    0    0    0    0  0.00000000000E+00  0.00000000000E+00  0.74505805969E-08  0.10566000000E+00  0.10566000000E+00 0.  1.
     999900   -1    0    0    0    0 -0.00000000000E+00 -0.00000000000E+00 -0.74505805969E-08  0.93827000000E+00  0.93827000000E+00 0. -1.
     999902    2    1    2    0    0  0.11676864203E-02  0.11700181496E-01  0.20132515872E-01  0.10206152850E+01  0.10203489521E+01 0.  0.
     999903    2    3    3    0    0 -0.76969979232E-01 -0.76300183374E-01 -0.66035306475E-01  0.12860942596E+00  0.20823713866E-01 0.  0.
         14    1    1    2    0    0 -0.11676864203E-02 -0.11700181496E-01 -0.20132515872E-01  0.23314714966E-01  0.00000000000E+00 0. -1.
     999901    1    3    3    0    0  0.78137665652E-01  0.88000364870E-01  0.86167822347E-01  0.89200585907E+00  0.88000000000E+00 0.  1.
        -11    1    4    4    0    0 -0.75507603529E-01 -0.69290697138E-01 -0.64995262818E-01  0.12135585775E+00  0.51100000000E-03 0.  1.
         11    1    4    4    0    0 -0.14623757027E-02 -0.70094862359E-02 -0.10400436566E-02  0.72535682112E-02  0.51100000000E-03 0. -1.
</event>
<event>
 8    1  0.1123285E+005  0.1043930E+01  0.7957747E-01            NaN
         13   -1    0    0    0    0  0.00000000000E+00  0.00000000000E+00  0.74505805969E-08  0.10566000000E+00  0.10566000000E+00 0. -1.
     999900   -1    0    0    0    0 -0.00000000000E+00 -0.00000000000E+00 -0.74505805969E-08  0.93827000000E+00  0.93827000000E+00 0. -1.
     999902    2    1    2    0    0  0.55542283735E-02  0.11011958331E-01 -0.16826796580E-01  0.10230672638E+01  0.10228545217E+01 0.  0.
     999903    2    3    3    0    0  0.38115153501E-01 -0.10309738352E+00  0.68897894878E-01  0.13097428743E+00  0.18041857858E-01 0.  0.
         14    1    1    2    0    0 -0.55542283735E-02 -0.11011958331E-01  0.16826796580E-01  0.20862736212E-01  0.00000000000E+00 0. -1.
     999901    1    3    3    0    0 -0.32560925128E-01  0.11410934185E+00 -0.85724691458E-01  0.89209297636E+00  0.88000000000E+00 0. -1.
        -11    1    4    4    0    0  0.21367343044E-01 -0.70623308263E-01  0.54350603774E-01  0.91643135424E-01  0.51100000000E-03 0. -1.
         11    1    4    4    0    0  0.16747810457E-01 -0.32474075253E-01  0.14547291104E-01  0.39331152006E-01  0.51100000000E-03 0.  1.
</event>
<event>
 8    1  0.1123285E+005  0.1043930E+01  0.7957747E-01            NaN
         13   -1    0    0    0    0  0.00000000000E+00  0.00000000000E+00  0.74505805969E-08  0.10566000000E+00  0.10566000000E+00 0. -1.
     999900   -1    0    0    0    0 -0.00000000000E+00 -0.00000000000E+00 -0.74505805969E-08  0.93827000000E+00  0.93827000000E+00 0. -1.
     999902    2    1    2    0    0  0.19566815288E-02  0.22686633035E-01  0.43405877959E-02  0.10207491324E+01  0.10204858836E+01 0.  0.
     999903    2    3    3    0    0  0.15597174648E-01 -0.10965361182E-01 -0.12715475965E+00  0.13023829799E+00  0.20740548644E-01 0.  0.
         14    1    1    2    0    0 -0.19566815288E-02 -0.22686633035E-01 -0.43405877959E-02  0.23180867618E-01  0.00000000000E+00 0.  1.
     999901    1    3    3    0    0 -0.13640493119E-01  0.33651994218E-01  0.13149534745E+00  0.89051083439E+00  0.88000000000E+00 0.  1.
        -11    1    4    4    0    0  0.85042392675E-02 -0.83236771916E-02 -0.23883012792E-01  0.26688295347E-01  0.51100000000E-03 0. -1.
         11    1    4    4    0    0  0.70929353805E-02 -0.26416839909E-02 -0.10327174686E+00  0.10355000264E+00  0.51100000000E-03 0.  1.
</event>
<event>
 8    1  0.1123285E+005  0.1043930E+01  0.7957747E-01            NaN
         13   -1    0    0    0    0  0.00000000000E+00  0.00000000000E+00  0.74505805969E-08  0.10566000000E+00  0.10566000000E+00 0.  1.
     999900   -1    0    0    0    0 -0.00000000000E+00 -0.00000000000E+00 -0.74505805969E-08  0.93827000000E+00  0.93827000000E+00 0.  1.
     999902    2    1    2    0    0 -0.21184232910E-01  0.80883864219E-02 -0.65486689775E-02  0.10203274835E+01  0.10200544568E+01 0.  0.
     999903    2    3    3    0    0 -0.85433749382E-01 -0.55065578745E-01 -0.82761498457E-01  0.13245090479E+00  0.19042926663E-01 0.  0.
         14    1    1    2    0    0  0.21184232910E-01 -0.80883864219E-02  0.65486689775E-02  0.23602516482E-01  0.00000000000E+00 0.  1.
     999901    1    3    3    0    0  0.64249516472E-01  0.63153965167E-01  0.76212829479E-01  0.88787657873E+00  0.88000000000E+00 0.  1.
        -11    1    4    4    0    0 -0.47860937166E-01 -0.26820155495E-01 -0.55819693352E-01  0.78269338404E-01  0.51100000000E-03 0. -1.
         11    1    4    4    0    0 -0.37572812216E-01 -0.28245423250E-01 -0.26941805105E-01  0.54181566383E-01  0.51100000000E-03 0.  1.
</event>
<event>
 8    1  0.1123285E+005  0.1043930E+01  0.7957747E-01            NaN
         13   -1    0    0    0    0  0.00000000000E+00  0.00000000000E+00  0.74505805969E-08  0.10566000000E+00  0.10566000000E+00 0.  1.
     999900   -1    0    0    0    0 -0.00000000000E+00 -0.00000000000E+00 -0.74505805969E-08  0.93827000000E+00  0.93827000000E+00 0.  1.
     999902    2    1    2    0    0  0.45170827051E-03  0.22593948271E-01  0.19707980782E-02  0.10212457635E+01  0.10209937977E+01 0.  0.
     999903    2    3    3    0    0 -0.10783525509E+00  0.52314338863E-02 -0.71984152648E-01  0.13135989553E+00  0.20442450475E-01 0.  0.
         14    1    1    2    0    0 -0.45170827051E-03 -0.22593948271E-01 -0.19707980782E-02  0.22684236463E-01  0.00000000000E+00 0. -1.
     999901    1    3    3    0    0  0.10828696336E+00  0.17362514384E-01  0.73954950727E-01  0.88988586801E+00  0.88000000000E+00 0.  1.
        -11    1    4    4    0    0 -0.63869898152E-01 -0.50896307893E-02 -0.35163536201E-01  0.73089011696E-01  0.51100000000E-03 0. -1.
         11    1    4    4    0    0 -0.43965356935E-01  0.10321064676E-01 -0.36820616447E-01  0.58270883836E-01  0.51100000000E-03 0.  1.
</event>
<event>
 8    1  0.1123285E+005  0.1043930E+01  0.7957747E-01            NaN
         13   -1    0    0    0    0  0.00000000000E+00  0.00000000000E+00  0.74505805969E-08  0.10566000000E+00  0.10566000000E+00 0. -1.
     999900   -1    0    0    0    0 -0.00000000000E+00 -0.00000000000E+00 -0.74505805969E-08  0.93827000000E+00  0.93827000000E+00 0. -1.
     999902    2    1    2    0    0  0.80197755945E-02  0.19763623191E-01 -0.15769134434E-01  0.10174048572E+01  0.10170590249E+01 0.  0.
     999903    2    3    3    0    0  0.32984451745E-01  0.84625875642E-01 -0.92759734291E-01  0.13131349656E+00  0.19732034580E-01 0.  0.
         14    1    1    2    0    0 -0.80197755945E-02 -0.19763623191E-01  0.15769134434E-01  0.26525142846E-01  0.00000000000E+00 0. -1.
     999901    1    3    3    0    0 -0.24964676151E-01 -0.64862252452E-01  0.76990599857E-01  0.88609136059E+00  0.88000000000E+00 0. -1.
        -11    1    4    4    0    0  0.30506935698E-01  0.58987422637E-01 -0.74086106698E-01  0.99494730924E-01  0.51100000000E-03 0.  1.
         11    1    4    4    0    0  0.24775160471E-02  0.25638453006E-01 -0.18673627593E-01  0.31818765639E-01  0.51100000000E-03 0. -1.
</event>
<event>
 8    1  0.1123285E+005  0.1043930E+01  0.7957747E-01            NaN
         13   -1    0    0    0    0  0.00000000000E+00  0.00000000000E+00  0.74505805969E-08  0.10566000000E+00  0.10566000000E+00 0.  1.
     999900   -1    0    0    0    0 -0.00000000000E+00 -0.00000000000E+00 -0.74505805969E-08  0.93827000000E+00  0.93827000000E+00 0. -1.
     999902    2    1    2    0    0  0.23894000881E-01  0.25716339654E-02  0.15301605720E-02  0.10198493445E+01  0.10195650089E+01 0.  0.
     999903    2    3    3    0    0  0.11869352874E+00 -0.53430459035E-01 -0.16650574705E-01  0.13280158700E+00  0.20397356552E-01 0.  0.
         14    1    1    2    0    0 -0.23894000881E-01 -0.25716339654E-02 -0.15301605720E-02  0.24080655529E-01  0.00000000000E+00 0. -1.
     999901    1    3    3    0    0 -0.94799527856E-01  0.56002093001E-01  0.18180735277E-01  0.88704775747E+00  0.88000000000E+00 0.  1.
        -11    1    4    4    0    0  0.10603509845E+00 -0.40163188881E-01 -0.13500022501E-01  0.11418859651E+00  0.51100000000E-03 0. -1.
         11    1    4    4    0    0  0.12658430284E-01 -0.13267270154E-01 -0.31505522040E-02  0.18612990484E-01  0.51100000000E-03 0.  1.
</event>
<event>
 8    1  0.1123285E+005  0.1043930E+01  0.7957747E-01            NaN
         13   -1    0    0    0    0  0.00000000000E+00  0.00000000000E+00  0.74505805969E-08  0.10566000000E+00  0.10566000000E+00 0. -1.
     999900   -1    0    0    0    0 -0.00000000000E+00 -0.00000000000E+00 -0.74505805969E-08  0.93827000000E+00  0.93827000000E+00 0.  1.
     999902    2    1    2    0    0 -0.15236812184E-01 -0.10757045545E-01 -0.13513367852E-01  0.10208977273E+01  0.10206378810E+01 0.  0.
     999903    2    3    3    0    0  0.80162831047E-01 -0.89576684685E-01  0.45629830961E-01  0.13027348252E+00  0.20953206312E-01 0.  0.
         14    1    1    2    0    0  0.15236812184E-01  0.10757045545E-01  0.13513367852E-01  0.23032272686E-01  0.00000000000E+00 0. -1.
     999901    1    3    3    0    0 -0.95399643231E-01  0.78819639141E-01 -0.59143198812E-01  0.89062424479E+00  0.88000000000E+00 0. -1.
        -11    1    4    4    0    0  0.12134422518E-01 -0.25458419600E-01  0.65995045530E-02  0.28968774909E-01  0.51100000000E-03 0. -1.
         11    1    4    4    0    0  0.68028408529E-01 -0.64118265086E-01  0.39030326408E-01  0.10130470762E+00  0.51100000000E-03 0.  1.
</event>
<event>
 8    1  0.1123285E+005  0.1043930E+01  0.7957747E-01            NaN
         13   -1    0    0    0    0  0.00000000000E+00  0.00000000000E+00  0.74505805969E-08  0.10566000000E+00  0.10566000000E+00 0.  1.
     999900   -1    0    0    0    0 -0.00000000000E+00 -0.00000000000E+00 -0.74505805969E-08  0.93827000000E+00  0.93827000000E+00 0. -1.
     999902    2    1    2    0    0 -0.13989548137E-01  0.87002821028E-02  0.19856356739E-01  0.10181292777E+01  0.10178023133E+01 0.  0.
     999903    2    3    3    0    0  0.99776413603E-03  0.94214504775E-01 -0.83951747332E-01  0.12778472406E+00  0.20091574856E-01 0.  0.
         14    1    1    2    0    0  0.13989548137E-01 -0.87002821028E-02 -0.19856356739E-01  0.25800722251E-01  0.00000000000E+00 0. -1.
     999901    1    3    3    0    0 -0.14987312273E-01 -0.85514222672E-01  0.10380810407E+00  0.89034455369E+00  0.88000000000E+00 0. -1.
        -11    1    4    4    0    0 -0.60359255057E-02  0.20303141843E-01 -0.11787094149E-01  0.24245549589E-01  0.51100000000E-03 0.  1.
         11    1    4    4    0    0  0.70336896417E-02  0.73911362932E-01 -0.72164653183E-01  0.10353917447E+00  0.51100000000E-03 0. -1.
</event>
<event>
 7    1  0.1123285E+005  0.1043930E+01  0.7957747E-01            NaN
         13   -1    0    0    0    0  0.00000000000E+00  0.00000000000E+00  0.74505805969E-08  0.10566000000E+00  0.10566000000E+00 0.  1.
     999900   -1    0    0    0    0 -0.00000000000E+00 -0.00000000000E+00 -0.74505805969E-08  0.93827000000E+00  0.93827000000E+00 0.  1.
     999903    2    1    2    0    0  0.82978770741E-01  0.47727665254E-01 -0.63082442486E-01  0.11629345630E+00  0.19528620151E-01 0.  0.
         14    1    1    2    0    0 -0.18332741450E-01  0.27128120584E-01  0.25145655508E-01  0.41283511556E-01  0.00000000000E+00 0.  1.
     999901    1    1    2    0    0 -0.64646029291E-01 -0.74855785837E-01  0.37936786978E-01  0.88635303214E+00  0.88000000000E+00 0.  1.
        -11    1    3    3    0    0  0.60086462305E-01  0.43650403621E-01 -0.50900517454E-01  0.90038127961E-01  0.51100000000E-03 0.  1.
         11    1    3    3    0    0  0.22892308436E-01  0.40772616329E-02 -0.12181925032E-01  0.26255328344E-01  0.51100000000E-03 0. -1.
</event>
<event>
 8    1  0.1123285E+005  0.1043930E+01  0.7957747E-01            NaN
         13   -1    0    0    0    0  0.00000000000E+00  0.00000000000E+00  0.74505805969E-08  0.10566000000E+00  0.10566000000E+00 0. -1.
     999900   -1    0    0    0    0 -0.00000000000E+00 -0.00000000000E+00 -0.74505805969E-08  0.93827000000E+00  0.93827000000E+00 0. -1.
     999902    2    1    2    0    0 -0.18279070701E-01  0.10729011695E-01 -0.69312816021E-02  0.10216302515E+01  0.10213868474E+01 0.  0.
     999903    2    3    3    0    0  0.73018440691E-02  0.67388456902E-01  0.11059383149E+00  0.13164326951E+00  0.22459603613E-01 0.  0.
         14    1    1    2    0    0  0.18279070701E-01 -0.10729011695E-01  0.69312816021E-02  0.22299748480E-01  0.00000000000E+00 0. -1.
     999901    1    3    3    0    0 -0.25580914770E-01 -0.56659445207E-01 -0.11752511309E+00  0.88998698201E+00  0.88000000000E+00 0. -1.
        -11    1    4    4    0    0 -0.34897725263E-02  0.49536057353E-01  0.67901233510E-01  0.84123945007E-01  0.51100000000E-03 0.  1.
         11    1    4    4    0    0  0.10791616595E-01  0.17852399550E-01  0.42692597980E-01  0.47519324508E-01  0.51100000000E-03 0. -1.
</event>
<event>
 8    1  0.1123285E+005  0.1043930E+01  0.7957747E-01            NaN
         13   -1    0    0    0    0  0.00000000000E+00  0.00000000000E+00  0.74505805969E-08  0.10566000000E+00  0.10566000000E+00 0.  1.
     999900   -1    0    0    0    0 -0.00000000000E+00 -0.00000000000E+00 -0.74505805969E-08  0.93827000000E+00  0.93827000000E+00 0.  1.
     999902    2    1    2    0    0  0.94602178150E-02 -0.18549882904E-01  0.10852040430E-01  0.10204489298E+01  0.10201787381E+01 0.  0.
     999903    2    3    3    0    0  0.32525502646E-01  0.91946244815E-01  0.83839317893E-01  0.13024190652E+00  0.20540270959E-01 0.  0.
         14    1    1    2    0    0 -0.94602178150E-02  0.18549882904E-01 -0.10852040430E-01  0.23481070213E-01  0.00000000000E+00 0.  1.
     999901    1    3    3    0    0 -0.23065284831E-01 -0.11049612772E+00 -0.72987277463E-01  0.89020702327E+00  0.88000000000E+00 0.  1.
        -11    1    4    4    0    0  0.25307561600E-01  0.64721175855E-01  0.47128179941E-01  0.83968028105E-01  0.51100000000E-03 0.  1.
         11    1    4    4    0    0  0.72179410453E-02  0.27225068959E-01  0.36711137951E-01  0.46273878414E-01  0.51100000000E-03 0. -1.
</event>
<event>
 8    1  0.1123285E+005  0.1043930E+01  0.7957747E-01            NaN
         13   -1    0    0    0    0  0.00000000000E+00  0.00000000000E+00  0.74505805969E-08  0.10566000000E+00  0.10566000000E+00 0.  1.
     999900   -1    0    0    0    0 -0.00000000000E+00 -0.00000000000E+00 -0.74505805969E-08  0.93827000000E+00  0.93827000000E+00 0. -1.
     999902    2    1    2    0    0  0.11541486895E-01  0.41857009525E-02 -0.19438260089E-01  0.10209393069E+01  0.10206804086E+01 0.  0.
     999903    2    3    3    0    0 -0.15395638713E-01  0.10888912268E+00  0.66962699319E-01  0.13012308513E+00  0.18818805859E-01 0.  0.
         14    1    1    2    0    0 -0.11541486895E-01 -0.41857009525E-02  0.19438260089E-01  0.22990693063E-01  0.00000000000E+00 0.  1.
     999901    1    3    3    0    0  0.26937125608E-01 -0.10470342172E+00 -0.86400959408E-01  0.89081622181E+00  0.88000000000E+00 0. -1.
        -11    1    4    4    0    0 -0.14103980028E-01  0.39138208968E-01  0.28821870319E-01  0.50613071271E-01  0.51100000000E-03 0.  1.
         11    1    4    4    0    0 -0.12916586852E-02  0.69750913708E-01  0.38140829000E-01  0.79510013854E-01  0.51100000000E-03 0. -1.
</event>
<event>
 8    1  0.1123285E+005  0.1043930E+01  0.7957747E-01            NaN
         13   -1    0    0    0    0  0.00000000000E+00  0.00000000000E+00  0.74505805969E-08  0.10566000000E+00  0.10566000000E+00 0. -1.
     999900   -1    0    0    0    0 -0.00000000000E+00 -0.00000000000E+00 -0.74505805969E-08  0.93827000000E+00  0.93827000000E+00 0.  1.
     999902    2    1    2    0    0  0.15452683871E-02  0.22277069220E-01  0.75654186402E-02  0.10203526544E+01  0.10200802165E+01 0.  0.
     999903    2    3    3    0    0  0.11392425683E+00  0.55958642607E-01  0.30956844607E-01  0.13225882812E+00  0.20590420360E-01 0.  0.
         14    1    1    2    0    0 -0.15452683871E-02 -0.22277069220E-01 -0.75654186402E-02  0.23577345623E-01  0.00000000000E+00 0.  1.
     999901    1    3    3    0    0 -0.11237898844E+00 -0.33681573387E-01 -0.23391425966E-01  0.88809382626E+00  0.88000000000E+00 0. -1.
        -11    1    4    4    0    0  0.58135883905E-02  0.88295580037E-02  0.37023217155E-02  0.11212814615E-01  0.51100000000E-03 0.  1.
         11    1    4    4    0    0  0.10811066844E+00  0.47129084603E-01  0.27254522891E-01  0.12104601350E+00  0.51100000000E-03 0. -1.
</event>
<event>
 8    1  0.1123285E+005  0.1043930E+01  0.7957747E-01            NaN
         13   -1    0    0    0    0  0.00000000000E+00  0.00000000000E+00  0.74505805969E-08  0.10566000000E+00  0.10566000000E+00 0.  1.
     999900   -1    0    0    0    0 -0.00000000000E+00 -0.00000000000E+00 -0.74505805969E-08  0.93827000000E+00  0.93827000000E+00 0.  1.
     999902    2    1    2    0    0 -0.99007497231E-02 -0.14924677649E-01 -0.14977067103E-01  0.10205829791E+01  0.10203158990E+01 0.  0.
     999903    2    3    3    0    0  0.17315903671E-01 -0.29273286774E-01 -0.12694477226E+00  0.13295501881E+00  0.20131964281E-01 0.  0.
         14    1    1    2    0    0  0.99007497231E-02  0.14924677649E-01  0.14977067103E-01  0.23347020945E-01  0.00000000000E+00 0.  1.
     999901    1    3    3    0    0 -0.27216653394E-01  0.14348609125E-01  0.11196770515E+00  0.88762796024E+00  0.88000000000E+00 0. -1.
        -11    1    4    4    0    0  0.91797637996E-02 -0.27130153104E-01 -0.74136776113E-01  0.79478525177E-01  0.51100000000E-03 0.  1.
         11    1    4    4    0    0  0.81361398711E-02 -0.21431336704E-02 -0.52807996144E-01  0.53476493636E-01  0.51100000000E-03 0. -1.
</event>
<event>
 8    1  0.1123285E+005  0.1043930E+01  0.7957747E-01            NaN
         13   -1    0    0    0    0  0.00000000000E+00  0.00000000000E+00  0.74505805969E-08  0.10566000000E+00  0.10566000000E+00 0.  1.
     999900   -1    0    0    0    0 -0.00000000000E+00 -0.00000000000E+00 -0.74505805969E-08  0.93827000000E+00  0.93827000000E+00 0.  1.
     999902    2    1    2    0    0  0.48698889014E-03  0.21903561935E-01  0.99091826771E-02  0.10198843125E+01  0.10196008120E+01 0.  0.
     999903    2    3    3    0    0  0.50481514837E-01  0.23985382445E-02 -0.11720851711E+00  0.12913249068E+00  0.19576193176E-01 0.  0.
         14    1    1    2    0    0 -0.48698889014E-03 -0.21903561935E-01 -0.99091826771E-02  0.24045687450E-01  0.00000000000E+00 0. -1.
     999901    1    3    3    0    0 -0.49994525947E-01  0.19505023691E-01  0.12711769979E+00  0.89075182187E+00  0.88000000000E+00 0. -1.
        -11    1    4    4    0    0  0.77710130703E-02 -0.69078916798E-02 -0.20017698475E-01  0.22562734427E-01  0.51100000000E-03 0. -1.
         11    1    4    4    0    0  0.42710501767E-01  0.93064299243E-02 -0.97190818633E-01  0.10656975625E+00  0.51100000000E-03 0.  1.
</event>
<event>
 8    1  0.1123285E+005  0.1043930E+01  0.7957747E-01            NaN
         13   -1    0    0    0    0  0.00000000000E+00  0.00000000000E+00  0.74505805969E-08  0.10566000000E+00  0.10566000000E+00 0. -1.
     999900   -1    0    0    0    0 -0.00000000000E+00 -0.00000000000E+00 -0.74505805969E-08  0.93827000000E+00  0.93827000000E+00 0. -1.
     999902    2    1    2    0    0 -0.74616824162E-02  0.24901958578E-01 -0.13287929141E-02  0.10179002106E+01  0.10175673387E+01 0.  0.
     999903    2    3    3    0    0 -0.27103050412E-01  0.11291971117E+00 -0.58253306607E-01  0.13146165753E+00  0.20081911211E-01 0.  0.
         14    1    1    2    0    0  0.74616824162E-02 -0.24901958578E-01  0.13287929141E-02  0.26029789398E-01  0.00000000000E+00 0.  1.
     999901    1    3    3    0    0  0.19641367996E-01 -0.88017752593E-01  0.56924513693E-01  0.88643855307E+00  0.88000000000E+00 0. -1.
        -11    1    4    4    0    0 -0.24133168759E-01  0.10324282129E+00 -0.46042687817E-01  0.11559273422E+00  0.51100000000E-03 0. -1.
         11    1    4    4    0    0 -0.29698816523E-02  0.96768898788E-02 -0.12210618790E-01  0.15868923309E-01  0.51100000000E-03 0.  1.
</event>
<event>
 8    1  0.1123285E+005  0.1043930E+01  0.7957747E-01            NaN
         13   -1    0    0    0    0  0.00000000000E+00  0.00000000000E+00  0.74505805969E-08  0.10566000000E+00  0.10566000000E+00 0.  1.
     999900   -1    0    0    0    0 -0.00000000000E+00 -0.00000000000E+00 -0.74505805969E-08  0.93827000000E+00  0.93827000000E+00 0.  1.
     999902    2    1    2    0    0  0.33263336391E-01 -0.16919273158E-01 -0.14304807876E-02  0.10065835460E+01  0.10058904898E+01 0.  0.
     999903    2    3    3    0    0  0.85231123363E-01 -0.61415717378E-01 -0.58978173138E-01  0.12205411102E+00  0.19558792885E-01 0.  0.
         14    1    1    2    0    0 -0.33263336391E-01  0.16919273158E-01  0.14304807876E-02  0.37346454013E-01  0.00000000000E+00 0. -1.
     999901    1    3    3    0    0 -0.51967786972E-01  0.44496444220E-01  0.57547692350E-01  0.88452943497E+00  0.88000000000E+00 0. -1.
        -11    1    4    4    0    0  0.44494114343E-01 -0.37314148808E-01 -0.42385041051E-01  0.71894539002E-01  0.51100000000E-03 0.  1.
         11    1    4    4    0    0  0.40737009020E-01 -0.24101568570E-01 -0.16593132087E-01  0.50159572017E-01  0.51100000000E-03 0. -1.
</event>
<event>
 8    1  0.1123285E+005  0.1043930E+01  0.7957747E-01            NaN
         13   -1    0    0    0    0  0.00000000000E+00  0.00000000000E+00  0.74505805969E-08  0.10566000000E+00  0.10566000000E+00 0. -1.
     999900   -1    0    0    0    0 -0.00000000000E+00 -0.00000000000E+00 -0.74505805969E-08  0.93827000000E+00  0.93827000000E+00 0.  1.
     999902    2    1    2    0    0 -0.20609509398E-02 -0.23589623426E-01  0.72595608922E-02  0.10191627015E+01  0.10188617144E+01 0.  0.
     999903    2    3    3    0    0 -0.11847336984E+00  0.17077605755E-01 -0.44239287769E-01  0.12907405071E+00  0.19375551721E-01 0.  0.
         14    1    1    2    0    0  0.20609509398E-02  0.23589623426E-01 -0.72595608922E-02  0.24767298530E-01  0.00000000000E+00 0. -1.
     999901    1    3    3    0    0  0.11641241890E+00 -0.40667229180E-01  0.51498848661E-01  0.89008865076E+00  0.88000000000E+00 0. -1.
        -11    1    4    4    0    0 -0.65622297388E-01  0.35104492113E-02 -0.16022199067E-01  0.67643042156E-01  0.51100000000E-03 0. -1.
         11    1    4    4    0    0 -0.52851072450E-01  0.13567156543E-01 -0.28217088702E-01  0.61431008551E-01  0.51100000000E-03 0.  1.
</event>
<event>
 8    1  0.1123285E+005  0.1043930E+01  0.7957747E-01            NaN
         13   -1    0    0    0    0  0.00000000000E+00  0.00000000000E+00  0.74505805969E-08  0.10566000000E+00  0.10566000000E+00 0. -1.
     999900   -1    0    0    0    0 -0.00000000000E+00 -0.00000000000E+00 -0.74505805969E-08  0.93827000000E+00  0.93827000000E+00 0. -1.
     999902    2    1    2    0    0  0.92641594920E-02  0.12172843877E-01  0.20091799833E-01  0.10186776100E+01  0.10183645663E+01 0.  0.
     999903    2    3    3    0    0  0.69814785755E-01 -0.10571096171E+00 -0.11499425625E-02  0.12850112101E+00  0.21501255741E-01 0.  0.
         14    1    1    2    0    0 -0.92641594920E-02 -0.12172843877E-01 -0.20091799833E-01  0.25252389979E-01  0.00000000000E+00 0.  1.
     999901    1    3    3    0    0 -0.60550626263E-01  0.11788380559E+00  0.21241742395E-01  0.89017648901E+00  0.88000000000E+00 0. -1.
        -11    1    4    4    0    0  0.38982538155E-01 -0.66278249085E-01 -0.10403725440E-01  0.77594736979E-01  0.51100000000E-03 0. -1.
         11    1    4    4    0    0  0.30832247601E-01 -0.39432712624E-01  0.92537828778E-02  0.50906384035E-01  0.51100000000E-03 0.  1.
</event>
<event>
 8    1  0.1123285E+005  0.1043930E+01  0.7957747E-01            NaN
         13   -1    0    0    0    0  0.00000000000E+00  0.00000000000E+00  0.74505805969E-08  0.10566000000E+00  0.10566000000E+00 0. -1.
     999900   -1    0    0    0    0 -0.00000000000E+00 -0.00000000000E+00 -0.74505805969E-08  0.93827000000E+00  0.93827000000E+00 0.  1.
     999902    2    1    2    0    0 -0.19178908727E-01 -0.80874024111E-02  0.19849294385E-01  0.10151683744E+01  0.10147608572E+01 0.  0.
     999903    2    3    3    0    0 -0.21249520138E-02 -0.11909410480E+00 -0.40191318428E-01  0.12600123570E+00  0.85468181576E-02 0.  0.
         14    1    1    2    0    0  0.19178908727E-01  0.80874024111E-02 -0.19849294385E-01  0.28761625568E-01  0.00000000000E+00 0.  1.
     999901    1    3    3    0    0 -0.17053956714E-01  0.11100670239E+00  0.60040612812E-01  0.88916713873E+00  0.88000000000E+00 0. -1.
        -11    1    4    4    0    0 -0.30729046402E-02 -0.89306160103E-01 -0.26554390729E-01  0.93222474561E-01  0.51100000000E-03 0. -1.
         11    1    4    4    0    0  0.94795262638E-03 -0.29787944701E-01 -0.13636927699E-01  0.32778761138E-01  0.51100000000E-03 0.  1.
</event>
<event>
 8    1  0.1123285E+005  0.1043930E+01  0.7957747E-01            NaN
         13   -1    0    0    0    0  0.00000000000E+00  0.00000000000E+00  0.74505805969E-08  0.10566000000E+00  0.10566000000E+00 0.  1.
     999900   -1    0    0    0    0 -0.00000000000E+00 -0.00000000000E+00 -0.74505805969E-08  0.93827000000E+00  0.93827000000E+00 0. -1.
     999902    2    1    2    0    0 -0.16061996563E-01 -0.10665317303E-01  0.21223740546E-01  0.10152562509E+01  0.10148512556E+01 0.  0.
     999903    2    3    3    0    0  0.18728441954E-01  0.12053368478E+00  0.18287896850E-01  0.12484501332E+00  0.19305607390E-01 0.  0.
         14    1    1    2    0    0  0.16061996563E-01  0.10665317303E-01 -0.21223740546E-01  0.28673749136E-01  0.00000000000E+00 0. -1.
     999901    1    3    3    0    0 -0.34790438517E-01 -0.13119900208E+00  0.29358436956E-02  0.89041123754E+00  0.88000000000E+00 0. -1.
        -11    1    4    4    0    0  0.12869916226E-02  0.28857176966E-01 -0.32410770827E-02  0.29071613501E-01  0.51100000000E-03 0. -1.
         11    1    4    4    0    0  0.17441450331E-01  0.91676507811E-01  0.21528973933E-01  0.95773399823E-01  0.51100000000E-03 0.  1.
</event>
<event>
 8    1  0.1123285E+005  0.1043930E+01  0.7957747E-01            NaN
         13   -1    0    0    0    0  0.00000000000E+00  0.00000000000E+00  0.74505805969E-08  0.10566000000E+00  0.10566000000E+00 0.  1.
     999900   -1    0    0    0    0 -0.00000000000E+00 -0.00000000000E+00 -0.74505805969E-08  0.93827000000E+00  0.93827000000E+00 0.  1.
     999902    2    1    2    0    0 -0.13698512542E-01  0.17296643176E-01 -0.19002269114E-01  0.10148111171E+01  0.10143932640E+01 0.  0.
     999903    2    3    3    0    0  0.34700278577E-01 -0.56463905723E-01  0.10087459585E+00  0.12231264408E+00  0.19809513675E-01 0.  0.
         14    1    1    2    0    0  0.13698512542E-01 -0.17296643176E-01  0.19002269114E-01  0.29118882920E-01  0.00000000000E+00 0.  1.
     999901    1    3    3    0    0 -0.48398791119E-01  0.73760548899E-01 -0.11987686496E+00  0.89249847300E+00  0.88000000000E+00 0.  1.
        -11    1    4    4    0    0  0.19534173966E-01 -0.33623954536E-01  0.41290184037E-01  0.56721201415E-01  0.51100000000E-03 0.  1.
         11    1    4    4    0    0  0.15166104611E-01 -0.22839951187E-01  0.59584411808E-01  0.65591442664E-01  0.51100000000E-03 0. -1.
</event>
<event>
 8    1  0.1123285E+005  0.1043930E+01  0.7957747E-01            NaN
         13   -1    0    0    0    0  0.00000000000E+00  0.00000000000E+00  0.74505805969E-08  0.10566000000E+00  0.10566000000E+00 0.  1.
     999900   -1    0    0    0    0 -0.00000000000E+00 -0.00000000000E+00 -0.74505805969E-08  0.93827000000E+00  0.93827000000E+00 0. -1.
     999902    2    1    2    0    0 -0.81702906046E-02 -0.16768382785E-01  0.20214337309E-02  0.10251678438E+01  0.10249961412E+01 0.  0.
     999903    2    3    3    0    0 -0.11050376804E-01 -0.13487486066E+00 -0.79679753959E-02  0.13721670593E+00  0.21250809105E-01 0.  0.
         14    1    1    2    0    0  0.81702906046E-02  0.16768382785E-01 -0.20214337309E-02  0.18762156169E-01  0.00000000000E+00 0. -1.
     999901    1    3    3    0    0  0.28800861997E-02  0.11810647787E+00  0.99894091268E-02  0.88795113791E+00  0.88000000000E+00 0.  1.
        -11    1    4    4    0    0 -0.12881692747E-01 -0.40261258651E-01 -0.45951412546E-02  0.42523915629E-01  0.51100000000E-03 0. -1.
         11    1    4    4    0    0  0.18313159432E-02 -0.94613602008E-01 -0.33728341413E-02  0.94692790297E-01  0.51100000000E-03 0.  1.
</event>
<event>
 8    1  0.1123285E+005  0.1043930E+01  0.7957747E-01            NaN
         13   -1    0    0    0    0  0.00000000000E+00  0.00000000000E+00  0.74505805969E-08  0.10566000000E+00  0.10566000000E+00 0. -1.
     999900   -1    0    0    0    0 -0.00000000000E+00 -0.00000000000E+00 -0.74505805969E-08  0.93827000000E+00  0.93827000000E+00 0. -1.
     999902    2    1    2    0    0 -0.18220520038E-01  0.20311601888E-02  0.50342903758E-02  0.10249179764E+01  0.10247416266E+01 0.  0.
     999903    2    3    3    0    0  0.11068345252E+00 -0.37157435210E-01  0.60308288211E-01  0.13294981833E+00  0.20175800230E-01 0.  0.
         14    1    1    2    0    0  0.18220520038E-01 -0.20311601888E-02 -0.50342903758E-02  0.19012023610E-01  0.00000000000E+00 0.  1.
     999901    1    3    3    0    0 -0.12890397256E+00  0.39188595399E-01 -0.55273997836E-01  0.89196815806E+00  0.88000000000E+00 0. -1.
        -11    1    4    4    0    0  0.56704006306E-01 -0.91336947991E-02  0.25202917346E-01  0.62723335973E-01  0.51100000000E-03 0. -1.
         11    1    4    4    0    0  0.53979446213E-01 -0.28023740411E-01  0.35105370865E-01  0.70226482360E-01  0.51100000000E-03 0.  1.
</event>
<event>
 8    1  0.1123285E+005  0.1043930E+01  0.7957747E-01            NaN
         13   -1    0    0    0    0  0.00000000000E+00  0.00000000000E+00  0.74505805969E-08  0.10566000000E+00  0.10566000000E+00 0. -1.
     999900   -1    0    0    0    0 -0.00000000000E+00 -0.00000000000E+00 -0.74505805969E-08  0.93827000000E+00  0.93827000000E+00 0. -1.
     999902    2    1    2    0    0 -0.94414916638E-02 -0.20630798898E-01  0.42104070210E-02  0.10208540568E+01  0.10205932128E+01 0.  0.
     999903    2    3    3    0    0  0.18141556254E-01  0.11968058614E+00  0.38567174786E-01  0.12864976583E+00  0.20267622310E-01 0.  0.
         14    1    1    2    0    0  0.94414916638E-02  0.20630798898E-01 -0.42104070210E-02  0.23075943216E-01  0.00000000000E+00 0.  1.
     999901    1    3    3    0    0 -0.27583047918E-01 -0.14031138504E+00 -0.34356767765E-01  0.89220429095E+00  0.88000000000E+00 0.  1.
        -11    1    4    4    0    0  0.14675107410E-01  0.44211840240E-01  0.86013287273E-02  0.47373933463E-01  0.51100000000E-03 0.  1.
         11    1    4    4    0    0  0.34664488440E-02  0.75468745905E-01  0.29965846059E-01  0.81275832368E-01  0.51100000000E-03 0. -1.
</event>
<event>
 8    1  0.1123285E+005  0.1043930E+01  0.7957747E-01            NaN
         13   -1    0    0    0    0  0.00000000000E+00  0.00000000000E+00  0.74505805969E-08  0.10566000000E+00  0.10566000000E+00 0.  1.
     999900   -1    0    0    0    0 -0.00000000000E+00 -0.00000000000E+00 -0.74505805969E-08  0.93827000000E+00  0.93827000000E+00 0.  1.
     999902    2    1    2    0    0  0.79332685388E-03 -0.34983241919E-02 -0.23499561164E-01  0.10201582307E+01  0.10198812277E+01 0.  0.
     999903    2    3    3    0    0 -0.36527863395E-01  0.11463365100E+00 -0.48158707928E-01  0.13113848498E+00  0.20071929373E-01 0.  0.
         14    1    1    2    0    0 -0.79332685388E-03  0.34983241919E-02  0.23499561164E-01  0.23771769277E-01  0.00000000000E+00 0.  1.
     999901    1    3    3    0    0  0.37321190249E-01 -0.11813197519E+00  0.24659146764E-01  0.88901974574E+00  0.88000000000E+00 0.  1.
        -11    1    4    4    0    0 -0.23897750210E-01  0.45356015935E-01 -0.15883361061E-01  0.53673204919E-01  0.51100000000E-03 0. -1.
         11    1    4    4    0    0 -0.12630113185E-01  0.69277635060E-01 -0.32275346866E-01  0.77465280061E-01  0.51100000000E-03 0.  1.
</event>
<event>
 8    1  0.1123285E+005  0.1043930E+01  0.7957747E-01            NaN
         13   -1    0    0    0    0  0.00000000000E+00  0.00000000000E+00  0.74505805969E-08  0.10566000000E+00  0.10566000000E+00 0.  1.
     999900   -1    0    0    0    0 -0.00000000000E+00 -0.00000000000E+00 -0.74505805969E-08  0.93827000000E+00  0.93827000000E+00 0.  1.
     999902    2    1    2    0    0  0.44915958610E-02  0.22931818005E-01  0.30719309210E-02  0.10203613880E+01  0.10200891543E+01 0.  0.
     999903    2    3    3    0    0  0.50707936102E-01 -0.26092048301E-01 -0.11572023273E+00  0.12982735291E+00  0.14556082299E-01 0.  0.
         14    1    1    2    0    0 -0.44915958610E-02 -0.22931818005E-01 -0.30719309210E-02  0.23568611966E-01  0.00000000000E+00 0. -1.
     999901    1    3    3    0    0 -0.46216340241E-01  0.49023866306E-01  0.11879216365E+00  0.89053403513E+00  0.88000000000E+00 0. -1.
        -11    1    4    4    0    0  0.25318778605E-01 -0.19798454058E-01 -0.72480119819E-01  0.79288386432E-01  0.51100000000E-03 0. -1.
         11    1    4    4    0    0  0.25389157497E-01 -0.62935942434E-02 -0.43240112911E-01  0.50538966476E-01  0.51100000000E-03 0.  1.
</event>
<event>
 8    1  0.1123285E+005  0.1043930E+01  0.7957747E-01            NaN
         13   -1    0    0    0    0  0.00000000000E+00  0.00000000000E+00  0.74505805969E-08  0.10566000000E+00  0.10566000000E+00 0. -1.
     999900   -1    0    0    0    0 -0.00000000000E+00 -0.00000000000E+00 -0.74505805969E-08  0.93827000000E+00  0.93827000000E+00 0. -1.
     999902    2    1    2    0    0 -0.54344125057E-02  0.18440565689E-01  0.14518881386E-01  0.10198388145E+01  0.10195542273E+01 0.  0.
     999903    2    3    3    0    0 -0.70882306290E-01  0.70196270039E-01  0.85366557392E-01  0.13305728958E+00  0.21563290978E-01 0.  0.
         14    1    1    2    0    0  0.54344125057E-02 -0.18440565689E-01 -0.14518881386E-01  0.24091185503E-01  0.00000000000E+00 0. -1.
     999901    1    3    3    0    0  0.65447893784E-01 -0.51755704350E-01 -0.70847676006E-01  0.88678152491E+00  0.88000000000E+00 0. -1.
        -11    1    4    4    0    0 -0.17787958102E-01  0.32059221522E-01  0.29350723139E-01  0.46967341928E-01  0.51100000000E-03 0.  1.
         11    1    4    4    0    0 -0.53094348188E-01  0.38137048517E-01  0.56015834254E-01  0.86089947655E-01  0.51100000000E-03 0. -1.
</event>
<event>
 8    1  0.1123285E+005  0.1043930E+01  0.7957747E-01            NaN
         13   -1    0    0    0    0  0.00000000000E+00  0.00000000000E+00  0.74505805969E-08  0.10566000000E+00  0.10566000000E+00 0. -1.
     999900   -1    0    0    0    0 -0.00000000000E+00 -0.00000000000E+00 -0.74505805969E-08  0.93827000000E+00  0.93827000000E+00 0. -1.
     999902    2    1    2    0    0 -0.15109113576E-01 -0.53668880389E-02  0.16354599948E-01  0.10210266871E+01  0.10207697753E+01 0.  0.
     999903    2    3    3    0    0 -0.66061934669E-01  0.90847354960E-01 -0.63748447971E-01  0.13070659368E+00  0.20073064006E-01 0.  0.
         14    1    1    2    0    0  0.15109113576E-01  0.53668880389E-02 -0.16354599948E-01  0.22903312855E-01  0.00000000000E+00 0.  1.
     999901    1    3    3    0    0  0.50952821093E-01 -0.96214242999E-01  0.80103047919E-01  0.89032009346E+00  0.88000000000E+00 0.  1.
        -11    1    4    4    0    0 -0.46764910841E-01  0.52188373391E-01 -0.46920487713E-01  0.84334906720E-01  0.51100000000E-03 0.  1.
         11    1    4    4    0    0 -0.19297023827E-01  0.38658981569E-01 -0.16827960258E-01  0.46371686965E-01  0.51100000000E-03 0. -1.
</event>
<event>
 8    1  0.1123285E+005  0.1043930E+01  0.7957747E-01            NaN
         13   -1    0    0    0    0  0.00000000000E+00  0.00000000000E+00  0.74505805969E-08  0.10566000000E+00  0.10566000000E+00 0. -1.
     999900   -1    0    0    0    0 -0.00000000000E+00 -0.00000000000E+00 -0.74505805969E-08  0.93827000000E+00  0.93827000000E+00 0.  1.
     999902    2    1    2    0    0  0.15990244225E-01 -0.37031069685E-02  0.17428849303E-01  0.10199891207E+01  0.10197081155E+01 0.  0.
     999903    2    3    3    0    0 -0.55407827121E-01 -0.11390855459E+00 -0.24499125497E-01  0.12925858890E+00  0.78987049656E-02 0.  0.
         14    1    1    2    0    0 -0.15990244225E-01  0.37031069685E-02 -0.17428849303E-01  0.23940879258E-01  0.00000000000E+00 0.  1.
     999901    1    3    3    0    0  0.71398071346E-01  0.11020544762E+00  0.41927974800E-01  0.89073053184E+00  0.88000000000E+00 0.  1.
        -11    1    4    4    0    0 -0.51503667540E-01 -0.10349483617E+00 -0.20368376070E-01  0.11738373289E+00  0.51100000000E-03 0. -1.
         11    1    4    4    0    0 -0.39041595813E-02 -0.10413718423E-01 -0.41307494267E-02  0.11874856010E-01  0.51100000000E-03 0.  1.
</event>
<event>
 8    1  0.1123285E+005  0.1043930E+01  0.7957747E-01            NaN
         13   -1    0    0    0    0  0.00000000000E+00  0.00000000000E+00  0.74505805969E-08  0.10566000000E+00  0.10566000000E+00 0.  1.
     999900   -1    0    0    0    0 -0.00000000000E+00 -0.00000000000E+00 -0.74505805969E-08  0.93827000000E+00  0.93827000000E+00 0. -1.
     999902    2    1    2    0    0  0.88296165731E-02  0.10365418789E-01  0.19595393370E-01  0.10200682424E+01  0.10197891133E+01 0.  0.
     999903    2    3    3    0    0  0.78312408883E-01 -0.49172855127E-03 -0.10043453621E+00  0.12914011954E+00  0.21377540249E-01 0.  0.
         14    1    1    2    0    0 -0.88296165731E-02 -0.10365418789E-01 -0.19595393370E-01  0.23861757622E-01  0.00000000000E+00 0.  1.
     999901    1    3    3    0    0 -0.69482792310E-01  0.10857147341E-01  0.12002992958E+00  0.89092812284E+00  0.88000000000E+00 0.  1.
        -11    1    4    4    0    0  0.22615701953E-01  0.43122470543E-02 -0.44228981676E-01  0.49865111958E-01  0.51100000000E-03 0. -1.
         11    1    4    4    0    0  0.55696706931E-01 -0.48039756056E-02 -0.56205554538E-01  0.79275007578E-01  0.51100000000E-03 0.  1.
</event>
<event>
 8    1  0.1123285E+005  0.1043930E+01  0.7957747E-01            NaN
         13   -1    0    0    0    0  0.00000000000E+00  0.00000000000E+00  0.74505805969E-08  0.10566000000E+00  0.10566000000E+00 0. -1.
     999900   -1    0    0    0    0 -0.00000000000E+00 -0.00000000000E+00 -0.74505805969E-08  0.93827000000E+00  0.93827000000E+00 0. -1.
     999902    2    1    2    0    0  0.17523700324E-01  0.14260108312E-01 -0.47798439052E-02  0.10208371944E+01  0.10205759648E+01 0.  0.
     999903    2    3    3    0    0 -0.10111717449E+00  0.75542087510E-01  0.25584839107E-01  0.13024573245E+00  0.19444198799E-01 0.  0.
         14    1    1    2    0    0 -0.17523700324E-01 -0.14260108312E-01  0.47798439052E-02  0.23092805587E-01  0.00000000000E+00 0. -1.
     999901    1    3    3    0    0  0.11864087481E+00 -0.61281979198E-01 -0.30364683012E-01  0.89059146197E+00  0.88000000000E+00 0. -1.
        -11    1    4    4    0    0 -0.66760780981E-01  0.49694499817E-01  0.26170266771E-01  0.87244995118E-01  0.51100000000E-03 0. -1.
         11    1    4    4    0    0 -0.34356393508E-01  0.25847587692E-01 -0.58542766430E-03  0.43000737330E-01  0.51100000000E-03 0.  1.
</event>
<event>
 8    1  0.1123285E+005  0.1043930E+01  0.7957747E-01            NaN
         13   -1    0    0    0    0  0.00000000000E+00  0.00000000000E+00  0.74505805969E-08  0.10566000000E+00  0.10566000000E+00 0.  1.
     999900   -1    0    0    0    0 -0.00000000000E+00 -0.00000000000E+00 -0.74505805969E-08  0.93827000000E+00  0.93827000000E+00 0.  1.
     999902    2    1    2    0    0 -0.17441875419E-01  0.94821473877E-02 -0.13327185320E-01  0.10200188309E+01  0.10197385309E+01 0.  0.
     999903    2    3    3    0    0 -0.10002594835E+00  0.76566006442E-01  0.35303357657E-01  0.13227714387E+00  0.19579888757E-01 0.  0.
         14    1    1    2    0    0  0.17441875419E-01 -0.94821473877E-02  0.13327185320E-01  0.23911169059E-01  0.00000000000E+00 0. -1.
     999901    1    3    3    0    0  0.82584072930E-01 -0.67083859054E-01 -0.48630542976E-01  0.88774168707E+00  0.88000000000E+00 0. -1.
        -11    1    4    4    0    0 -0.73508713951E-01  0.51458348104E-01  0.16633257772E-01  0.91260172044E-01  0.51100000000E-03 0. -1.
         11    1    4    4    0    0 -0.26517234398E-01  0.25107658337E-01  0.18670099885E-01  0.41016971829E-01  0.51100000000E-03 0.  1.
</event>
<event>
 7    1  0.1123285E+005  0.1043930E+01  0.7957747E-01            NaN
         13   -1    0    0    0    0  0.00000000000E+00  0.00000000000E+00  0.74505805969E-08  0.10566000000E+00  0.10566000000E+00 0.  1.
     999900   -1    0    0    0    0 -0.00000000000E+00 -0.00000000000E+00 -0.74505805969E-08  0.93827000000E+00  0.93827000000E+00 0.  1.
     999903    2    1    2    0    0  0.98887755867E-01  0.13827811150E-01  0.62147200691E-02  0.10228241212E+00  0.21285498863E-01 0.  0.
         14    1    1    2    0    0  0.46204700215E-01  0.13600282073E-01  0.10025610572E-01  0.49197102168E-01  0.00000000000E+00 0.  1.
     999901    1    1    2    0    0 -0.14509245608E+00 -0.27428093224E-01 -0.16240330641E-01  0.89245048571E+00  0.88000000000E+00 0.  1.
        -11    1    3    3    0    0  0.67985706690E-01  0.67718754183E-02 -0.53599671339E-02  0.68533969529E-01  0.51100000000E-03 0.  1.
         11    1    3    3    0    0  0.30902049177E-01  0.70559357319E-02  0.11574687203E-01  0.33748442590E-01  0.51100000000E-03 0. -1.
</event>
<event>
 8    1  0.1123285E+005  0.1043930E+01  0.7957747E-01            NaN
         13   -1    0    0    0    0  0.00000000000E+00  0.00000000000E+00  0.74505805969E-08  0.10566000000E+00  0.10566000000E+00 0. -1.
     999900   -1    0    0    0    0 -0.00000000000E+00 -0.00000000000E+00 -0.74505805969E-08  0.93827000000E+00  0.93827000000E+00 0.  1.
     999902    2    1    2    0    0 -0.17175733865E-01  0.13580459210E-03 -0.17938631817E-01  0.10190941632E+01  0.10187914874E+01 0.  0.
     999903    2    3    3    0    0 -0.99930130308E-01  0.24144766692E-01 -0.81115974176E-01  0.13263147536E+00  0.21031079101E-01 0.  0.
         14    1    1    2    0    0  0.17175733865E-01 -0.13580459210E-03  0.17938631817E-01  0.24835836772E-01  0.00000000000E+00 0. -1.
     999901    1    3    3    0    0  0.82754396443E-01 -0.24008962100E-01  0.63177342359E-01  0.88646268787E+00  0.88000000000E+00 0. -1.
        -11    1    4    4    0    0 -0.30916284111E-01  0.12169326126E-01 -0.37550389616E-01  0.50141818903E-01  0.51100000000E-03 0.  1.
         11    1    4    4    0    0 -0.69013846197E-01  0.11975440566E-01 -0.43565584561E-01  0.82489656459E-01  0.51100000000E-03 0. -1.
</event>
<event>
 8    1  0.1123285E+005  0.1043930E+01  0.7957747E-01            NaN
         13   -1    0    0    0    0  0.00000000000E+00  0.00000000000E+00  0.74505805969E-08  0.10566000000E+00  0.10566000000E+00 0. -1.
     999900   -1    0    0    0    0 -0.00000000000E+00 -0.00000000000E+00 -0.74505805969E-08  0.93827000000E+00  0.93827000000E+00 0.  1.
     999902    2    1    2    0    0  0.12279082137E-01  0.27951128238E-02 -0.20494240135E-01  0.10198758446E+01  0.10195921420E+01 0.  0.
     999903    2    3    3    0    0  0.29502923343E-01  0.11604672549E+00 -0.51357466463E-01  0.13191462516E+00  0.20654635928E-01 0.  0.
         14    1    1    2    0    0 -0.12279082137E-01 -0.27951128238E-02  0.20494240135E-01  0.24054155411E-01  0.00000000000E+00 0. -1.
     999901    1    3    3    0    0 -0.17223841206E-01 -0.11325161267E+00  0.30863226327E-01  0.88796121943E+00  0.88000000000E+00 0. -1.
        -11    1    4    4    0    0  0.43312761385E-03  0.41143120309E-01 -0.18185432907E-01  0.44987943265E-01  0.51100000000E-03 0. -1.
         11    1    4    4    0    0  0.29069795729E-01  0.74903605183E-01 -0.33172033556E-01  0.86926681890E-01  0.51100000000E-03 0.  1.
</event>
<event>
 8    1  0.1123285E+005  0.1043930E+01  0.7957747E-01            NaN
         13   -1    0    0    0    0  0.00000000000E+00  0.00000000000E+00  0.74505805969E-08  0.10566000000E+00  0.10566000000E+00 0. -1.
     999900   -1    0    0    0    0 -0.00000000000E+00 -0.00000000000E+00 -0.74505805969E-08  0.93827000000E+00  0.93827000000E+00 0.  1.
     999902    2    1    2    0    0  0.97586282302E-03  0.24021436333E-01  0.29254832746E-02  0.10197114087E+01  0.10194237671E+01 0.  0.
     999903    2    3    3    0    0 -0.10766171743E+00  0.69809530479E-01 -0.20598111932E-01  0.13153798367E+00  0.20335756356E-01 0.  0.
         14    1    1    2    0    0 -0.97586282302E-03 -0.24021436333E-01 -0.29254832746E-02  0.24218591292E-01  0.00000000000E+00 0.  1.
     999901    1    3    3    0    0  0.10863758026E+00 -0.45788094146E-01  0.23523595206E-01  0.88817342504E+00  0.88000000000E+00 0. -1.
        -11    1    4    4    0    0 -0.19502761541E-01  0.22283094562E-01 -0.73074909822E-02  0.30504992320E-01  0.51100000000E-03 0.  1.
         11    1    4    4    0    0 -0.88158955894E-01  0.47526435917E-01 -0.13290620950E-01  0.10103299135E+00  0.51100000000E-03 0. -1.
</event>
<event>
 8    1  0.1123285E+005  0.1043930E+01  0.7957747E-01            NaN
         13   -1    0    0    0    0  0.00000000000E+00  0.00000000000E+00  0.74505805969E-08  0.10566000000E+00  0.10566000000E+00 0. -1.
     999900   -1    0    0    0    0 -0.00000000000E+00 -0.00000000000E+00 -0.74505805969E-08  0.93827000000E+00  0.93827000000E+00 0.  1.
     999902    2    1    2    0    0 -0.14801944626E-01 -0.20347124395E-02  0.17675561880E-01  0.10207856031E+01  0.10205231915E+01 0.  0.
     999903    2    3    3    0    0  0.96455393354E-01  0.35741471465E-01 -0.73615314363E-01  0.12829512170E+00  0.21431940054E-01 0.  0.
         14    1    1    2    0    0  0.14801944626E-01  0.20347124395E-02 -0.17675561880E-01  0.23144396885E-01  0.00000000000E+00 0.  1.
     999901    1    3    3    0    0 -0.11125733798E+00 -0.37776183904E-01  0.91290876242E-01  0.89249048141E+00  0.88000000000E+00 0. -1.
        -11    1    4    4    0    0  0.43988008564E-01  0.11769073423E-01 -0.20727389798E-01  0.50033406795E-01  0.51100000000E-03 0.  1.
         11    1    4    4    0    0  0.52467384790E-01  0.23972398042E-01 -0.52887924565E-01  0.78261714908E-01  0.51100000000E-03 0. -1.
</event>
<event>
 8    1  0.1123285E+005  0.1043930E+01  0.7957747E-01            NaN
         13   -1    0    0    0    0  0.00000000000E+00  0.00000000000E+00  0.74505805969E-08  0.10566000000E+00  0.10566000000E+00 0. -1.
     999900   -1    0    0    0    0 -0.00000000000E+00 -0.00000000000E+00 -0.74505805969E-08  0.93827000000E+00  0.93827000000E+00 0. -1.
     999902    2    1    2    0    0 -0.16251476269E-01 -0.13266802514E-02  0.16278107498E-01  0.10208898753E+01  0.10206298497E+01 0.  0.
     999903    2    3    3    0    0 -0.94185945483E-01  0.68352846874E-01 -0.57961442982E-01  0.13159772488E+00  0.20379605437E-01 0.  0.
         14    1    1    2    0    0  0.16251476269E-01  0.13266802514E-02 -0.16278107498E-01  0.23040124676E-01  0.00000000000E+00 0.  1.
     999901    1    3    3    0    0  0.77934469214E-01 -0.69679527125E-01  0.74239550480E-01  0.88929215045E+00  0.88000000000E+00 0.  1.
        -11    1    4    4    0    0 -0.39797473268E-01  0.16908568703E-01 -0.19649125334E-01  0.47498292827E-01  0.51100000000E-03 0. -1.
         11    1    4    4    0    0 -0.54388472215E-01  0.51444278171E-01 -0.38312317648E-01  0.84099432049E-01  0.51100000000E-03 0.  1.
</event>
<event>
 8    1  0.1123285E+005  0.1043930E+01  0.7957747E-01            NaN
         13   -1    0    0    0    0  0.00000000000E+00  0.00000000000E+00  0.74505805969E-08  0.10566000000E+00  0.10566000000E+00 0.  1.
     999900   -1    0    0    0    0 -0.00000000000E+00 -0.00000000000E+00 -0.74505805969E-08  0.93827000000E+00  0.93827000000E+00 0.  1.
     999902    2    1    2    0    0 -0.21449757564E-01 -0.34871658808E-02  0.10296169683E-01  0.10198828892E+01  0.10195993548E+01 0.  0.
     999903    2    3    3    0    0 -0.10517149302E+00 -0.11058711090E-02  0.79841432502E-01  0.13317462655E+00  0.17278915417E-01 0.  0.
         14    1    1    2    0    0  0.21449757564E-01  0.34871658808E-02 -0.10296169683E-01  0.24047110753E-01  0.00000000000E+00 0. -1.
     999901    1    3    3    0    0  0.83721735457E-01 -0.23812947719E-02 -0.69545262820E-01  0.88670826270E+00  0.88000000000E+00 0.  1.
        -11    1    4    4    0    0 -0.20937528583E-01 -0.61126469226E-02  0.21152447391E-01  0.30388019139E-01  0.51100000000E-03 0. -1.
         11    1    4    4    0    0 -0.84233964438E-01  0.50067758137E-02  0.58688985111E-01  0.10278660741E+00  0.51100000000E-03 0.  1.
</event>
<event>
 8    1  0.1123285E+005  0.1043930E+01  0.7957747E-01            NaN
         13   -1    0    0    0    0  0.00000000000E+00  0.00000000000E+00  0.74505805969E-08  0.10566000000E+00  0.10566000000E+00 0. -1.
     999900   -1    0    0    0    0 -0.00000000000E+00 -0.00000000000E+00 -0.74505805969E-08  0.93827000000E+00  0.93827000000E+00 0.  1.
     999902    2    1    2    0    0 -0.11216954817E-01 -0.14636956844E-01  0.21577253408E-01  0.10155462292E+01  0.10151494989E+01 0.  0.
     999903    2    3    3    0    0 -0.50789760219E-01  0.92886797240E-01 -0.62095974292E-01  0.12418290615E+00  0.18918966991E-01 0.  0.
         14    1    1    2    0    0  0.11216954817E-01  0.14636956844E-01 -0.21577253408E-01  0.28383770814E-01  0.00000000000E+00 0.  1.
     999901    1    3    3    0    0  0.39572805402E-01 -0.10752375408E+00  0.83673227700E-01  0.89136332304E+00  0.88000000000E+00 0. -1.
        -11    1    4    4    0    0 -0.37458722299E-01  0.81129453493E-01 -0.55626690136E-01  0.10526031482E+00  0.51100000000E-03 0. -1.
         11    1    4    4    0    0 -0.13331037920E-01  0.11757343747E-01 -0.64692841558E-02  0.18922591326E-01  0.51100000000E-03 0.  1.
</event>
<event>
 8    1  0.1123285E+005  0.1043930E+01  0.7957747E-01            NaN
         13   -1    0    0    0    0  0.00000000000E+00  0.00000000000E+00  0.74505805969E-08  0.10566000000E+00  0.10566000000E+00 0. -1.
     999900   -1    0    0    0    0 -0.00000000000E+00 -0.00000000000E+00 -0.74505805969E-08  0.93827000000E+00  0.93827000000E+00 0.  1.
     999902    2    1    2    0    0  0.20356283913E-03 -0.19935865886E-01  0.13256520565E-01  0.10199880802E+01  0.10197070502E+01 0.  0.
     999903    2    3    3    0    0  0.56736522139E-01  0.48814602325E-01  0.10534908478E+00  0.13071666901E+00  0.19660100425E-01 0.  0.
         14    1    1    2    0    0 -0.20356283913E-03  0.19935865886E-01 -0.13256520565E-01  0.23941919805E-01  0.00000000000E+00 0.  1.
     999901    1    3    3    0    0 -0.56532959299E-01 -0.68750468210E-01 -0.92092564215E-01  0.88927141118E+00  0.88000000000E+00 0.  1.
        -11    1    4    4    0    0  0.44325841687E-01  0.26342466361E-01  0.74009058464E-01  0.90201483530E-01  0.51100000000E-03 0.  1.
         11    1    4    4    0    0  0.12410680451E-01  0.22472135964E-01  0.31340026317E-01  0.40515185481E-01  0.51100000000E-03 0. -1.
</event>
<event>
 7    1  0.1123285E+005  0.1043930E+01  0.7957747E-01            NaN
         13   -1    0    0    0    0  0.00000000000E+00  0.00000000000E+00  0.74505805969E-08  0.10566000000E+00  0.10566000000E+00 0.  1.
     999900   -1    0    0    0    0 -0.00000000000E+00 -0.00000000000E+00 -0.74505805969E-08  0.93827000000E+00  0.93827000000E+00 0. -1.
     999902    2    1    2    0    0 -0.17544195363E-01  0.12183784290E-01  0.10464401910E-01  0.10201445612E+01  0.10198672358E+01 0.  0.
         14    1    1    2    0    0  0.17544195363E-01 -0.12183784290E-01 -0.10464401910E-01  0.23785438779E-01  0.00000000000E+00 0. -1.
     999901    1    3    3    0    0  0.29148167115E-01 -0.95684734544E-02  0.17371669814E-01  0.88070593630E+00  0.88000000000E+00 0.  1.
        -11    1    3    3    0    0  0.15282661089E-01  0.22221174661E-01 -0.54821725793E-01  0.61098470302E-01  0.51100000000E-03 0. -1.
         11    1    3    3    0    0 -0.61975023567E-01 -0.46891691698E-03  0.47914457889E-01  0.78340154615E-01  0.51100000000E-03 0.  1.
</event>
<event>
 8    1  0.1123285E+005  0.1043930E+01  0.7957747E-01            NaN
         13   -1    0    0    0    0  0.00000000000E+00  0.00000000000E+00  0.74505805969E-08  0.10566000000E+00  0.10566000000E+00 0. -1.
     999900   -1    0    0    0    0 -0.00000000000E+00 -0.00000000000E+00 -0.74505805969E-08  0.93827000000E+00  0.93827000000E+00 0.  1.
     999902    2    1    2    0    0 -0.77484034093E-02  0.59165768035E-03  0.22776466124E-01  0.10198643560E+01  0.10195803790E+01 0.  0.
     999903    2    3    3    0    0  0.47564567296E-01 -0.86861837547E-01  0.84409969537E-01  0.13166036627E+00  0.20050990101E-01 0.  0.
         14    1    1    2    0    0  0.77484034093E-02 -0.59165768035E-03 -0.22776466124E-01  0.24065644045E-01  0.00000000000E+00 0.  1.
     999901    1    3    3    0    0 -0.55312970705E-01  0.87453495228E-01 -0.61633503412E-01  0.88820398969E+00  0.88000000000E+00 0.  1.
        -11    1    4    4    0    0  0.31470579805E-01 -0.64466873780E-01  0.49460958018E-01  0.87137952107E-01  0.51100000000E-03 0.  1.
         11    1    4    4    0    0  0.16093987490E-01 -0.22394963767E-01  0.34949011518E-01  0.44522414159E-01  0.51100000000E-03 0. -1.
</event>
<event>
 8    1  0.1123285E+005  0.1043930E+01  0.7957747E-01            NaN
         13   -1    0    0    0    0  0.00000000000E+00  0.00000000000E+00  0.74505805969E-08  0.10566000000E+00  0.10566000000E+00 0.  1.
     999900   -1    0    0    0    0 -0.00000000000E+00 -0.00000000000E+00 -0.74505805969E-08  0.93827000000E+00  0.93827000000E+00 0.  1.
     999902    2    1    2    0    0 -0.16981825068E-01 -0.98900640746E-02  0.12407500380E-01  0.10206890487E+01  0.10204244178E+01 0.  0.
     999903    2    3    3    0    0 -0.12575582293E+00  0.15270436058E-01  0.36306863725E-01  0.13331313462E+00  0.20161604362E-01 0.  0.
         14    1    1    2    0    0  0.16981825068E-01  0.98900640746E-02 -0.12407500380E-01  0.23240951265E-01  0.00000000000E+00 0. -1.
     999901    1    3    3    0    0  0.10877399786E+00 -0.25160500132E-01 -0.23899363346E-01  0.88737591411E+00  0.88000000000E+00 0.  1.
        -11    1    4    4    0    0 -0.23220674181E-01 -0.19786524327E-04  0.14479562419E-01  0.27370037445E-01  0.51100000000E-03 0. -1.
         11    1    4    4    0    0 -0.10253514875E+00  0.15290222582E-01  0.21827301307E-01  0.10594309718E+00  0.51100000000E-03 0.  1.
</event>
<event>
 8    1  0.1123285E+005  0.1043930E+01  0.7957747E-01            NaN
         13   -1    0    0    0    0  0.00000000000E+00  0.00000000000E+00  0.74505805969E-08  0.10566000000E+00  0.10566000000E+00 0.  1.
     999900   -1    0    0    0    0 -0.00000000000E+00 -0.00000000000E+00 -0.74505805969E-08  0.93827000000E+00  0.93827000000E+00 0. -1.
     999902    2    1    2    0    0  0.52981269869E-02 -0.40772095674E-03  0.23279873338E-01  0.10200513717E+01  0.10197718431E+01 0.  0.
     999903    2    3    3    0    0  0.98208945720E-02  0.12740846813E+00 -0.94840182212E-02  0.13020256085E+00  0.23095292313E-01 0.  0.
         14    1    1    2    0    0 -0.52981269869E-02  0.40772095674E-03 -0.23279873338E-01  0.23878628281E-01  0.00000000000E+00 0. -1.
     999901    1    3    3    0    0 -0.45227675850E-02 -0.12781618909E+00  0.32763891559E-01  0.88984881087E+00  0.88000000000E+00 0. -1.
        -11    1    4    4    0    0  0.83518630125E-02  0.12019277536E+00 -0.14389272525E-01  0.12133989100E+00  0.51100000000E-03 0. -1.
         11    1    4    4    0    0  0.14690315595E-02  0.72156927755E-02  0.49052543038E-02  0.88626698426E-02  0.51100000000E-03 0.  1.
</event>
<event>
 8    1  0.1123285E+005  0.1043930E+01  0.7957747E-01            NaN
         13   -1    0    0    0    0  0.00000000000E+00  0.00000000000E+00  0.74505805969E-08  0.10566000000E+00  0.10566000000E+00 0. -1.
     999900   -1    0    0    0    0 -0.00000000000E+00 -0.00000000000E+00 -0.74505805969E-08  0.93827000000E+00  0.93827000000E+00 0. -1.
     999902    2    1    2    0    0 -0.68061048795E-02  0.59373189429E-02  0.21501522112E-01  0.10206085448E+01  0.10203420561E+01 0.  0.
     999903    2    3    3    0    0  0.74112437863E-02 -0.12111215381E+00 -0.39709344921E-01  0.12926659482E+00  0.20246978245E-01 0.  0.
         14    1    1    2    0    0  0.68061048795E-02 -0.59373189429E-02 -0.21501522112E-01  0.23321455208E-01  0.00000000000E+00 0.  1.
     999901    1    3    3    0    0 -0.14217348666E-01  0.12704947275E+00  0.61210867033E-01  0.89134194997E+00  0.88000000000E+00 0.  1.
        -11    1    4    4    0    0  0.10083105194E-01 -0.28399699626E-01 -0.12247706080E-01  0.32534279989E-01  0.51100000000E-03 0.  1.
         11    1    4    4    0    0 -0.26718614074E-02 -0.92712454186E-01 -0.27461638841E-01  0.96732314835E-01  0.51100000000E-03 0. -1.
</event>
<event>
 8    1  0.1123285E+005  0.1043930E+01  0.7957747E-01            NaN
         13   -1    0    0    0    0  0.00000000000E+00  0.00000000000E+00  0.74505805969E-08  0.10566000000E+00  0.10566000000E+00 0. -1.
     999900   -1    0    0    0    0 -0.00000000000E+00 -0.00000000000E+00 -0.74505805969E-08  0.93827000000E+00  0.93827000000E+00 0.  1.
     999902    2    1    2    0    0 -0.16754838234E-01  0.10644649276E-01 -0.54919152339E-02  0.10233340223E+01  0.10231267404E+01 0.  0.
     999903    2    3    3    0    0  0.70292477502E-02  0.13065680453E+00 -0.13642363871E-01  0.13483245793E+00  0.29547702564E-01 0.  0.
         14    1    1    2    0    0  0.16754838234E-01 -0.10644649276E-01  0.54919152339E-02  0.20595977651E-01  0.00000000000E+00 0. -1.
     999901    1    3    3    0    0 -0.23784085984E-01 -0.12001215525E+00  0.81504486370E-02  0.88850156441E+00  0.88000000000E+00 0. -1.
        -11    1    4    4    0    0  0.14680751340E-01  0.99764060485E-01 -0.17554791623E-02  0.10085501997E+00  0.51100000000E-03 0. -1.
         11    1    4    4    0    0 -0.76515035897E-02  0.30892744044E-01 -0.11886884709E-01  0.33977437968E-01  0.51100000000E-03 0.  1.
</event>
<event>
 8    1  0.1123285E+005  0.1043930E+01  0.7957747E-01            NaN
         13   -1    0    0    0    0  0.00000000000E+00  0.00000000000E+00  0.74505805969E-08  0.10566000000E+00  0.10566000000E+00 0. -1.
     999900   -1    0    0    0    0 -0.00000000000E+00 -0.00000000000E+00 -0.74505805969E-08  0.93827000000E+00  0.93827000000E+00 0.  1.
     999902    2    1    2    0    0  0.17939388491E-01 -0.10669707766E-01 -0.10648395188E-01  0.10204981276E+01  0.10202290801E+01 0.  0.
     999903    2    3    3    0    0  0.13091255034E+00  0.18886318842E-02 -0.11829596860E-01  0.13318643355E+00  0.21378118554E-01 0.  0.
         14    1    1    2    0    0 -0.17939388491E-01  0.10669707766E-01  0.10648395188E-01  0.23431872382E-01  0.00000000000E+00 0. -1.
     999901    1    3    3    0    0 -0.11297316185E+00 -0.12558339650E-01  0.11812016719E-02  0.88731169407E+00  0.88000000000E+00 0.  1.
        -11    1    4    4    0    0  0.10446162170E+00 -0.65766653911E-02 -0.12412454792E-01  0.10540309811E+00  0.51100000000E-03 0. -1.
         11    1    4    4    0    0  0.26450928638E-01  0.84652972753E-02  0.58285793273E-03  0.27783335439E-01  0.51100000000E-03 0.  1.
</event>
<event>
 8    1  0.1123285E+005  0.1043930E+01  0.7957747E-01            NaN
         13   -1    0    0    0    0  0.00000000000E+00  0.00000000000E+00  0.74505805969E-08  0.10566000000E+00  0.10566000000E+00 0. -1.
     999900   -1    0    0    0    0 -0.00000000000E+00 -0.00000000000E+00 -0.74505805969E-08  0.93827000000E+00  0.93827000000E+00 0. -1.
     999902    2    1    2    0    0  0.11865339441E-01  0.97430185857E-02 -0.18307017812E-01  0.10200373318E+01  0.10197574705E+01 0.  0.
     999903    2    3    3    0    0 -0.68849093368E-01 -0.12372791703E-01  0.10465005875E+00  0.12755631164E+00  0.20632358311E-01 0.  0.
         14    1    1    2    0    0 -0.11865339441E-01 -0.97430185857E-02  0.18307017812E-01  0.23892668172E-01  0.00000000000E+00 0.  1.
     999901    1    3    3    0    0  0.80714432809E-01  0.22115810288E-01 -0.12295707656E+00  0.89248102019E+00  0.88000000000E+00 0. -1.
        -11    1    4    4    0    0 -0.41104302280E-01  0.28640491355E-02  0.61874104675E-01  0.74339978435E-01  0.51100000000E-03 0.  1.
         11    1    4    4    0    0 -0.27744791088E-01 -0.15236840838E-01  0.42775954075E-01  0.53216333200E-01  0.51100000000E-03 0. -1.
</event>
<event>
 8    1  0.1123285E+005  0.1043930E+01  0.7957747E-01            NaN
         13   -1    0    0    0    0  0.00000000000E+00  0.00000000000E+00  0.74505805969E-08  0.10566000000E+00  0.10566000000E+00 0. -1.
     999900   -1    0    0    0    0 -0.00000000000E+00 -0.00000000000E+00 -0.74505805969E-08  0.93827000000E+00  0.93827000000E+00 0. -1.
     999902    2    1    2    0    0 -0.16594334335E-01 -0.85906428403E-02 -0.14491377917E-01  0.10202832008E+01  0.10200091366E+01 0.  0.
     999903    2    3    3    0    0  0.11513318335E+00 -0.33937242386E-01  0.40748704512E-01  0.12840537528E+00  0.20496271697E-01 0.  0.
         14    1    1    2    0    0  0.16594334335E-01  0.85906428403E-02  0.14491377917E-01  0.23646799157E-01  0.00000000000E+00 0. -1.
     999901    1    3    3    0    0 -0.13172751768E+00  0.25346599546E-01 -0.55240082428E-01  0.89187782556E+00  0.88000000000E+00 0. -1.
        -11    1    4    4    0    0  0.37555966634E-01 -0.25750703089E-02  0.17761136800E-01  0.41626922999E-01  0.51100000000E-03 0. -1.
         11    1    4    4    0    0  0.77577216712E-01 -0.31362172078E-01  0.22987567711E-01  0.86778452282E-01  0.51100000000E-03 0.  1.
</event>
<event>
 8    1  0.1123285E+005  0.1043930E+01  0.7957747E-01            NaN
         13   -1    0    0    0    0  0.00000000000E+00  0.00000000000E+00  0.74505805969E-08  0.10566000000E+00  0.10566000000E+00 0.  1.
     999900   -1    0    0    0    0 -0.00000000000E+00 -0.00000000000E+00 -0.74505805969E-08  0.93827000000E+00  0.93827000000E+00 0. -1.
     999902    2    1    2    0    0  0.21080149831E-01 -0.54177366145E-02 -0.98354447862E-02  0.10200456838E+01  0.10197660204E+01 0.  0.
     999903    2    3    3    0    0  0.29168877425E-01 -0.10511593721E+00  0.69409864164E-01  0.13084099548E+00  0.20036296808E-01 0.  0.
         14    1    1    2    0    0 -0.21080149831E-01  0.54177366145E-02  0.98354447862E-02  0.23884316215E-01  0.00000000000E+00 0.  1.
     999901    1    3    3    0    0 -0.80887275941E-02  0.99698200591E-01 -0.79245308951E-01  0.88920468831E+00  0.88000000000E+00 0. -1.
        -11    1    4    4    0    0  0.34302751220E-02 -0.33901892742E-01  0.30359428352E-01  0.45640564520E-01  0.51100000000E-03 0. -1.
         11    1    4    4    0    0  0.25738602303E-01 -0.71214044464E-01  0.39050435813E-01  0.85200430959E-01  0.51100000000E-03 0.  1.
</event>
<event>
 8    1  0.1123285E+005  0.1043930E+01  0.7957747E-01            NaN
         13   -1    0    0    0    0  0.00000000000E+00  0.00000000000E+00  0.74505805969E-08  0.10566000000E+00  0.10566000000E+00 0. -1.
     999900   -1    0    0    0    0 -0.00000000000E+00 -0.00000000000E+00 -0.74505805969E-08  0.93827000000E+00  0.93827000000E+00 0.  1.
     999902    2    1    2    0    0  0.36864942114E-02  0.79534167096E-03  0.23616433823E-01  0.10200143408E+01  0.10197339343E+01 0.  0.
     999903    2    3    3    0    0  0.11782366868E+00  0.29997680310E-01  0.46919918529E-01  0.13185719054E+00  0.20063953146E-01 0.  0.
         14    1    1    2    0    0 -0.36864942114E-02 -0.79534167096E-03 -0.23616433823E-01  0.23915659190E-01  0.00000000000E+00 0.  1.
     999901    1    3    3    0    0 -0.11413717447E+00 -0.29202338639E-01 -0.23303484705E-01  0.88815715027E+00  0.88000000000E+00 0. -1.
        -11    1    4    4    0    0  0.77944041708E-01  0.26499464729E-01  0.38773469543E-01  0.91000760053E-01  0.51100000000E-03 0. -1.
         11    1    4    4    0    0  0.39879626976E-01  0.34982155810E-02  0.81464489856E-02  0.40856430486E-01  0.51100000000E-03 0.  1.
</event>
<event>
 8    1  0.1123285E+005  0.1043930E+01  0.7957747E-01            NaN
         13   -1    0    0    0    0  0.00000000000E+00  0.00000000000E+00  0.74505805969E-08  0.10566000000E+00  0.10566000000E+00 0.  1.
     999900   -1    0    0    0    0 -0.00000000000E+00 -0.00000000000E+00 -0.74505805969E-08  0.93827000000E+00  0.93827000000E+00 0.  1.
     999902    2    1    2    0    0  0.11171604750E-01 -0.22451186697E-01 -0.29642514614E-02  0.10186783204E+01  0.10183652945E+01 0.  0.
     999903    2    3    3    0    0  0.69214804122E-01  0.34449889256E-01  0.10209858811E+00  0.12870925030E+00  0.12824408015E-01 0.  0.
         14    1    1    2    0    0 -0.11171604750E-01  0.22451186697E-01  0.29642514614E-02  0.25251679618E-01  0.00000000000E+00 0.  1.
     999901    1    3    3    0    0 -0.58043199372E-01 -0.56901075953E-01 -0.10506283957E+00  0.88996907008E+00  0.88000000000E+00 0.  1.
        -11    1    4    4    0    0  0.24914419977E-01  0.17982716040E-01  0.46479866953E-01  0.55720243646E-01  0.51100000000E-03 0.  1.
         11    1    4    4    0    0  0.44300384145E-01  0.16467173216E-01  0.55618721154E-01  0.72989006658E-01  0.51100000000E-03 0. -1.
</event>
<event>
 8    1  0.1123285E+005  0.1043930E+01  0.7957747E-01            NaN
         13   -1    0    0    0    0  0.00000000000E+00  0.00000000000E+00  0.74505805969E-08  0.10566000000E+00  0.10566000000E+00 0.  1.
     999900   -1    0    0    0    0 -0.00000000000E+00 -0.00000000000E+00 -0.74505805969E-08  0.93827000000E+00  0.93827000000E+00 0.  1.
     999902    2    1    2    0    0 -0.85926260091E-02 -0.11931987013E-01  0.19117191944E-01  0.10198121111E+01  0.10195268851E+01 0.  0.
     999903    2    3    3    0    0 -0.50460416362E-01  0.90062818795E-01  0.78003183580E-01  0.13097949905E+00  0.20336360892E-01 0.  0.
         14    1    1    2    0    0  0.85926260091E-02  0.11931987013E-01 -0.19117191944E-01  0.24117888872E-01  0.00000000000E+00 0. -1.
     999901    1    3    3    0    0  0.41867790353E-01 -0.10199480581E+00 -0.58885991636E-01  0.88883261208E+00  0.88000000000E+00 0. -1.
        -11    1    4    4    0    0 -0.25142356386E-02  0.19883732315E-01  0.17943338083E-01  0.26905551364E-01  0.51100000000E-03 0.  1.
         11    1    4    4    0    0 -0.47946180723E-01  0.70179086479E-01  0.60059845497E-01  0.10407394769E+00  0.51100000000E-03 0. -1.
</event>
<event>
 8    1  0.1123285E+005  0.1043930E+01  0.7957747E-01            NaN
         13   -1    0    0    0    0  0.00000000000E+00  0.00000000000E+00  0.74505805969E-08  0.10566000000E+00  0.10566000000E+00 0.  1.
     999900   -1    0    0    0    0 -0.00000000000E+00 -0.00000000000E+00 -0.74505805969E-08  0.93827000000E+00  0.93827000000E+00 0.  1.
     999902    2    1    2    0    0 -0.22058823546E-01  0.13084768948E-01  0.12631673406E-01  0.10153404556E+01  0.10149378694E+01 0.  0.
     999903    2    3    3    0    0 -0.10149925421E-01  0.10370993760E+00  0.72586755688E-01  0.12857704020E+00  0.20110843365E-01 0.  0.
         14    1    1    2    0    0  0.22058823546E-01 -0.13084768948E-01 -0.12631673406E-01  0.28589544377E-01  0.00000000000E+00 0. -1.
     999901    1    3    3    0    0 -0.11908898125E-01 -0.90625168654E-01 -0.59955082282E-01  0.88676341543E+00  0.88000000000E+00 0.  1.
        -11    1    4    4    0    0  0.78652022396E-03  0.11191973081E-01  0.16087681604E-01  0.19620231801E-01  0.51100000000E-03 0. -1.
         11    1    4    4    0    0 -0.10936445645E-01  0.92517964521E-01  0.56499074084E-01  0.10895680840E+00  0.51100000000E-03 0.  1.
</event>
<event>
 8    1  0.1123285E+005  0.1043930E+01  0.7957747E-01            NaN
         13   -1    0    0    0    0  0.00000000000E+00  0.00000000000E+00  0.74505805969E-08  0.10566000000E+00  0.10566000000E+00 0.  1.
     999900   -1    0    0    0    0 -0.00000000000E+00 -0.00000000000E+00 -0.74505805969E-08  0.93827000000E+00  0.93827000000E+00 0.  1.
     999902    2    1    2    0    0  0.73063683840E-02 -0.15026192342E-01  0.17384471852E-01  0.10198179836E+01  0.10195328981E+01 0.  0.
     999903    2    3    3    0    0  0.12506577088E+00  0.17286889800E-01  0.30405900207E-01  0.13129056713E+00  0.19297944062E-01 0.  0.
         14    1    1    2    0    0 -0.73063683840E-02  0.15026192342E-01 -0.17384471852E-01  0.24112016441E-01  0.00000000000E+00 0. -1.
     999901    1    3    3    0    0 -0.11775940249E+00 -0.32313082142E-01 -0.13021428355E-01  0.88852741643E+00  0.88000000000E+00 0.  1.
        -11    1    4    4    0    0  0.86252923550E-01  0.12132685235E-01  0.11669266429E-01  0.87881748799E-01  0.51100000000E-03 0. -1.
         11    1    4    4    0    0  0.38812847328E-01  0.51542045654E-02  0.18736633777E-01  0.43408818329E-01  0.51100000000E-03 0.  1.
</event>
<event>
 8    1  0.1123285E+005  0.1043930E+01  0.7957747E-01            NaN
         13   -1    0    0    0    0  0.00000000000E+00  0.00000000000E+00  0.74505805969E-08  0.10566000000E+00  0.10566000000E+00 0. -1.
     999900   -1    0    0    0    0 -0.00000000000E+00 -0.00000000000E+00 -0.74505805969E-08  0.93827000000E+00  0.93827000000E+00 0. -1.
     999902    2    1    2    0    0 -0.87185916180E-02  0.22981092151E-02 -0.20968498218E-01  0.10211051656E+01  0.10208500312E+01 0.  0.
     999903    2    3    3    0    0 -0.56823867119E-01 -0.10924793611E+00 -0.44657054535E-01  0.13244449618E+00  0.19576226138E-01 0.  0.
         14    1    1    2    0    0  0.87185916180E-02 -0.22981092151E-02  0.20968498218E-01  0.22824834354E-01  0.00000000000E+00 0. -1.
     999901    1    3    3    0    0  0.48105275501E-01  0.11154604532E+00  0.23688556317E-01  0.88866066947E+00  0.88000000000E+00 0. -1.
        -11    1    4    4    0    0 -0.28174726702E-01 -0.71761515391E-01 -0.32873315134E-01  0.83811969818E-01  0.51100000000E-03 0.  1.
         11    1    4    4    0    0 -0.28649140418E-01 -0.37486420718E-01 -0.11783739401E-01  0.48632526360E-01  0.51100000000E-03 0. -1.
</event>
<event>
 8    1  0.1123285E+005  0.1043930E+01  0.7957747E-01            NaN
         13   -1    0    0    0    0  0.00000000000E+00  0.00000000000E+00  0.74505805969E-08  0.10566000000E+00  0.10566000000E+00 0.  1.
     999900   -1    0    0    0    0 -0.00000000000E+00 -0.00000000000E+00 -0.74505805969E-08  0.93827000000E+00  0.93827000000E+00 0.  1.
     999902    2    1    2    0    0  0.50056358472E-02 -0.10650734180E-01  0.19858124986E-01  0.10208466801E+01  0.10205856675E+01 0.  0.
     999903    2    3    3    0    0  0.78079214913E-01 -0.39960303756E-01  0.99002987363E-01  0.13379385865E+00  0.20149824545E-01 0.  0.
         14    1    1    2    0    0 -0.50056358472E-02  0.10650734180E-01 -0.19858124986E-01  0.23083319882E-01  0.00000000000E+00 0. -1.
     999901    1    3    3    0    0 -0.73073579066E-01  0.29309569575E-01 -0.79144862377E-01  0.88705282146E+00  0.88000000000E+00 0.  1.
        -11    1    4    4    0    0  0.48922472016E-01 -0.32761772315E-01  0.74954818045E-01  0.95316461656E-01  0.51100000000E-03 0. -1.
         11    1    4    4    0    0  0.29156742897E-01 -0.71985314407E-02  0.24048169318E-01  0.38477396999E-01  0.51100000000E-03 0.  1.
</event>
<event>
 8    1  0.1123285E+005  0.1043930E+01  0.7957747E-01            NaN
         13   -1    0    0    0    0  0.00000000000E+00  0.00000000000E+00  0.74505805969E-08  0.10566000000E+00  0.10566000000E+00 0.  1.
     999900   -1    0    0    0    0 -0.00000000000E+00 -0.00000000000E+00 -0.74505805969E-08  0.93827000000E+00  0.93827000000E+00 0. -1.
     999902    2    1    2    0    0  0.20187183039E-01 -0.12037543881E-01  0.85401150018E-03  0.10204107705E+01  0.10201396896E+01 0.  0.
     999903    2    3    3    0    0 -0.55179069508E-01 -0.50123250169E-01  0.10497617764E+00  0.13025796420E+00  0.19750175810E-01 0.  0.
         14    1    1    2    0    0 -0.20187183039E-01  0.12037543881E-01 -0.85401150018E-03  0.23519229523E-01  0.00000000000E+00 0.  1.
     999901    1    3    3    0    0  0.75366252547E-01  0.38085706287E-01 -0.10412216614E+00  0.89015280628E+00  0.88000000000E+00 0. -1.
        -11    1    4    4    0    0 -0.68545600917E-03 -0.79802432723E-02  0.14061383351E-01  0.16190668775E-01  0.51100000000E-03 0.  1.
         11    1    4    4    0    0 -0.54493613499E-01 -0.42143006897E-01  0.90914794293E-01  0.11406729542E+00  0.51100000000E-03 0. -1.
</event>
<event>
 8    1  0.1123285E+005  0.1043930E+01  0.7957747E-01            NaN
         13   -1    0    0    0    0  0.00000000000E+00  0.00000000000E+00  0.74505805969E-08  0.10566000000E+00  0.10566000000E+00 0. -1.
     999900   -1    0    0    0    0 -0.00000000000E+00 -0.00000000000E+00 -0.74505805969E-08  0.93827000000E+00  0.93827000000E+00 0. -1.
     999902    2    1    2    0    0 -0.22317175388E-01  0.34923452204E-02  0.70174577941E-02  0.10202763004E+01  0.10200020743E+01 0.  0.
     999903    2    3    3    0    0 -0.96133888566E-01  0.58058251288E-01  0.69040541175E-01  0.13333029969E+00  0.19947115468E-01 0.  0.
         14    1    1    2    0    0  0.22317175388E-01 -0.34923452204E-02 -0.70174577941E-02  0.23653699633E-01  0.00000000000E+00 0.  1.
     999901    1    3    3    0    0  0.73816713178E-01 -0.54565906067E-01 -0.62023083380E-01  0.88694600068E+00  0.88000000000E+00 0.  1.
        -11    1    4    4    0    0 -0.53306740788E-01  0.39932269141E-01  0.48997497446E-01  0.82687427152E-01  0.51100000000E-03 0.  1.
         11    1    4    4    0    0 -0.42827147779E-01  0.18125982147E-01  0.20043043729E-01  0.50642872535E-01  0.51100000000E-03 0. -1.
</event>
<event>
 8    1  0.1123285E+005  0.1043930E+01  0.7957747E-01            NaN
         13   -1    0    0    0    0  0.00000000000E+00  0.00000000000E+00  0.74505805969E-08  0.10566000000E+00  0.10566000000E+00 0.  1.
     999900   -1    0    0    0    0 -0.00000000000E+00 -0.00000000000E+00 -0.74505805969E-08  0.93827000000E+00  0.93827000000E+00 0.  1.
     999902    2    1    2    0    0 -0.55015594434E-02  0.15476268489E-01  0.15763222332E-01  0.10211646487E+01  0.10209108573E+01 0.  0.
     999903    2    3    3    0    0  0.11660479444E+00  0.38529274731E-01 -0.39739058393E-01  0.13070302349E+00  0.20564641766E-01 0.  0.
         14    1    1    2    0    0  0.55015594434E-02 -0.15476268489E-01 -0.15763222332E-01  0.22765351324E-01  0.00000000000E+00 0. -1.
     999901    1    3    3    0    0 -0.12210635388E+00 -0.23053006243E-01  0.55502280725E-01  0.89046162518E+00  0.88000000000E+00 0. -1.
        -11    1    4    4    0    0  0.77423742407E-01  0.21264301115E-01 -0.16450372857E-01  0.81960248159E-01  0.51100000000E-03 0.  1.
         11    1    4    4    0    0  0.39181052033E-01  0.17264973616E-01 -0.23288685536E-01  0.48742775335E-01  0.51100000000E-03 0. -1.
</event>
<event>
 8    1  0.1123285E+005  0.1043930E+01  0.7957747E-01            NaN
         13   -1    0    0    0    0  0.00000000000E+00  0.00000000000E+00  0.74505805969E-08  0.10566000000E+00  0.10566000000E+00 0.  1.
     999900   -1    0    0    0    0 -0.00000000000E+00 -0.00000000000E+00 -0.74505805969E-08  0.93827000000E+00  0.93827000000E+00 0.  1.
     999902    2    1    2    0    0 -0.12600011960E-01  0.19596829991E-01 -0.11869031621E-01  0.10177829168E+01  0.10174469990E+01 0.  0.
     999903    2    3    3    0    0  0.41332444025E-01 -0.11669810871E+00 -0.84601583029E-02  0.12565252246E+00  0.19752534462E-01 0.  0.
         14    1    1    2    0    0  0.12600011960E-01 -0.19596829991E-01  0.11869031621E-01  0.26147083177E-01  0.00000000000E+00 0.  1.
     999901    1    3    3    0    0 -0.53932455985E-01  0.13629493870E+00 -0.34088733178E-02  0.89213039436E+00  0.88000000000E+00 0.  1.
        -11    1    4    4    0    0  0.34233364449E-01 -0.80724044904E-01 -0.13213239339E-01  0.88674378949E-01  0.51100000000E-03 0. -1.
         11    1    4    4    0    0  0.70990795760E-02 -0.35974063804E-01  0.47530810359E-02  0.36978143514E-01  0.51100000000E-03 0.  1.
</event>
<event>
 8    1  0.1123285E+005  0.1043930E+01  0.7957747E-01            NaN
         13   -1    0    0    0    0  0.00000000000E+00  0.00000000000E+00  0.74505805969E-08  0.10566000000E+00  0.10566000000E+00 0. -1.
     999900   -1    0    0    0    0 -0.00000000000E+00 -0.00000000000E+00 -0.74505805969E-08  0.93827000000E+00  0.93827000000E+00 0. -1.
     999902    2    1    2    0    0  0.10441769654E-01 -0.69481331129E-02  0.17695690447E-01  0.10222402658E+01  0.10220101352E+01 0.  0.
     999903    2    3    3    0    0  0.77742704216E-01  0.97073735862E-01 -0.39634393844E-01  0.13171418336E+00  0.17621085964E-01 0.  0.
         14    1    1    2    0    0 -0.10441769654E-01  0.69481331129E-02 -0.17695690447E-01  0.21689734154E-01  0.00000000000E+00 0.  1.
     999901    1    3    3    0    0 -0.67300934562E-01 -0.10402186898E+00  0.57330084291E-01  0.89052608248E+00  0.88000000000E+00 0. -1.
        -11    1    4    4    0    0  0.49037969320E-01  0.57397618168E-01 -0.15306568224E-01  0.77030910407E-01  0.51100000000E-03 0. -1.
         11    1    4    4    0    0  0.28704734895E-01  0.39676117695E-01 -0.24327825621E-01  0.54683272956E-01  0.51100000000E-03 0.  1.
</event>
<event>
 8    1  0.1123285E+005  0.1043930E+01  0.7957747E-01            NaN
         13   -1    0    0    0    0  0.00000000000E+00  0.00000000000E+00  0.74505805969E-08  0.10566000000E+00  0.10566000000E+00 0.  1.
     999900   -1    0    0    0    0 -0.00000000000E+00 -0.00000000000E+00 -0.74505805969E-08  0.93827000000E+00  0.93827000000E+00 0. -1.
     999902    2    1    2    0    0  0.78783544518E-02  0.34035425578E-01 -0.47184674627E-03  0.10089914639E+01  0.10083863709E+01 0.  0.
     999903    2    3    3    0    0  0.48917610677E-01 -0.33939479254E-01  0.10237513282E+00  0.11945095927E+00  0.15589835257E-01 0.  0.
         14    1    1    2    0    0 -0.78783544518E-02 -0.34035425578E-01  0.47184674627E-03  0.34938536067E-01  0.00000000000E+00 0. -1.
     999901    1    3    3    0    0 -0.41039256225E-01  0.67974904832E-01 -0.10284697957E+00  0.88954050467E+00  0.88000000000E+00 0.  1.
        -11    1    4    4    0    0  0.39683924181E-01 -0.19127895768E-01  0.71675855554E-01  0.84133106595E-01  0.51100000000E-03 0.  1.
         11    1    4    4    0    0  0.92336864959E-02 -0.14811583485E-01  0.30699277265E-01  0.35317852671E-01  0.51100000000E-03 0. -1.
</event>
<event>
 8    1  0.1123285E+005  0.1043930E+01  0.7957747E-01            NaN
         13   -1    0    0    0    0  0.00000000000E+00  0.00000000000E+00  0.74505805969E-08  0.10566000000E+00  0.10566000000E+00 0. -1.
     999900   -1    0    0    0    0 -0.00000000000E+00 -0.00000000000E+00 -0.74505805969E-08  0.93827000000E+00  0.93827000000E+00 0. -1.
     999902    2    1    2    0    0 -0.81189119948E-02  0.19592142491E-01  0.12107024681E-01  0.10195097456E+01  0.10192172352E+01 0.  0.
     999903    2    3    3    0    0  0.26084421855E-01  0.47431920741E-01  0.11864566992E+00  0.13198768713E+00  0.20341346911E-01 0.  0.
         14    1    1    2    0    0  0.81189119948E-02 -0.19592142491E-01 -0.12107024681E-01  0.24420254421E-01  0.00000000000E+00 0.  1.
     999901    1    3    3    0    0 -0.34203333850E-01 -0.27839778250E-01 -0.10653864524E+00  0.88752205845E+00  0.88000000000E+00 0. -1.
        -11    1    4    4    0    0 -0.77666542734E-03  0.13993695705E-01  0.40267417596E-01  0.42639802644E-01  0.51100000000E-03 0.  1.
         11    1    4    4    0    0  0.26861087283E-01  0.33438225036E-01  0.78378252328E-01  0.89347884488E-01  0.51100000000E-03 0. -1.
</event>
<event>
 8    1  0.1123285E+005  0.1043930E+01  0.7957747E-01            NaN
         13   -1    0    0    0    0  0.00000000000E+00  0.00000000000E+00  0.74505805969E-08  0.10566000000E+00  0.10566000000E+00 0. -1.
     999900   -1    0    0    0    0 -0.00000000000E+00 -0.00000000000E+00 -0.74505805969E-08  0.93827000000E+00  0.93827000000E+00 0.  1.
     999902    2    1    2    0    0  0.74676882433E-02  0.20118080600E-01  0.10071292560E-01  0.10202248430E+01  0.10199494085E+01 0.  0.
     999903    2    3    3    0    0  0.38566580104E-01  0.52554322100E-01 -0.11176918113E+00  0.13069443212E+00  0.18421369779E-01 0.  0.
         14    1    1    2    0    0 -0.74676882433E-02 -0.20118080600E-01 -0.10071292560E-01  0.23705157004E-01  0.00000000000E+00 0. -1.
     999901    1    3    3    0    0 -0.31098891861E-01 -0.32436241499E-01  0.12184047369E+00  0.88953041087E+00  0.88000000000E+00 0. -1.
        -11    1    4    4    0    0  0.25587928776E-01  0.20994299037E-01 -0.63040947034E-01  0.71203404518E-01  0.51100000000E-03 0.  1.
         11    1    4    4    0    0  0.12978651328E-01  0.31560023063E-01 -0.48728234100E-01  0.59491027605E-01  0.51100000000E-03 0. -1.
</event>
<event>
 8    1  0.1123285E+005  0.1043930E+01  0.7957747E-01            NaN
         13   -1    0    0    0    0  0.00000000000E+00  0.00000000000E+00  0.74505805969E-08  0.10566000000E+00  0.10566000000E+00 0.  1.
     999900   -1    0    0    0    0 -0.00000000000E+00 -0.00000000000E+00 -0.74505805969E-08  0.93827000000E+00  0.93827000000E+00 0. -1.
     999902    2    1    2    0    0  0.39069788742E-02 -0.17108733798E-01 -0.14590231568E-01  0.10211079030E+01  0.10208528304E+01 0.  0.
     999903    2    3    3    0    0  0.39257551100E-01 -0.10253668814E+00  0.70635721485E-01  0.13216973784E+00  0.20603560769E-01 0.  0.
         14    1    1    2    0    0 -0.39069788742E-02  0.17108733798E-01  0.14590231568E-01  0.22822097040E-01  0.00000000000E+00 0.  1.
     999901    1    3    3    0    0 -0.35350572226E-01  0.85427954345E-01 -0.85225953053E-01  0.88893816512E+00  0.88000000000E+00 0. -1.
        -11    1    4    4    0    0  0.10237170842E-01 -0.44299314932E-01  0.38586813342E-01  0.59635830297E-01  0.51100000000E-03 0.  1.
         11    1    4    4    0    0  0.29020380258E-01 -0.58237373211E-01  0.32048908143E-01  0.72533907540E-01  0.51100000000E-03 0. -1.
</event>
<event>
 8    1  0.1123285E+005  0.1043930E+01  0.7957747E-01            NaN
         13   -1    0    0    0    0  0.00000000000E+00  0.00000000000E+00  0.74505805969E-08  0.10566000000E+00  0.10566000000E+00 0.  1.
     999900   -1    0    0    0    0 -0.00000000000E+00 -0.00000000000E+00 -0.74505805969E-08  0.93827000000E+00  0.93827000000E+00 0. -1.
     999902    2    1    2    0    0  0.18794896114E-01 -0.11707361412E-01 -0.42614398552E-02  0.10213807140E+01  0.10211317704E+01 0.  0.
     999903    2    3    3    0    0  0.55712415644E-01  0.70129567835E-01 -0.95204877357E-01  0.13215020669E+00  0.19433962912E-01 0.  0.
         14    1    1    2    0    0 -0.18794896114E-01  0.11707361412E-01  0.42614398552E-02  0.22549286038E-01  0.00000000000E+00 0.  1.
     999901    1    3    3    0    0 -0.36917519530E-01 -0.81836929247E-01  0.90943437502E-01  0.88923050727E+00  0.88000000000E+00 0.  1.
        -11    1    4    4    0    0  0.71903384287E-02  0.32805037905E-02 -0.33036458943E-02  0.85812510180E-02  0.51100000000E-03 0. -1.
         11    1    4    4    0    0  0.48522077215E-01  0.66849064044E-01 -0.91901231463E-01  0.12356895567E+00  0.51100000000E-03 0.  1.
</event>
<event>
 8    1  0.1123285E+005  0.1043930E+01  0.7957747E-01            NaN
         13   -1    0    0    0    0  0.00000000000E+00  0.00000000000E+00  0.74505805969E-08  0.10566000000E+00  0.10566000000E+00 0. -1.
     999900   -1    0    0    0    0 -0.00000000000E+00 -0.00000000000E+00 -0.74505805969E-08  0.93827000000E+00  0.93827000000E+00 0.  1.
     999902    2    1    2    0    0  0.96481635892E-02 -0.53845526049E-02  0.18661545461E-01  0.10222428207E+01  0.10220127449E+01 0.  0.
     999903    2    3    3    0    0  0.80267427452E-01  0.78631551239E-01 -0.65455567356E-01  0.13144459730E+00  0.19169509662E-01 0.  0.
         14    1    1    2    0    0 -0.96481635892E-02  0.53845526049E-02 -0.18661545461E-01  0.21687179309E-01  0.00000000000E+00 0.  1.
     999901    1    3    3    0    0 -0.70619263862E-01 -0.84016103844E-01  0.84117112817E-01  0.89079822339E+00  0.88000000000E+00 0. -1.
        -11    1    4    4    0    0  0.49644157219E-01  0.49125044040E-01 -0.29752393716E-01  0.75916258804E-01  0.51100000000E-03 0. -1.
         11    1    4    4    0    0  0.30623270232E-01  0.29506507199E-01 -0.35703173640E-01  0.55528338493E-01  0.51100000000E-03 0.  1.
</event>
<event>
 8    1  0.1123285E+005  0.1043930E+01  0.7957747E-01            NaN
         13   -1    0    0    0    0  0.00000000000E+00  0.00000000000E+00  0.74505805969E-08  0.10566000000E+00  0.10566000000E+00 0. -1.
     999900   -1    0    0    0    0 -0.00000000000E+00 -0.00000000000E+00 -0.74505805969E-08  0.93827000000E+00  0.93827000000E+00 0. -1.
     999902    2    1    2    0    0  0.14746029756E-01 -0.18060392363E-01 -0.80720075223E-03  0.10206003035E+01  0.10203336242E+01 0.  0.
     999903    2    3    3    0    0 -0.11000630926E-01  0.17248596618E-01 -0.12749947116E+00  0.13045394103E+00  0.18536116562E-01 0.  0.
         14    1    1    2    0    0 -0.14746029756E-01  0.18060392363E-01  0.80720075223E-03  0.23329696503E-01  0.00000000000E+00 0. -1.
     999901    1    3    3    0    0  0.25746660682E-01 -0.35308988981E-01  0.12669227041E+00  0.89014636247E+00  0.88000000000E+00 0.  1.
        -11    1    4    4    0    0 -0.86442224332E-02 -0.14256716774E-02 -0.39953979755E-01  0.40906438863E-01  0.51100000000E-03 0.  1.
         11    1    4    4    0    0 -0.23564084933E-02  0.18674268295E-01 -0.87545491405E-01  0.89547502163E-01  0.51100000000E-03 0. -1.
</event>
<event>
 8    1  0.1123285E+005  0.1043930E+01  0.7957747E-01            NaN
         13   -1    0    0    0    0  0.00000000000E+00  0.00000000000E+00  0.74505805969E-08  0.10566000000E+00  0.10566000000E+00 0.  1.
     999900   -1    0    0    0    0 -0.00000000000E+00 -0.00000000000E+00 -0.74505805969E-08  0.93827000000E+00  0.93827000000E+00 0. -1.
     999902    2    1    2    0    0  0.44906961295E-02  0.18192053895E-01 -0.14604707601E-01  0.10201725872E+01  0.10198959227E+01 0.  0.
     999903    2    3    3    0    0 -0.12089693246E+00 -0.35800743875E-01 -0.22717814077E-01  0.12960922504E+00  0.19613530975E-01 0.  0.
         14    1    1    2    0    0 -0.44906961295E-02 -0.18192053895E-01  0.14604707601E-01  0.23757412754E-01  0.00000000000E+00 0.  1.
     999901    1    3    3    0    0  0.12538762859E+00  0.53992797771E-01  0.81131064760E-02  0.89056336221E+00  0.88000000000E+00 0. -1.
        -11    1    4    4    0    0 -0.20534830626E-01 -0.65404255967E-02  0.34763048365E-02  0.21835802073E-01  0.51100000000E-03 0.  1.
         11    1    4    4    0    0 -0.10036210183E+00 -0.29260318279E-01 -0.26194118914E-01  0.10777342296E+00  0.51100000000E-03 0. -1.
</event>
<event>
 8    1  0.1123285E+005  0.1043930E+01  0.7957747E-01            NaN
         13   -1    0    0    0    0  0.00000000000E+00  0.00000000000E+00  0.74505805969E-08  0.10566000000E+00  0.10566000000E+00 0.  1.
     999900   -1    0    0    0    0 -0.00000000000E+00 -0.00000000000E+00 -0.74505805969E-08  0.93827000000E+00  0.93827000000E+00 0.  1.
     999902    2    1    2    0    0 -0.10036204348E-01  0.55748991814E-02  0.21252538237E-01  0.10197747670E+01  0.10194886464E+01 0.  0.
     999903    2    3    3    0    0  0.42944342068E-01  0.77590902158E-01 -0.90420742030E-01  0.12822321803E+00  0.20017952944E-01 0.  0.
         14    1    1    2    0    0  0.10036204348E-01 -0.55748991814E-02 -0.21252538237E-01  0.24155232976E-01  0.00000000000E+00 0. -1.
     999901    1    3    3    0    0 -0.52980546415E-01 -0.72016002977E-01  0.11167328027E+00  0.89155154899E+00  0.88000000000E+00 0. -1.
        -11    1    4    4    0    0  0.11442921514E-01  0.66102949709E-02 -0.14344307466E-01  0.19510426188E-01  0.51100000000E-03 0.  1.
         11    1    4    4    0    0  0.31501420553E-01  0.70980607187E-01 -0.76076434564E-01  0.10871279184E+00  0.51100000000E-03 0. -1.
</event>
<event>
 8    1  0.1123285E+005  0.1043930E+01  0.7957747E-01            NaN
         13   -1    0    0    0    0  0.00000000000E+00  0.00000000000E+00  0.74505805969E-08  0.10566000000E+00  0.10566000000E+00 0.  1.
     999900   -1    0    0    0    0 -0.00000000000E+00 -0.00000000000E+00 -0.74505805969E-08  0.93827000000E+00  0.93827000000E+00 0.  1.
     999902    2    1    2    0    0  0.19025414011E-01 -0.14605924585E-01  0.59157387371E-03  0.10199373059E+01  0.10196550684E+01 0.  0.
     999903    2    3    3    0    0 -0.66694889103E-01  0.45659413989E-01 -0.97649238203E-01  0.12829211941E+00  0.19761170606E-01 0.  0.
         14    1    1    2    0    0 -0.19025414011E-01  0.14605924585E-01 -0.59157387371E-03  0.23992694115E-01  0.00000000000E+00 0. -1.
     999901    1    3    3    0    0  0.85720303114E-01 -0.60265338574E-01  0.98240812077E-01  0.89164518647E+00  0.88000000000E+00 0. -1.
        -11    1    4    4    0    0 -0.56506888324E-01  0.28610508548E-01 -0.74566654691E-01  0.97836786232E-01  0.51100000000E-03 0. -1.
         11    1    4    4    0    0 -0.10188000779E-01  0.17048905441E-01 -0.23082583512E-01  0.30455333182E-01  0.51100000000E-03 0.  1.
</event>
<event>
 8    1  0.1123285E+005  0.1043930E+01  0.7957747E-01            NaN
         13   -1    0    0    0    0  0.00000000000E+00  0.00000000000E+00  0.74505805969E-08  0.10566000000E+00  0.10566000000E+00 0.  1.
     999900   -1    0    0    0    0 -0.00000000000E+00 -0.00000000000E+00 -0.74505805969E-08  0.93827000000E+00  0.93827000000E+00 0. -1.
     999902    2    1    2    0    0  0.32386588636E-02 -0.21472531457E-01 -0.95952813423E-02  0.10201891503E+01  0.10199128760E+01 0.  0.
     999903    2    3    3    0    0 -0.59498664648E-01  0.75084880317E-01 -0.84972835433E-01  0.12949218662E+00  0.19235729415E-01 0.  0.
         14    1    1    2    0    0 -0.32386588636E-02  0.21472531457E-01  0.95952813423E-02  0.23740849657E-01  0.00000000000E+00 0.  1.
     999901    1    3    3    0    0  0.62737323512E-01 -0.96557411774E-01  0.75377554091E-01  0.89069696373E+00  0.88000000000E+00 0. -1.
        -11    1    4    4    0    0 -0.56492420519E-01  0.63769353676E-01 -0.79619734281E-01  0.11660826408E+00  0.51100000000E-03 0.  1.
         11    1    4    4    0    0 -0.30062441290E-02  0.11315526641E-01 -0.53531011518E-02  0.12883922534E-01  0.51100000000E-03 0. -1.
</event>
<event>
 8    1  0.1123285E+005  0.1043930E+01  0.7957747E-01            NaN
         13   -1    0    0    0    0  0.00000000000E+00  0.00000000000E+00  0.74505805969E-08  0.10566000000E+00  0.10566000000E+00 0.  1.
     999900   -1    0    0    0    0 -0.00000000000E+00 -0.00000000000E+00 -0.74505805969E-08  0.93827000000E+00  0.93827000000E+00 0.  1.
     999902    2    1    2    0    0  0.22346068120E-01  0.25377824851E-02 -0.46903065782E-02  0.10209564048E+01  0.10206978958E+01 0.  0.
     999903    2    3    3    0    0 -0.11388776802E+00 -0.30203058808E-01  0.46547631370E-01  0.12839999366E+00  0.20909995651E-01 0.  0.
         14    1    1    2    0    0 -0.22346068120E-01 -0.25377824851E-02  0.46903065782E-02  0.22973595195E-01  0.00000000000E+00 0. -1.
     999901    1    3    3    0    0  0.13623383614E+00  0.32740841293E-01 -0.51237937949E-01  0.89255641115E+00  0.88000000000E+00 0.  1.
        -11    1    4    4    0    0 -0.74921652899E-01 -0.28048567741E-01  0.37407176583E-01  0.88314971587E-01  0.51100000000E-03 0. -1.
         11    1    4    4    0    0 -0.38966115123E-01 -0.21544910669E-02  0.91404547877E-02  0.40085022069E-01  0.51100000000E-03 0.  1.
</event>
<event>
 8    1  0.1123285E+005  0.1043930E+01  0.7957747E-01            NaN
         13   -1    0    0    0    0  0.00000000000E+00  0.00000000000E+00  0.74505805969E-08  0.10566000000E+00  0.10566000000E+00 0. -1.
     999900   -1    0    0    0    0 -0.00000000000E+00 -0.00000000000E+00 -0.74505805969E-08  0.93827000000E+00  0.93827000000E+00 0.  1.
     999902    2    1    2    0    0  0.19393360600E-01 -0.86537715099E-02  0.12285103691E-01  0.10193960649E+01  0.10191007915E+01 0.  0.
     999903    2    3    3    0    0  0.19632293757E-01  0.77948041781E-01  0.10116477266E+00  0.13068940540E+00  0.19598093798E-01 0.  0.
         14    1    1    2    0    0 -0.19393360600E-01  0.86537715099E-02 -0.12285103691E-01  0.24533935057E-01  0.00000000000E+00 0. -1.
     999901    1    3    3    0    0 -0.23893315764E-03 -0.86601813291E-01 -0.88879668973E-01  0.88870665954E+00  0.88000000000E+00 0.  1.
        -11    1    4    4    0    0  0.19162063499E-01  0.62869516049E-01  0.69764107714E-01  0.95849113568E-01  0.51100000000E-03 0. -1.
         11    1    4    4    0    0  0.47023025834E-03  0.15078525733E-01  0.31400664950E-01  0.34840291834E-01  0.51100000000E-03 0.  1.
</event>
<event>
 8    1  0.1123285E+005  0.1043930E+01  0.7957747E-01            NaN
         13   -1    0    0    0    0  0.00000000000E+00  0.00000000000E+00  0.74505805969E-08  0.10566000000E+00  0.10566000000E+00 0. -1.
     999900   -1    0    0    0    0 -0.00000000000E+00 -0.00000000000E+00 -0.74505805969E-08  0.93827000000E+00  0.93827000000E+00 0.  1.
     999902    2    1    2    0    0  0.18323937488E-02  0.20400565458E-01  0.11945439223E-01  0.10202185206E+01  0.10199429374E+01 0.  0.
     999903    2    3    3    0    0  0.37780755008E-01  0.35884122134E-01 -0.11727112167E+00  0.12992141017E+00  0.20297812008E-01 0.  0.
         14    1    1    2    0    0 -0.18323937488E-02 -0.20400565458E-01 -0.11945439223E-01  0.23711479416E-01  0.00000000000E+00 0.  1.
     999901    1    3    3    0    0 -0.35948361259E-01 -0.15483556676E-01  0.12921656089E+00  0.89029711042E+00  0.88000000000E+00 0. -1.
        -11    1    4    4    0    0  0.29260716741E-01  0.14132778685E-01 -0.65360606630E-01  0.72994486076E-01  0.51100000000E-03 0. -1.
         11    1    4    4    0    0  0.85200382669E-02  0.21751343449E-01 -0.51910515040E-01  0.56926924093E-01  0.51100000000E-03 0.  1.
</event>
<event>
 8    1  0.1123285E+005  0.1043930E+01  0.7957747E-01            NaN
         13   -1    0    0    0    0  0.00000000000E+00  0.00000000000E+00  0.74505805969E-08  0.10566000000E+00  0.10566000000E+00 0.  1.
     999900   -1    0    0    0    0 -0.00000000000E+00 -0.00000000000E+00 -0.74505805969E-08  0.93827000000E+00  0.93827000000E+00 0. -1.
     999902    2    1    2    0    0  0.30685597224E-02  0.18210210192E-01 -0.13714643655E-01  0.10209274074E+01  0.10206682380E+01 0.  0.
     999903    2    3    3    0    0  0.10753411287E+00  0.32832549969E-01 -0.67906579476E-01  0.13297266167E+00  0.20709018550E-01 0.  0.
         14    1    1    2    0    0 -0.30685597224E-02 -0.18210210192E-01  0.13714643655E-01  0.23002592563E-01  0.00000000000E+00 0. -1.
     999901    1    3    3    0    0 -0.10446555314E+00 -0.14622339777E-01  0.54191935821E-01  0.88795474576E+00  0.88000000000E+00 0. -1.
        -11    1    4    4    0    0  0.64699805833E-01  0.13254742434E-01 -0.30120909153E-01  0.72589829598E-01  0.51100000000E-03 0.  1.
         11    1    4    4    0    0  0.42834307034E-01  0.19577807535E-01 -0.37785670322E-01  0.60382832077E-01  0.51100000000E-03 0. -1.
</event>
<event>
 8    1  0.1123285E+005  0.1043930E+01  0.7957747E-01            NaN
         13   -1    0    0    0    0  0.00000000000E+00  0.00000000000E+00  0.74505805969E-08  0.10566000000E+00  0.10566000000E+00 0. -1.
     999900   -1    0    0    0    0 -0.00000000000E+00 -0.00000000000E+00 -0.74505805969E-08  0.93827000000E+00  0.93827000000E+00 0. -1.
     999902    2    1    2    0    0  0.21370010959E-01  0.45637171657E-02 -0.96661614580E-02  0.10200356584E+01  0.10197557575E+01 0.  0.
     999903    2    3    3    0    0  0.10174025799E+00  0.80163385178E-01  0.19944839802E-01  0.13265101925E+00  0.20524323488E-01 0.  0.
         14    1    1    2    0    0 -0.21370010959E-01 -0.45637171657E-02  0.96661614580E-02  0.23894341592E-01  0.00000000000E+00 0. -1.
     999901    1    3    3    0    0 -0.80370247034E-01 -0.75599668012E-01 -0.29611001260E-01  0.88738463915E+00  0.88000000000E+00 0.  1.
        -11    1    4    4    0    0  0.71114558291E-01  0.44638783664E-01  0.16877073453E-01  0.85644603667E-01  0.51100000000E-03 0.  1.
         11    1    4    4    0    0  0.30625699703E-01  0.35524601513E-01  0.30677663493E-02  0.47006415587E-01  0.51100000000E-03 0. -1.
</event>
<event>
 8    1  0.1123285E+005  0.1043930E+01  0.7957747E-01            NaN
         13   -1    0    0    0    0  0.00000000000E+00  0.00000000000E+00  0.74505805969E-08  0.10566000000E+00  0.10566000000E+00 0. -1.
     999900   -1    0    0    0    0 -0.00000000000E+00 -0.00000000000E+00 -0.74505805969E-08  0.93827000000E+00  0.93827000000E+00 0. -1.
     999902    2    1    2    0    0  0.16636195646E-01  0.25884773112E-02 -0.91765795505E-02  0.10247552032E+01  0.10245757920E+01 0.  0.
     999903    2    3    3    0    0 -0.78243965635E-01  0.10056395447E+00  0.33062712187E-01  0.13324771758E+00  0.20653915037E-01 0.  0.
         14    1    1    2    0    0 -0.16636195646E-01 -0.25884773112E-02  0.91765795505E-02  0.19174796807E-01  0.00000000000E+00 0.  1.
     999901    1    3    3    0    0  0.94880161281E-01 -0.97975477163E-01 -0.42239291737E-01  0.89150748561E+00  0.88000000000E+00 0.  1.
        -11    1    4    4    0    0 -0.37659327308E-01  0.58130031326E-01  0.92347862766E-02  0.69877520518E-01  0.51100000000E-03 0.  1.
         11    1    4    4    0    0 -0.40584638328E-01  0.42433923148E-01  0.23827925910E-01  0.63370197065E-01  0.51100000000E-03 0. -1.
</event>
<event>
 8    1  0.1123285E+005  0.1043930E+01  0.7957747E-01            NaN
         13   -1    0    0    0    0  0.00000000000E+00  0.00000000000E+00  0.74505805969E-08  0.10566000000E+00  0.10566000000E+00 0.  1.
     999900   -1    0    0    0    0 -0.00000000000E+00 -0.00000000000E+00 -0.74505805969E-08  0.93827000000E+00  0.93827000000E+00 0. -1.
     999902    2    1    2    0    0  0.11139099113E-01  0.23292131465E-01  0.44460469407E-02  0.10177313311E+01  0.10173940692E+01 0.  0.
     999903    2    3    3    0    0  0.96823841093E-02  0.11722034183E+00 -0.53735836875E-01  0.13082109761E+00  0.19805613200E-01 0.  0.
         14    1    1    2    0    0 -0.11139099113E-01 -0.23292131465E-01 -0.44460469407E-02  0.26198668872E-01  0.00000000000E+00 0.  1.
     999901    1    3    3    0    0  0.14567150042E-02 -0.93928210362E-01  0.58181883816E-01  0.88691023352E+00  0.88000000000E+00 0. -1.
        -11    1    4    4    0    0  0.15257672733E-01  0.65720412348E-01 -0.30038836086E-01  0.73855006403E-01  0.51100000000E-03 0.  1.
         11    1    4    4    0    0 -0.55752886238E-02  0.51499929480E-01 -0.23697000789E-01  0.56966091204E-01  0.51100000000E-03 0. -1.
</event>
<event>
 8    1  0.1123285E+005  0.1043930E+01  0.7957747E-01            NaN
         13   -1    0    0    0    0  0.00000000000E+00  0.00000000000E+00  0.74505805969E-08  0.10566000000E+00  0.10566000000E+00 0.  1.
     999900   -1    0    0    0    0 -0.00000000000E+00 -0.00000000000E+00 -0.74505805969E-08  0.93827000000E+00  0.93827000000E+00 0. -1.
     999902    2    1    2    0    0  0.10198065457E-01 -0.61988900993E-03  0.21135601410E-01  0.10204545139E+01  0.10201844522E+01 0.  0.
     999903    2    3    3    0    0 -0.59550447759E-01  0.39470350775E-02 -0.11121850781E+00  0.12781610886E+00  0.20138676492E-01 0.  0.
         14    1    1    2    0    0 -0.10198065457E-01  0.61988900993E-03 -0.21135601410E-01  0.23475486116E-01  0.00000000000E+00 0. -1.
     999901    1    3    3    0    0  0.69748513216E-01 -0.45669240874E-02  0.13235410922E+00  0.89263840502E+00  0.88000000000E+00 0.  1.
        -11    1    4    4    0    0 -0.41277351671E-01 -0.26713767186E-02 -0.89918712488E-01  0.98977734825E-01  0.51100000000E-03 0. -1.
         11    1    4    4    0    0 -0.18273096088E-01  0.66184117961E-02 -0.21299795323E-01  0.28838374038E-01  0.51100000000E-03 0.  1.
</event>
<event>
 8    1  0.1123285E+005  0.1043930E+01  0.7957747E-01            NaN
         13   -1    0    0    0    0  0.00000000000E+00  0.00000000000E+00  0.74505805969E-08  0.10566000000E+00  0.10566000000E+00 0. -1.
     999900   -1    0    0    0    0 -0.00000000000E+00 -0.00000000000E+00 -0.74505805969E-08  0.93827000000E+00  0.93827000000E+00 0.  1.
     999902    2    1    2    0    0  0.21875316367E-01  0.97398275652E-02  0.39498717992E-02  0.10196607768E+01  0.10193719167E+01 0.  0.
     999903    2    3    3    0    0 -0.10862663613E+00  0.23088017241E-01  0.60206340371E-01  0.12815995009E+00  0.21618667185E-01 0.  0.
         14    1    1    2    0    0 -0.21875316367E-01 -0.97398275652E-02 -0.39498717992E-02  0.24269223193E-01  0.00000000000E+00 0.  1.
     999901    1    3    3    0    0  0.13050195249E+00 -0.13348189675E-01 -0.56256468572E-01  0.89150082671E+00  0.88000000000E+00 0.  1.
        -11    1    4    4    0    0 -0.80811584458E-01  0.23928685250E-01  0.52441633248E-01  0.99264697547E-01  0.51100000000E-03 0.  1.
         11    1    4    4    0    0 -0.27815051670E-01 -0.84066800898E-03  0.77647071235E-02  0.28895252548E-01  0.51100000000E-03 0. -1.
</event>
<event>
 8    1  0.1123285E+005  0.1043930E+01  0.7957747E-01            NaN
         13   -1    0    0    0    0  0.00000000000E+00  0.00000000000E+00  0.74505805969E-08  0.10566000000E+00  0.10566000000E+00 0.  1.
     999900   -1    0    0    0    0 -0.00000000000E+00 -0.00000000000E+00 -0.74505805969E-08  0.93827000000E+00  0.93827000000E+00 0. -1.
     999902    2    1    2    0    0  0.12443970076E-01  0.18510195422E-01 -0.18825492824E-02  0.10215464409E+01  0.10213011834E+01 0.  0.
     999903    2    3    3    0    0  0.86506299885E-01  0.78104006963E-01  0.63610648608E-01  0.13400714035E+00  0.18111411434E-01 0.  0.
         14    1    1    2    0    0 -0.12443970076E-01 -0.18510195422E-01  0.18825492824E-02  0.22383559092E-01  0.00000000000E+00 0. -1.
     999901    1    3    3    0    0 -0.74062329809E-01 -0.59593811541E-01 -0.65493197891E-01  0.88753930056E+00  0.88000000000E+00 0. -1.
        -11    1    4    4    0    0  0.13408355064E-01  0.13134884855E-01  0.18309533883E-01  0.26226119379E-01  0.51100000000E-03 0. -1.
         11    1    4    4    0    0  0.73097944821E-01  0.64969122108E-01  0.45301114726E-01  0.10778102097E+00  0.51100000000E-03 0.  1.
</event>
<event>
 8    1  0.1123285E+005  0.1043930E+01  0.7957747E-01            NaN
         13   -1    0    0    0    0  0.00000000000E+00  0.00000000000E+00  0.74505805969E-08  0.10566000000E+00  0.10566000000E+00 0. -1.
     999900   -1    0    0    0    0 -0.00000000000E+00 -0.00000000000E+00 -0.74505805969E-08  0.93827000000E+00  0.93827000000E+00 0. -1.
     999902    2    1    2    0    0  0.22034056334E-01  0.73803120938E-02 -0.10335866603E-01  0.10184977609E+01  0.10181801856E+01 0.  0.
     999903    2    3    3    0    0  0.47724066020E-01  0.10891834862E-01 -0.12015312749E+00  0.13129308434E+00  0.20121665097E-01 0.  0.
         14    1    1    2    0    0 -0.22034056334E-01 -0.73803120938E-02  0.10335866603E-01  0.25432239059E-01  0.00000000000E+00 0. -1.
     999901    1    3    3    0    0 -0.25690009686E-01 -0.35115227681E-02  0.10981726089E+00  0.88720467660E+00  0.88000000000E+00 0.  1.
        -11    1    4    4    0    0  0.10091528923E-01 -0.41826976425E-02 -0.40023973631E-01  0.41491125578E-01  0.51100000000E-03 0.  1.
         11    1    4    4    0    0  0.37632537097E-01  0.15074532504E-01 -0.80129153860E-01  0.89801958764E-01  0.51100000000E-03 0. -1.
</event>
<event>
 8    1  0.1123285E+005  0.1043930E+01  0.7957747E-01            NaN
         13   -1    0    0    0    0  0.00000000000E+00  0.00000000000E+00  0.74505805969E-08  0.10566000000E+00  0.10566000000E+00 0.  1.
     999900   -1    0    0    0    0 -0.00000000000E+00 -0.00000000000E+00 -0.74505805969E-08  0.93827000000E+00  0.93827000000E+00 0. -1.
     999902    2    1    2    0    0  0.19443168662E-01  0.74903057655E-02 -0.87227615591E-02  0.10213417717E+01  0.10210919579E+01 0.  0.
     999903    2    3    3    0    0  0.67400280848E-01  0.80936656533E-01  0.78154387274E-01  0.13272380540E+00  0.20346008006E-01 0.  0.
         14    1    1    2    0    0 -0.19443168662E-01 -0.74903057655E-02  0.87227615591E-02  0.22588228291E-01  0.00000000000E+00 0. -1.
     999901    1    3    3    0    0 -0.47957112186E-01 -0.73446350767E-01 -0.86877148833E-01  0.88861796630E+00  0.88000000000E+00 0. -1.
        -11    1    4    4    0    0  0.34482600966E-01  0.55493589940E-01  0.42629214038E-01  0.78013455919E-01  0.51100000000E-03 0. -1.
         11    1    4    4    0    0  0.32917679882E-01  0.25443066592E-01  0.35525173236E-01  0.54710349486E-01  0.51100000000E-03 0.  1.
</event>
<event>
 8    1  0.1123285E+005  0.1043930E+01  0.7957747E-01            NaN
         13   -1    0    0    0    0  0.00000000000E+00  0.00000000000E+00  0.74505805969E-08  0.10566000000E+00  0.10566000000E+00 0. -1.
     999900   -1    0    0    0    0 -0.00000000000E+00 -0.00000000000E+00 -0.74505805969E-08  0.93827000000E+00  0.93827000000E+00 0.  1.
     999902    2    1    2    0    0 -0.86112359305E-02 -0.32546759700E-03  0.20863561603E-01  0.10213568408E+01  0.10211073640E+01 0.  0.
     999903    2    3    3    0    0  0.11567194483E+00  0.54339880305E-01  0.20855731735E-01  0.13094423457E+00  0.19457893196E-01 0.  0.
         14    1    1    2    0    0  0.86112359305E-02  0.32546759700E-03 -0.20863561603E-01  0.22573159198E-01  0.00000000000E+00 0.  1.
     999901    1    3    3    0    0 -0.12428318076E+00 -0.54665347902E-01  0.78298677253E-05  0.89041260624E+00  0.88000000000E+00 0.  1.
        -11    1    4    4    0    0  0.10217491153E+00  0.48506893498E-01  0.11922994755E-01  0.11373236209E+00  0.51100000000E-03 0.  1.
         11    1    4    4    0    0  0.13497033304E-01  0.58329868063E-02  0.89327369801E-02  0.17211872474E-01  0.51100000000E-03 0. -1.
</event>
<event>
 8    1  0.1123285E+005  0.1043930E+01  0.7957747E-01            NaN
         13   -1    0    0    0    0  0.00000000000E+00  0.00000000000E+00  0.74505805969E-08  0.10566000000E+00  0.10566000000E+00 0. -1.
     999900   -1    0    0    0    0 -0.00000000000E+00 -0.00000000000E+00 -0.74505805969E-08  0.93827000000E+00  0.93827000000E+00 0.  1.
     999902    2    1    2    0    0 -0.13067594556E-01  0.17599028484E-01 -0.78995138585E-02  0.10206299968E+01  0.10203640038E+01 0.  0.
     999903    2    3    3    0    0  0.87380587564E-01  0.92628993850E-01 -0.25966111419E-01  0.13155984491E+00  0.20451314516E-01 0.  0.
         14    1    1    2    0    0  0.13067594556E-01 -0.17599028484E-01  0.78995138585E-02  0.23300003224E-01  0.00000000000E+00 0.  1.
     999901    1    3    3    0    0 -0.10044818212E+00 -0.75029965366E-01  0.18066597560E-01  0.88907015187E+00  0.88000000000E+00 0.  1.
        -11    1    4    4    0    0  0.24071266397E-01  0.35499288871E-01 -0.15657232318E-01  0.45662188089E-01  0.51100000000E-03 0. -1.
         11    1    4    4    0    0  0.63309321167E-01  0.57129704979E-01 -0.10308879101E-01  0.85897656819E-01  0.51100000000E-03 0.  1.
</event>
<event>
 8    1  0.1123285E+005  0.1043930E+01  0.7957747E-01            NaN
         13   -1    0    0    0    0  0.00000000000E+00  0.00000000000E+00  0.74505805969E-08  0.10566000000E+00  0.10566000000E+00 0. -1.
     999900   -1    0    0    0    0 -0.00000000000E+00 -0.00000000000E+00 -0.74505805969E-08  0.93827000000E+00  0.93827000000E+00 0. -1.
     999902    2    1    2    0    0 -0.17916867467E-01 -0.14307189484E-01 -0.14313214379E-01  0.10169007951E+01  0.10165415138E+01 0.  0.
     999903    2    3    3    0    0  0.48965615627E-01  0.10932098481E+00  0.28536701108E-01  0.12471622493E+00  0.19775849349E-01 0.  0.
         14    1    1    2    0    0  0.17916867467E-01  0.14307189484E-01  0.14313214379E-01  0.27029204883E-01  0.00000000000E+00 0. -1.
     999901    1    3    3    0    0 -0.66882483094E-01 -0.12362817429E+00 -0.42849915486E-01  0.89218457019E+00  0.88000000000E+00 0. -1.
        -11    1    4    4    0    0  0.39838459960E-01  0.66127092451E-01  0.16347188569E-01  0.78913794377E-01  0.51100000000E-03 0.  1.
         11    1    4    4    0    0  0.91271556669E-02  0.43193892357E-01  0.12189512539E-01  0.45802430552E-01  0.51100000000E-03 0. -1.
</event>
<event>
 8    1  0.1123285E+005  0.1043930E+01  0.7957747E-01            NaN
         13   -1    0    0    0    0  0.00000000000E+00  0.00000000000E+00  0.74505805969E-08  0.10566000000E+00  0.10566000000E+00 0.  1.
     999900   -1    0    0    0    0 -0.00000000000E+00 -0.00000000000E+00 -0.74505805969E-08  0.93827000000E+00  0.93827000000E+00 0. -1.
     999902    2    1    2    0    0 -0.50992397955E-02 -0.22543490477E-01  0.13166037510E-01  0.10173300798E+01  0.10169822691E+01 0.  0.
     999903    2    3    3    0    0  0.92187836087E-01 -0.61076124336E-01  0.64599610793E-01  0.12963928261E+00  0.20108301638E-01 0.  0.
         14    1    1    2    0    0  0.50992397955E-02  0.22543490477E-01 -0.13166037510E-01  0.26599920171E-01  0.00000000000E+00 0. -1.
     999901    1    3    3    0    0 -0.97287075883E-01  0.38532633859E-01 -0.51433573283E-01  0.88769079722E+00  0.88000000000E+00 0. -1.
        -11    1    4    4    0    0  0.55637349091E-01 -0.35167191922E-01  0.49503645306E-01  0.82359686869E-01  0.51100000000E-03 0. -1.
         11    1    4    4    0    0  0.36550486996E-01 -0.25908932414E-01  0.15095965487E-01  0.47279595741E-01  0.51100000000E-03 0.  1.
</event>
<event>
 8    1  0.1123285E+005  0.1043930E+01  0.7957747E-01            NaN
         13   -1    0    0    0    0  0.00000000000E+00  0.00000000000E+00  0.74505805969E-08  0.10566000000E+00  0.10566000000E+00 0.  1.
     999900   -1    0    0    0    0 -0.00000000000E+00 -0.00000000000E+00 -0.74505805969E-08  0.93827000000E+00  0.93827000000E+00 0.  1.
     999902    2    1    2    0    0  0.17785906588E-01  0.81482041346E-02  0.13173506609E-01  0.10203445600E+01  0.10200719328E+01 0.  0.
     999903    2    3    3    0    0 -0.46798227700E-01  0.11968679886E+00 -0.27763738098E-02  0.13081301632E+00  0.24276182739E-01 0.  0.
         14    1    1    2    0    0 -0.17785906588E-01 -0.81482041346E-02 -0.13173506609E-01  0.23585440004E-01  0.00000000000E+00 0.  1.
     999901    1    3    3    0    0  0.64584134288E-01 -0.11153859473E+00  0.15949880419E-01  0.88953154368E+00  0.88000000000E+00 0. -1.
        -11    1    4    4    0    0 -0.42850452719E-01  0.79596672905E-01  0.40516607956E-03  0.90400314802E-01  0.51100000000E-03 0.  1.
         11    1    4    4    0    0 -0.39477749814E-02  0.40090125959E-01 -0.31815398893E-02  0.40412701515E-01  0.51100000000E-03 0. -1.
</event>
<event>
 8    1  0.1123285E+005  0.1043930E+01  0.7957747E-01            NaN
         13   -1    0    0    0    0  0.00000000000E+00  0.00000000000E+00  0.74505805969E-08  0.10566000000E+00  0.10566000000E+00 0.  1.
     999900   -1    0    0    0    0 -0.00000000000E+00 -0.00000000000E+00 -0.74505805969E-08  0.93827000000E+00  0.93827000000E+00 0.  1.
     999902    2    1    2    0    0  0.39644737918E-02  0.23265444290E-01 -0.97779556298E-03  0.10203089493E+01  0.10200354886E+01 0.  0.
     999903    2    3    3    0    0 -0.11701542026E+00  0.50005647975E-01  0.24910200341E-01  0.13125250479E+00  0.20335400767E-01 0.  0.
         14    1    1    2    0    0 -0.39644737918E-02 -0.23265444290E-01  0.97779556298E-03  0.23621050667E-01  0.00000000000E+00 0.  1.
     999901    1    3    3    0    0  0.12097989405E+00 -0.26740203685E-01 -0.25887995904E-01  0.88905644455E+00  0.88000000000E+00 0.  1.
        -11    1    4    4    0    0 -0.35734595821E-01  0.53998353883E-02  0.75433749565E-02  0.36922664956E-01  0.51100000000E-03 0. -1.
         11    1    4    4    0    0 -0.81280824436E-01  0.44605812587E-01  0.17366825385E-01  0.94329839831E-01  0.51100000000E-03 0.  1.
</event>
<event>
 8    1  0.1123285E+005  0.1043930E+01  0.7957747E-01            NaN
         13   -1    0    0    0    0  0.00000000000E+00  0.00000000000E+00  0.74505805969E-08  0.10566000000E+00  0.10566000000E+00 0.  1.
     999900   -1    0    0    0    0 -0.00000000000E+00 -0.00000000000E+00 -0.74505805969E-08  0.93827000000E+00  0.93827000000E+00 0.  1.
     999902    2    1    2    0    0  0.44359960367E-02  0.22696083835E-01 -0.64425492852E-02  0.10199238191E+01  0.10196412604E+01 0.  0.
     999903    2    3    3    0    0 -0.98501072490E-01  0.72669306072E-01 -0.44161452057E-01  0.13171434002E+00  0.20375087557E-01 0.  0.
         14    1    1    2    0    0 -0.44359960367E-02 -0.22696083835E-01  0.64425492852E-02  0.24006180945E-01  0.00000000000E+00 0.  1.
     999901    1    3    3    0    0  0.10293706853E+00 -0.49973222237E-01  0.37718902772E-01  0.88820947903E+00  0.88000000000E+00 0. -1.
        -11    1    4    4    0    0 -0.81375291507E-01  0.49422369356E-01 -0.33513491421E-01  0.10093524602E+00  0.51100000000E-03 0.  1.
         11    1    4    4    0    0 -0.17125780983E-01  0.23246936716E-01 -0.10647960636E-01  0.30779094003E-01  0.51100000000E-03 0. -1.
</event>
<event>
 8    1  0.1123285E+005  0.1043930E+01  0.7957747E-01            NaN
         13   -1    0    0    0    0  0.00000000000E+00  0.00000000000E+00  0.74505805969E-08  0.10566000000E+00  0.10566000000E+00 0.  1.
     999900   -1    0    0    0    0 -0.00000000000E+00 -0.00000000000E+00 -0.74505805969E-08  0.93827000000E+00  0.93827000000E+00 0.  1.
     999902    2    1    2    0    0 -0.60294602408E-02 -0.26554600328E-01 -0.11608009290E-01  0.10143285293E+01  0.10138965027E+01 0.  0.
     999903    2    3    3    0    0  0.95835817251E-01 -0.26782626057E-01  0.71131186723E-01  0.12459690608E+00  0.23726153371E-01 0.  0.
         14    1    1    2    0    0  0.60294602408E-02  0.26554600328E-01  0.11608009290E-01  0.29601470724E-01  0.00000000000E+00 0.  1.
     999901    1    3    3    0    0 -0.10186527749E+00  0.22802572850E-03 -0.82739196013E-01  0.88973162319E+00  0.88000000000E+00 0.  1.
        -11    1    4    4    0    0  0.36517734210E-01 -0.18072562248E-01  0.39747181336E-01  0.56923298949E-01  0.51100000000E-03 0.  1.
         11    1    4    4    0    0  0.59318083041E-01 -0.87100638082E-02  0.31384005387E-01  0.67673607133E-01  0.51100000000E-03 0. -1.
</event>
<event>
 8    1  0.1123285E+005  0.1043930E+01  0.7957747E-01            NaN
         13   -1    0    0    0    0  0.00000000000E+00  0.00000000000E+00  0.74505805969E-08  0.10566000000E+00  0.10566000000E+00 0.  1.
     999900   -1    0    0    0    0 -0.00000000000E+00 -0.00000000000E+00 -0.74505805969E-08  0.93827000000E+00  0.93827000000E+00 0. -1.
     999902    2    1    2    0    0  0.14836284777E-01 -0.18305111005E-01 -0.43133617542E-02  0.10199759289E+01  0.10196946101E+01 0.  0.
     999903    2    3    3    0    0 -0.61641783577E-01 -0.23400841166E-02 -0.11233946497E+00  0.12993468487E+00  0.21393491177E-01 0.  0.
         14    1    1    2    0    0 -0.14836284777E-01  0.18305111005E-01  0.43133617542E-02  0.23954071147E-01  0.00000000000E+00 0.  1.
     999901    1    3    3    0    0  0.76478068354E-01 -0.15965026888E-01  0.10802610322E+00  0.89004124399E+00  0.88000000000E+00 0.  1.
        -11    1    4    4    0    0 -0.45941737033E-01  0.18548478657E-02 -0.98018773569E-01  0.10826829986E+00  0.51100000000E-03 0.  1.
         11    1    4    4    0    0 -0.15700046545E-01 -0.41949319823E-02 -0.14320691402E-01  0.21666385003E-01  0.51100000000E-03 0. -1.
</event>
<event>
 8    1  0.1123285E+005  0.1043930E+01  0.7957747E-01            NaN
         13   -1    0    0    0    0  0.00000000000E+00  0.00000000000E+00  0.74505805969E-08  0.10566000000E+00  0.10566000000E+00 0.  1.
     999900   -1    0    0    0    0 -0.00000000000E+00 -0.00000000000E+00 -0.74505805969E-08  0.93827000000E+00  0.93827000000E+00 0. -1.
     999902    2    1    2    0    0 -0.19195324820E-02 -0.11829898524E-01  0.21089220092E-01  0.10196733245E+01  0.10193847666E+01 0.  0.
     999903    2    3    3    0    0  0.10662885064E+00 -0.55468959124E-01  0.49275945031E-01  0.13148324877E+00  0.20327536363E-01 0.  0.
         14    1    1    2    0    0  0.19195324820E-02  0.11829898524E-01 -0.21089220092E-01  0.24256675537E-01  0.00000000000E+00 0. -1.
     999901    1    3    3    0    0 -0.10854838312E+00  0.43639060600E-01 -0.28186724939E-01  0.88819007569E+00  0.88000000000E+00 0.  1.
        -11    1    4    4    0    0  0.32167093344E-01 -0.26502910052E-01  0.21450991321E-01  0.46877844288E-01  0.51100000000E-03 0.  1.
         11    1    4    4    0    0  0.74461757296E-01 -0.28966049072E-01  0.27824953710E-01  0.84605404486E-01  0.51100000000E-03 0. -1.
</event>
<event>
 8    1  0.1123285E+005  0.1043930E+01  0.7957747E-01            NaN
         13   -1    0    0    0    0  0.00000000000E+00  0.00000000000E+00  0.74505805969E-08  0.10566000000E+00  0.10566000000E+00 0.  1.
     999900   -1    0    0    0    0 -0.00000000000E+00 -0.00000000000E+00 -0.74505805969E-08  0.93827000000E+00  0.93827000000E+00 0. -1.
     999902    2    1    2    0    0  0.23114524988E-01  0.52802047024E-03  0.63948340422E-02  0.10199413782E+01  0.10196592377E+01 0.  0.
     999903    2    3    3    0    0 -0.64459734330E-01  0.76944821242E-01 -0.77483191009E-01  0.12834488800E+00  0.19829334871E-01 0.  0.
         14    1    1    2    0    0 -0.23114524988E-01 -0.52802047024E-03 -0.63948340422E-02  0.23988621750E-01  0.00000000000E+00 0.  1.
     999901    1    3    3    0    0  0.87574259318E-01 -0.76416800772E-01  0.83878025051E-01  0.89159649025E+00  0.88000000000E+00 0.  1.
        -11    1    4    4    0    0 -0.50403542400E-01  0.46682356085E-01 -0.56236860196E-01  0.88784035850E-01  0.51100000000E-03 0.  1.
         11    1    4    4    0    0 -0.14056191930E-01  0.30262465158E-01 -0.21246330813E-01  0.39560852152E-01  0.51100000000E-03 0. -1.
</event>
<event>
 8    1  0.1123285E+005  0.1043930E+01  0.7957747E-01            NaN
         13   -1    0    0    0    0  0.00000000000E+00  0.00000000000E+00  0.74505805969E-08  0.10566000000E+00  0.10566000000E+00 0.  1.
     999900   -1    0    0    0    0 -0.00000000000E+00 -0.00000000000E+00 -0.74505805969E-08  0.93827000000E+00  0.93827000000E+00 0.  1.
     999902    2    1    2    0    0  0.22136206688E-01  0.13963485767E-01 -0.34070087953E-03  0.10177554578E+01  0.10174188249E+01 0.  0.
     999903    2    3    3    0    0  0.19818982428E-01  0.37266779087E-01 -0.12056846486E+00  0.12927184613E+00  0.19820458996E-01 0.  0.
         14    1    1    2    0    0 -0.22136206688E-01 -0.13963485767E-01  0.34070087953E-03  0.26174542181E-01  0.00000000000E+00 0. -1.
     999901    1    3    3    0    0  0.23172242601E-02 -0.23303293320E-01  0.12022776398E+00  0.88848361169E+00  0.88000000000E+00 0. -1.
        -11    1    4    4    0    0  0.22238299700E-01  0.23309391442E-01 -0.89487198834E-01  0.95110933016E-01  0.51100000000E-03 0.  1.
         11    1    4    4    0    0 -0.24193172723E-02  0.13957387645E-01 -0.31081266028E-01  0.34160913114E-01  0.51100000000E-03 0. -1.
</event>
<event>
 8    1  0.1123285E+005  0.1043930E+01  0.7957747E-01            NaN
         13   -1    0    0    0    0  0.00000000000E+00  0.00000000000E+00  0.74505805969E-08  0.10566000000E+00  0.10566000000E+00 0. -1.
     999900   -1    0    0    0    0 -0.00000000000E+00 -0.00000000000E+00 -0.74505805969E-08  0.93827000000E+00  0.93827000000E+00 0. -1.
     999902    2    1    2    0    0  0.10505688657E-02  0.17671978983E-01 -0.16392453893E-01  0.10198029388E+01  0.10195174932E+01 0.  0.
     999903    2    3    3    0    0  0.10419694262E+00  0.72753428477E-01  0.25171815095E-01  0.13109560289E+00  0.20059227689E-01 0.  0.
         14    1    1    2    0    0 -0.10505688657E-02 -0.17671978983E-01  0.16392453893E-01  0.24127061171E-01  0.00000000000E+00 0.  1.
     999901    1    3    3    0    0 -0.10314637375E+00 -0.55081449495E-01 -0.41564268988E-01  0.88870733594E+00  0.88000000000E+00 0. -1.
        -11    1    4    4    0    0  0.30436534332E-01  0.17641388867E-01  0.15717343445E-01  0.38534364264E-01  0.51100000000E-03 0. -1.
         11    1    4    4    0    0  0.73760408287E-01  0.55112039610E-01  0.94544716501E-02  0.92561238625E-01  0.51100000000E-03 0.  1.
</event>
<event>
 8    1  0.1123285E+005  0.1043930E+01  0.7957747E-01            NaN
         13   -1    0    0    0    0  0.00000000000E+00  0.00000000000E+00  0.74505805969E-08  0.10566000000E+00  0.10566000000E+00 0. -1.
     999900   -1    0    0    0    0 -0.00000000000E+00 -0.00000000000E+00 -0.74505805969E-08  0.93827000000E+00  0.93827000000E+00 0.  1.
     999902    2    1    2    0    0 -0.12653212191E-01  0.10250022138E-02  0.19428270227E-01  0.10207219822E+01  0.10204581093E+01 0.  0.
     999903    2    3    3    0    0  0.45209146523E-01  0.93465418080E-01  0.78817632294E-01  0.13200359067E+00  0.20810513749E-01 0.  0.
         14    1    1    2    0    0  0.12653212191E-01 -0.10250022138E-02 -0.19428270227E-01  0.23208017845E-01  0.00000000000E+00 0.  1.
     999901    1    3    3    0    0 -0.57862358715E-01 -0.92440415866E-01 -0.59389362067E-01  0.88871839149E+00  0.88000000000E+00 0.  1.
        -11    1    4    4    0    0  0.16555800037E-01  0.41451009869E-01  0.46231147268E-01  0.64263993284E-01  0.51100000000E-03 0. -1.
         11    1    4    4    0    0  0.28653346486E-01  0.52014408211E-01  0.32586485025E-01  0.67739597384E-01  0.51100000000E-03 0.  1.
</event>
<event>
 8    1  0.1123285E+005  0.1043930E+01  0.7957747E-01            NaN
         13   -1    0    0    0    0  0.00000000000E+00  0.00000000000E+00  0.74505805969E-08  0.10566000000E+00  0.10566000000E+00 0.  1.
     999900   -1    0    0    0    0 -0.00000000000E+00 -0.00000000000E+00 -0.74505805969E-08  0.93827000000E+00  0.93827000000E+00 0.  1.
     999902    2    1    2    0    0  0.11446017158E-01 -0.20366652463E-01  0.22825019051E-01  0.10112681976E+01  0.10107406068E+01 0.  0.
     999903    2    3    3    0    0  0.11889317478E+00 -0.27947491854E-01 -0.83549388481E-02  0.12415233674E+00  0.20672406875E-01 0.  0.
         14    1    1    2    0    0 -0.11446017158E-01  0.20366652463E-01 -0.22825019051E-01  0.32661802400E-01  0.00000000000E+00 0. -1.
     999901    1    3    3    0    0 -0.10744715762E+00  0.75808393907E-02  0.31179957899E-01  0.88711586086E+00  0.88000000000E+00 0.  1.
        -11    1    4    4    0    0  0.10394174991E+00 -0.29585217628E-01 -0.11799411341E-01  0.10871365924E+00  0.51100000000E-03 0.  1.
         11    1    4    4    0    0  0.14951424874E-01  0.16377257734E-02  0.34444724930E-02  0.15438677509E-01  0.51100000000E-03 0. -1.
</event>
<event>
 8    1  0.1123285E+005  0.1043930E+01  0.7957747E-01            NaN
         13   -1    0    0    0    0  0.00000000000E+00  0.00000000000E+00  0.74505805969E-08  0.10566000000E+00  0.10566000000E+00 0. -1.
     999900   -1    0    0    0    0 -0.00000000000E+00 -0.00000000000E+00 -0.74505805969E-08  0.93827000000E+00  0.93827000000E+00 0.  1.
     999902    2    1    2    0    0 -0.22015679173E-01 -0.62313331922E-02 -0.45400273816E-02  0.10206033738E+01  0.10203367655E+01 0.  0.
     999903    2    3    3    0    0  0.95210788447E-01 -0.23954265940E-01 -0.81808518294E-01  0.12929727217E+00  0.19653239726E-01 0.  0.
         14    1    1    2    0    0  0.22015679173E-01  0.62313331922E-02  0.45400273816E-02  0.23326626233E-01  0.00000000000E+00 0. -1.
     999901    1    3    3    0    0 -0.11722646762E+00  0.17722932748E-01  0.77268490913E-01  0.89130610160E+00  0.88000000000E+00 0. -1.
        -11    1    4    4    0    0  0.52978716983E-01 -0.20635190174E-01 -0.38202484070E-01  0.68499973991E-01  0.51100000000E-03 0.  1.
         11    1    4    4    0    0  0.42232071464E-01 -0.33190757656E-02 -0.43606034224E-01  0.60797298179E-01  0.51100000000E-03 0. -1.
</event>
<event>
 8    1  0.1123285E+005  0.1043930E+01  0.7957747E-01            NaN
         13   -1    0    0    0    0  0.00000000000E+00  0.00000000000E+00  0.74505805969E-08  0.10566000000E+00  0.10566000000E+00 0. -1.
     999900   -1    0    0    0    0 -0.00000000000E+00 -0.00000000000E+00 -0.74505805969E-08  0.93827000000E+00  0.93827000000E+00 0.  1.
     999902    2    1    2    0    0 -0.40951187700E-02 -0.26883250442E-03  0.23274108592E-01  0.10202968369E+01  0.10200230924E+01 0.  0.
     999903    2    3    3    0    0  0.11365022319E+00 -0.13194002215E-01 -0.55819339573E-01  0.12884476351E+00  0.19867548594E-01 0.  0.
         14    1    1    2    0    0  0.40951187700E-02  0.26883250442E-03 -0.23274108592E-01  0.23633163127E-01  0.00000000000E+00 0.  1.
     999901    1    3    3    0    0 -0.11774534196E+00  0.12925169711E-01  0.79093448164E-01  0.89145207337E+00  0.88000000000E+00 0. -1.
        -11    1    4    4    0    0  0.57790741240E-01 -0.85624726500E-02 -0.39284957411E-01  0.70403513483E-01  0.51100000000E-03 0. -1.
         11    1    4    4    0    0  0.55859481951E-01 -0.46315295652E-02 -0.16534382161E-01  0.58441250024E-01  0.51100000000E-03 0.  1.
</event>
<event>
 8    1  0.1123285E+005  0.1043930E+01  0.7957747E-01            NaN
         13   -1    0    0    0    0  0.00000000000E+00  0.00000000000E+00  0.74505805969E-08  0.10566000000E+00  0.10566000000E+00 0.  1.
     999900   -1    0    0    0    0 -0.00000000000E+00 -0.00000000000E+00 -0.74505805969E-08  0.93827000000E+00  0.93827000000E+00 0.  1.
     999902    2    1    2    0    0 -0.62911319178E-02 -0.23494196106E-01  0.99909044309E-03  0.10195875726E+01  0.10192969461E+01 0.  0.
     999903    2    3    3    0    0 -0.34515323804E-01  0.11793272187E+00 -0.25928617399E-01  0.12744224832E+00  0.21674846989E-01 0.  0.
         14    1    1    2    0    0  0.62911319178E-02  0.23494196106E-01 -0.99909044309E-03  0.24342427430E-01  0.00000000000E+00 0. -1.
     999901    1    3    3    0    0  0.28224191886E-01 -0.14142691797E+00  0.26927707842E-01  0.89214532425E+00  0.88000000000E+00 0.  1.
        -11    1    4    4    0    0 -0.32027430153E-01  0.85973437856E-01 -0.12153563562E-01  0.92548141674E-01  0.51100000000E-03 0.  1.
         11    1    4    4    0    0 -0.24878936505E-02  0.31959284011E-01 -0.13775053838E-01  0.34894106645E-01  0.51100000000E-03 0. -1.
</event>
<event>
 8    1  0.1123285E+005  0.1043930E+01  0.7957747E-01            NaN
         13   -1    0    0    0    0  0.00000000000E+00  0.00000000000E+00  0.74505805969E-08  0.10566000000E+00  0.10566000000E+00 0.  1.
     999900   -1    0    0    0    0 -0.00000000000E+00 -0.00000000000E+00 -0.74505805969E-08  0.93827000000E+00  0.93827000000E+00 0.  1.
     999902    2    1    2    0    0 -0.13956746677E-02  0.24639013941E-01  0.22605716545E-02  0.10191481700E+01  0.10188468252E+01 0.  0.
     999903    2    3    3    0    0  0.33873790303E-01 -0.29706556848E-01  0.11925994142E+00  0.12904355322E+00  0.19984789500E-01 0.  0.
         14    1    1    2    0    0  0.13956746677E-02 -0.24639013941E-01 -0.22605716545E-02  0.24781830037E-01  0.00000000000E+00 0. -1.
     999901    1    3    3    0    0 -0.35269464971E-01  0.54345570789E-01 -0.11699936976E+00  0.89010461674E+00  0.88000000000E+00 0.  1.
        -11    1    4    4    0    0  0.11822788445E-01 -0.71664403051E-02  0.16391215460E-01  0.21449225126E-01  0.51100000000E-03 0.  1.
         11    1    4    4    0    0  0.22051001858E-01 -0.22540116542E-01  0.10286872596E+00  0.10759432809E+00  0.51100000000E-03 0. -1.
</event>
<event>
 8    1  0.1123285E+005  0.1043930E+01  0.7957747E-01            NaN
         13   -1    0    0    0    0  0.00000000000E+00  0.00000000000E+00  0.74505805969E-08  0.10566000000E+00  0.10566000000E+00 0.  1.
     999900   -1    0    0    0    0 -0.00000000000E+00 -0.00000000000E+00 -0.74505805969E-08  0.93827000000E+00  0.93827000000E+00 0.  1.
     999902    2    1    2    0    0  0.16663580896E-01  0.16818020253E-01 -0.35382713650E-02  0.10199917441E+01  0.10197108011E+01 0.  0.
     999903    2    3    3    0    0 -0.21002336631E-01  0.70191397799E-02 -0.12708503101E+00  0.13050956817E+00  0.19793327374E-01 0.  0.
         14    1    1    2    0    0 -0.16663580896E-01 -0.16818020253E-01  0.35382713650E-02  0.23938255947E-01  0.00000000000E+00 0.  1.
     999901    1    3    3    0    0  0.37665917528E-01  0.97988804735E-02  0.12354675965E+00  0.88948217589E+00  0.88000000000E+00 0. -1.
        -11    1    4    4    0    0  0.32380510626E-02 -0.62678891752E-03 -0.68957918328E-02  0.76609989578E-02  0.51100000000E-03 0. -1.
         11    1    4    4    0    0 -0.24240387694E-01  0.76459286974E-02 -0.12018923918E+00  0.12284856921E+00  0.51100000000E-03 0.  1.
</event>
<event>
 8    1  0.1123285E+005  0.1043930E+01  0.7957747E-01            NaN
         13   -1    0    0    0    0  0.00000000000E+00  0.00000000000E+00  0.74505805969E-08  0.10566000000E+00  0.10566000000E+00 0. -1.
     999900   -1    0    0    0    0 -0.00000000000E+00 -0.00000000000E+00 -0.74505805969E-08  0.93827000000E+00  0.93827000000E+00 0.  1.
     999902    2    1    2    0    0 -0.16275861462E-01 -0.90092697097E-02 -0.15766610142E-01  0.10195444181E+01  0.10192527478E+01 0.  0.
     999903    2    3    3    0    0 -0.11300077377E+00  0.17867802100E-01  0.59822799954E-01  0.13061706196E+00  0.19839764529E-01 0.  0.
         14    1    1    2    0    0  0.16275861462E-01  0.90092697097E-02  0.15766610142E-01  0.24385581854E-01  0.00000000000E+00 0. -1.
     999901    1    3    3    0    0  0.96724912311E-01 -0.26877071809E-01 -0.75589410096E-01  0.88892735618E+00  0.88000000000E+00 0.  1.
        -11    1    4    4    0    0 -0.85639697491E-01  0.22035770333E-01  0.45500912409E-01  0.99450123738E-01  0.51100000000E-03 0.  1.
         11    1    4    4    0    0 -0.27361076282E-01 -0.41679682332E-02  0.14321887545E-01  0.31166938225E-01  0.51100000000E-03 0. -1.
</event>
<event>
 8    1  0.1123285E+005  0.1043930E+01  0.7957747E-01            NaN
         13   -1    0    0    0    0  0.00000000000E+00  0.00000000000E+00  0.74505805969E-08  0.10566000000E+00  0.10566000000E+00 0.  1.
     999900   -1    0    0    0    0 -0.00000000000E+00 -0.00000000000E+00 -0.74505805969E-08  0.93827000000E+00  0.93827000000E+00 0.  1.
     999902    2    1    2    0    0  0.11253492417E-01 -0.64434618037E-02 -0.19897852455E-01  0.10201795511E+01  0.10199030506E+01 0.  0.
     999903    2    3    3    0    0  0.10921187249E+00  0.18891447072E-01 -0.70616389605E-01  0.13293095466E+00  0.19996108628E-01 0.  0.
         14    1    1    2    0    0 -0.11253492417E-01  0.64434618037E-02  0.19897852455E-01  0.23750448920E-01  0.00000000000E+00 0.  1.
     999901    1    3    3    0    0 -0.97958380077E-01 -0.25334908875E-01  0.50718537151E-01  0.88724859642E+00  0.88000000000E+00 0. -1.
        -11    1    4    4    0    0  0.96998526426E-01  0.22863583498E-01 -0.64382353613E-01  0.11864571698E+00  0.51100000000E-03 0. -1.
         11    1    4    4    0    0  0.12213346068E-01 -0.39721364260E-02 -0.62340359924E-02  0.14285237685E-01  0.51100000000E-03 0.  1.
</event>
<event>
 8    1  0.1123285E+005  0.1043930E+01  0.7957747E-01            NaN
         13   -1    0    0    0    0  0.00000000000E+00  0.00000000000E+00  0.74505805969E-08  0.10566000000E+00  0.10566000000E+00 0.  1.
     999900   -1    0    0    0    0 -0.00000000000E+00 -0.00000000000E+00 -0.74505805969E-08  0.93827000000E+00  0.93827000000E+00 0. -1.
     999902    2    1    2    0    0 -0.20395755212E-01  0.10432217862E-01  0.80132357141E-02  0.10196600608E+01  0.10193711835E+01 0.  0.
     999903    2    3    3    0    0 -0.34577153512E-01 -0.82523407058E-01 -0.90368319302E-01  0.12919906190E+00  0.22809476229E-01 0.  0.
         14    1    1    2    0    0  0.20395755212E-01 -0.10432217862E-01 -0.80132357141E-02  0.24269939159E-01  0.00000000000E+00 0.  1.
     999901    1    3    3    0    0  0.14181398301E-01  0.92955624920E-01  0.98381555016E-01  0.89046099894E+00  0.88000000000E+00 0.  1.
        -11    1    4    4    0    0 -0.14469680664E-01 -0.11429216394E-01 -0.18609225712E-01  0.26202348149E-01  0.51100000000E-03 0. -1.
         11    1    4    4    0    0 -0.20107472848E-01 -0.71094190664E-01 -0.71759093590E-01  0.10299671375E+00  0.51100000000E-03 0.  1.
</event>
<event>
 8    1  0.1123285E+005  0.1043930E+01  0.7957747E-01            NaN
         13   -1    0    0    0    0  0.00000000000E+00  0.00000000000E+00  0.74505805969E-08  0.10566000000E+00  0.10566000000E+00 0. -1.
     999900   -1    0    0    0    0 -0.00000000000E+00 -0.00000000000E+00 -0.74505805969E-08  0.93827000000E+00  0.93827000000E+00 0.  1.
     999902    2    1    2    0    0  0.18385366124E-01 -0.14098278789E-02  0.16172746009E-01  0.10194031369E+01  0.10191080357E+01 0.  0.
     999903    2    3    3    0    0  0.52408037497E-01  0.42215212289E-02  0.12024626071E+00  0.13259957872E+00  0.18948916210E-01 0.  0.
         14    1    1    2    0    0 -0.18385366124E-01  0.14098278789E-02 -0.16172746009E-01  0.24526863143E-01  0.00000000000E+00 0.  1.
     999901    1    3    3    0    0 -0.34022671374E-01 -0.56313491078E-02 -0.10407351471E+00  0.88680355814E+00  0.88000000000E+00 0.  1.
        -11    1    4    4    0    0  0.37544641873E-01  0.98768019920E-02  0.96478393947E-01  0.10399756233E+00  0.51100000000E-03 0.  1.
         11    1    4    4    0    0  0.14863395624E-01 -0.56552807631E-02  0.23767866767E-01  0.28602016392E-01  0.51100000000E-03 0. -1.
</event>
<event>
 8    1  0.1123285E+005  0.1043930E+01  0.7957747E-01            NaN
         13   -1    0    0    0    0  0.00000000000E+00  0.00000000000E+00  0.74505805969E-08  0.10566000000E+00  0.10566000000E+00 0. -1.
     999900   -1    0    0    0    0 -0.00000000000E+00 -0.00000000000E+00 -0.74505805969E-08  0.93827000000E+00  0.93827000000E+00 0. -1.
     999902    2    1    2    0    0 -0.10094362967E-01 -0.69898027227E-02 -0.20229727273E-01  0.10202657787E+01  0.10199913057E+01 0.  0.
     999903    2    3    3    0    0  0.93653549659E-01 -0.87040712855E-01 -0.19368918643E-01  0.13056216589E+00  0.18006973528E-01 0.  0.
         14    1    1    2    0    0  0.10094362967E-01  0.69898027227E-02  0.20229727273E-01  0.23664221334E-01  0.00000000000E+00 0. -1.
     999901    1    3    3    0    0 -0.10374791263E+00  0.80050910132E-01 -0.86080862953E-03  0.88970361277E+00  0.88000000000E+00 0.  1.
        -11    1    4    4    0    0  0.75327930195E-01 -0.61480111470E-01 -0.10028127415E-01  0.97749299917E-01  0.51100000000E-03 0. -1.
         11    1    4    4    0    0  0.18325619464E-01 -0.25560601384E-01 -0.93407912280E-02  0.32812865977E-01  0.51100000000E-03 0.  1.
</event>
<event>
 8    1  0.1123285E+005  0.1043930E+01  0.7957747E-01            NaN
         13   -1    0    0    0    0  0.00000000000E+00  0.00000000000E+00  0.74505805969E-08  0.10566000000E+00  0.10566000000E+00 0. -1.
     999900   -1    0    0    0    0 -0.00000000000E+00 -0.00000000000E+00 -0.74505805969E-08  0.93827000000E+00  0.93827000000E+00 0.  1.
     999902    2    1    2    0    0 -0.19534235164E-02 -0.15675895581E-01  0.32058845116E-01  0.10081903985E+01  0.10075567282E+01 0.  0.
     999903    2    3    3    0    0 -0.16170255914E-01 -0.13965330392E-01 -0.11255512789E+00  0.11627210316E+00  0.19850378585E-01 0.  0.
         14    1    1    2    0    0  0.19534235164E-02  0.15675895581E-01 -0.32058845116E-01  0.35739601508E-01  0.00000000000E+00 0. -1.
     999901    1    3    3    0    0  0.14216832397E-01 -0.17105651895E-02  0.14461397301E+00  0.89191829533E+00  0.88000000000E+00 0. -1.
        -11    1    4    4    0    0 -0.15710295696E-01 -0.18664634064E-01 -0.92897389583E-01  0.96048779628E-01  0.51100000000E-03 0. -1.
         11    1    4    4    0    0 -0.45996021756E-03  0.46993036725E-02 -0.19657738307E-01  0.20223323534E-01  0.51100000000E-03 0.  1.
</event>
<event>
 8    1  0.1123285E+005  0.1043930E+01  0.7957747E-01            NaN
         13   -1    0    0    0    0  0.00000000000E+00  0.00000000000E+00  0.74505805969E-08  0.10566000000E+00  0.10566000000E+00 0. -1.
     999900   -1    0    0    0    0 -0.00000000000E+00 -0.00000000000E+00 -0.74505805969E-08  0.93827000000E+00  0.93827000000E+00 0. -1.
     999902    2    1    2    0    0  0.10856559999E-01 -0.99417255800E-02  0.18861364135E-01  0.10200039920E+01  0.10197233398E+01 0.  0.
     999903    2    3    3    0    0 -0.15851032725E-01  0.12239043072E+00  0.34409463860E-01  0.12957328805E+00  0.19353371863E-01 0.  0.
         14    1    1    2    0    0 -0.10856559999E-01  0.99417255800E-02 -0.18861364135E-01  0.23926008015E-01  0.00000000000E+00 0.  1.
     999901    1    3    3    0    0  0.26707592724E-01 -0.13233215630E+00 -0.15548099725E-01  0.89043070393E+00  0.88000000000E+00 0.  1.
        -11    1    4    4    0    0 -0.85943411745E-06  0.31789408276E-01  0.16673995847E-01  0.35900553447E-01  0.51100000000E-03 0. -1.
         11    1    4    4    0    0 -0.15850173291E-01  0.90601022446E-01  0.17735468013E-01  0.93672734605E-01  0.51100000000E-03 0.  1.
</event>
<event>
 8    1  0.1123285E+005  0.1043930E+01  0.7957747E-01            NaN
         13   -1    0    0    0    0  0.00000000000E+00  0.00000000000E+00  0.74505805969E-08  0.10566000000E+00  0.10566000000E+00 0. -1.
     999900   -1    0    0    0    0 -0.00000000000E+00 -0.00000000000E+00 -0.74505805969E-08  0.93827000000E+00  0.93827000000E+00 0.  1.
     999902    2    1    2    0    0  0.22144429268E-01 -0.80162489440E-02 -0.15271977907E-03  0.10203787937E+01  0.10201069666E+01 0.  0.
     999903    2    3    3    0    0 -0.42104579096E-01  0.89788644309E-01  0.80041985088E-01  0.12901751851E+00  0.20099862655E-01 0.  0.
         14    1    1    2    0    0 -0.22144429268E-01  0.80162489440E-02  0.15271977907E-03  0.23551206297E-01  0.00000000000E+00 0.  1.
     999901    1    3    3    0    0  0.64249008363E-01 -0.97804893252E-01 -0.80194704867E-01  0.89136127519E+00  0.88000000000E+00 0.  1.
        -11    1    4    4    0    0 -0.36605272765E-01  0.60797570396E-01  0.63241599567E-01  0.95058148504E-01  0.51100000000E-03 0.  1.
         11    1    4    4    0    0 -0.54993063308E-02  0.28991073912E-01  0.16800385521E-01  0.33959370009E-01  0.51100000000E-03 0. -1.
</event>
<event>
 8    1  0.1123285E+005  0.1043930E+01  0.7957747E-01            NaN
         13   -1    0    0    0    0  0.00000000000E+00  0.00000000000E+00  0.74505805969E-08  0.10566000000E+00  0.10566000000E+00 0. -1.
     999900   -1    0    0    0    0 -0.00000000000E+00 -0.00000000000E+00 -0.74505805969E-08  0.93827000000E+00  0.93827000000E+00 0. -1.
     999902    2    1    2    0    0 -0.14252296270E-01  0.14746012159E-01 -0.45777286405E-02  0.10229174223E+01  0.10227015813E+01 0.  0.
     999903    2    3    3    0    0  0.95688358281E-01  0.67740507805E-01  0.57959885649E-01  0.13229611256E+00  0.19946797916E-01 0.  0.
         14    1    1    2    0    0  0.14252296270E-01 -0.14746012159E-01  0.45777286405E-02  0.21012577735E-01  0.00000000000E+00 0. -1.
     999901    1    3    3    0    0 -0.10994065455E+00 -0.52994495645E-01 -0.62537614289E-01  0.89062130970E+00  0.88000000000E+00 0.  1.
        -11    1    4    4    0    0  0.68576358000E-01  0.39197552328E-01  0.32523911620E-01  0.85423831178E-01  0.51100000000E-03 0. -1.
         11    1    4    4    0    0  0.27112000281E-01  0.28542955477E-01  0.25435974028E-01  0.46872281386E-01  0.51100000000E-03 0.  1.
</event>
<event>
 8    1  0.1123285E+005  0.1043930E+01  0.7957747E-01            NaN
         13   -1    0    0    0    0  0.00000000000E+00  0.00000000000E+00  0.74505805969E-08  0.10566000000E+00  0.10566000000E+00 0. -1.
     999900   -1    0    0    0    0 -0.00000000000E+00 -0.00000000000E+00 -0.74505805969E-08  0.93827000000E+00  0.93827000000E+00 0. -1.
     999902    2    1    2    0    0  0.24438823184E-02  0.16760451911E-01  0.16122341399E-01  0.10205459199E+01  0.10202779815E+01 0.  0.
     999903    2    3    3    0    0 -0.44210829740E-01 -0.93155808481E-01 -0.73189162533E-01  0.12800192034E+00  0.19880542692E-01 0.  0.
         14    1    1    2    0    0 -0.24438823184E-02 -0.16760451911E-01 -0.16122341399E-01  0.23384080081E-01  0.00000000000E+00 0.  1.
     999901    1    3    3    0    0  0.46654712058E-01  0.10991626039E+00  0.89311503932E-01  0.89254399958E+00  0.88000000000E+00 0.  1.
        -11    1    4    4    0    0 -0.11326600011E-01 -0.41180334697E-01 -0.22366004373E-01  0.48214220995E-01  0.51100000000E-03 0.  1.
         11    1    4    4    0    0 -0.32884229729E-01 -0.51975473783E-01 -0.50823158160E-01  0.79787699341E-01  0.51100000000E-03 0. -1.
</event>
<event>
 8    1  0.1123285E+005  0.1043930E+01  0.7957747E-01            NaN
         13   -1    0    0    0    0  0.00000000000E+00  0.00000000000E+00  0.74505805969E-08  0.10566000000E+00  0.10566000000E+00 0. -1.
     999900   -1    0    0    0    0 -0.00000000000E+00 -0.00000000000E+00 -0.74505805969E-08  0.93827000000E+00  0.93827000000E+00 0. -1.
     999902    2    1    2    0    0 -0.10671242873E-01  0.80884492604E-03 -0.21143932810E-01  0.10202319927E+01  0.10199567262E+01 0.  0.
     999903    2    3    3    0    0 -0.90063346774E-01  0.25393867602E-02 -0.96179859802E-01  0.13347583047E+00  0.21151287706E-01 0.  0.
         14    1    1    2    0    0  0.10671242873E-01 -0.80884492604E-03  0.21143932810E-01  0.23698007284E-01  0.00000000000E+00 0. -1.
     999901    1    3    3    0    0  0.79392103901E-01 -0.17305418341E-02  0.75035926992E-01  0.88675616224E+00  0.88000000000E+00 0.  1.
        -11    1    4    4    0    0 -0.28520010318E-01 -0.45865879901E-02 -0.19328552241E-01  0.34760348541E-01  0.51100000000E-03 0.  1.
         11    1    4    4    0    0 -0.61543336456E-01  0.71259747503E-02 -0.76851307560E-01  0.98715481932E-01  0.51100000000E-03 0. -1.
</event>
<event>
 8    1  0.1123285E+005  0.1043930E+01  0.7957747E-01            NaN
         13   -1    0    0    0    0  0.00000000000E+00  0.00000000000E+00  0.74505805969E-08  0.10566000000E+00  0.10566000000E+00 0. -1.
     999900   -1    0    0    0    0 -0.00000000000E+00 -0.00000000000E+00 -0.74505805969E-08  0.93827000000E+00  0.93827000000E+00 0. -1.
     999902    2    1    2    0    0  0.19305216057E-01 -0.61921091374E-02 -0.10761743148E-01  0.10209768151E+01  0.10207187704E+01 0.  0.
     999903    2    3    3    0    0  0.16209056510E-01 -0.89604689699E-02  0.12667739056E+00  0.13029911495E+00  0.24241999937E-01 0.  0.
         14    1    1    2    0    0 -0.19305216057E-01  0.61921091374E-02  0.10761743148E-01  0.22953184925E-01  0.00000000000E+00 0. -1.
     999901    1    3    3    0    0  0.30961595471E-02  0.27683598324E-02 -0.13743913371E+00  0.89067770012E+00  0.88000000000E+00 0. -1.
        -11    1    4    4    0    0 -0.24857050567E-02 -0.11100895281E-01  0.39264924886E-01  0.40882808771E-01  0.51100000000E-03 0.  1.
         11    1    4    4    0    0  0.18694761567E-01  0.21404263110E-02  0.87412465675E-01  0.89416306182E-01  0.51100000000E-03 0. -1.
</event>
<event>
 8    1  0.1123285E+005  0.1043930E+01  0.7957747E-01            NaN
         13   -1    0    0    0    0  0.00000000000E+00  0.00000000000E+00  0.74505805969E-08  0.10566000000E+00  0.10566000000E+00 0. -1.
     999900   -1    0    0    0    0 -0.00000000000E+00 -0.00000000000E+00 -0.74505805969E-08  0.93827000000E+00  0.93827000000E+00 0. -1.
     999902    2    1    2    0    0  0.14116741552E-01 -0.14873696084E-01 -0.11549658792E-01  0.10203948381E+01  0.10201233856E+01 0.  0.
     999903    2    3    3    0    0  0.84548070353E-01  0.78650222880E-01  0.56548552348E-01  0.13003274218E+00  0.19404677452E-01 0.  0.
         14    1    1    2    0    0 -0.14116741552E-01  0.14873696084E-01  0.11549658792E-01  0.23535161896E-01  0.00000000000E+00 0. -1.
     999901    1    3    3    0    0 -0.70431328801E-01 -0.93523918964E-01 -0.68098211140E-01  0.89036209592E+00  0.88000000000E+00 0. -1.
        -11    1    4    4    0    0  0.58835012827E-01  0.58559806193E-01  0.31095053770E-01  0.88645209265E-01  0.51100000000E-03 0. -1.
         11    1    4    4    0    0  0.25713057527E-01  0.20090416686E-01  0.25453498578E-01  0.41387532916E-01  0.51100000000E-03 0.  1.
</event>
<event>
 8    1  0.1123285E+005  0.1043930E+01  0.7957747E-01            NaN
         13   -1    0    0    0    0  0.00000000000E+00  0.00000000000E+00  0.74505805969E-08  0.10566000000E+00  0.10566000000E+00 0. -1.
     999900   -1    0    0    0    0 -0.00000000000E+00 -0.00000000000E+00 -0.74505805969E-08  0.93827000000E+00  0.93827000000E+00 0.  1.
     999902    2    1    2    0    0  0.13677594665E-01  0.14281163045E-01 -0.10694493542E-01  0.10214488878E+01  0.10212014640E+01 0.  0.
     999903    2    3    3    0    0 -0.87908630006E-01  0.16347010434E-01 -0.94385432382E-01  0.13165778759E+00  0.20736711574E-01 0.  0.
         14    1    1    2    0    0 -0.13677594665E-01 -0.14281163045E-01  0.10694493542E-01  0.22481112202E-01  0.00000000000E+00 0. -1.
     999901    1    3    3    0    0  0.10158622467E+00 -0.20658473895E-02  0.83690938840E-01  0.88979110021E+00  0.88000000000E+00 0. -1.
        -11    1    4    4    0    0 -0.25159141466E-01 -0.25937118975E-02 -0.18251091780E-01  0.31194121448E-01  0.51100000000E-03 0. -1.
         11    1    4    4    0    0 -0.62749488540E-01  0.18940722331E-01 -0.76134340602E-01  0.10046366614E+00  0.51100000000E-03 0.  1.
</event>
<event>
 8    1  0.1123285E+005  0.1043930E+01  0.7957747E-01            NaN
         13   -1    0    0    0    0  0.00000000000E+00  0.00000000000E+00  0.74505805969E-08  0.10566000000E+00  0.10566000000E+00 0. -1.
     999900   -1    0    0    0    0 -0.00000000000E+00 -0.00000000000E+00 -0.74505805969E-08  0.93827000000E+00  0.93827000000E+00 0.  1.
     999902    2    1    2    0    0  0.10310847277E-02  0.22697760591E-01  0.21271007527E-02  0.10211094823E+01  0.10208544454E+01 0.  0.
     999903    2    3    3    0    0 -0.56120924104E-01  0.11953223655E+00 -0.81731113671E-02  0.13389509882E+00  0.20581157442E-01 0.  0.
         14    1    1    2    0    0 -0.10310847277E-02 -0.22697760591E-01 -0.21271007527E-02  0.22820517723E-01  0.00000000000E+00 0.  1.
     999901    1    3    3    0    0  0.57152008832E-01 -0.96834475956E-01  0.10300212120E-01  0.88721438346E+00  0.88000000000E+00 0. -1.
        -11    1    4    4    0    0 -0.34603297434E-01  0.50953289263E-01 -0.71737690720E-02  0.62010885849E-01  0.51100000000E-03 0.  1.
         11    1    4    4    0    0 -0.21517626670E-01  0.68578947284E-01 -0.99934229515E-03  0.71884212969E-01  0.51100000000E-03 0. -1.
</event>
<event>
 8    1  0.1123285E+005  0.1043930E+01  0.7957747E-01            NaN
         13   -1    0    0    0    0  0.00000000000E+00  0.00000000000E+00  0.74505805969E-08  0.10566000000E+00  0.10566000000E+00 0.  1.
     999900   -1    0    0    0    0 -0.00000000000E+00 -0.00000000000E+00 -0.74505805969E-08  0.93827000000E+00  0.93827000000E+00 0.  1.
     999902    2    1    2    0    0 -0.12522844195E-01  0.21002031275E-01 -0.19072989500E-02  0.10194035911E+01  0.10191085010E+01 0.  0.
     999903    2    3    3    0    0  0.11688328163E+00 -0.28264542341E-01 -0.38461658084E-01  0.12782669489E+00  0.19994471871E-01 0.  0.
         14    1    1    2    0    0  0.12522844195E-01 -0.21002031275E-01  0.19072989500E-02  0.24526408903E-01  0.00000000000E+00 0. -1.
     999901    1    3    3    0    0 -0.12940612583E+00  0.49266573616E-01  0.36554359134E-01  0.89157689621E+00  0.88000000000E+00 0. -1.
        -11    1    4    4    0    0  0.38630930436E-01 -0.14291253594E-01 -0.21806966127E-01  0.46608943437E-01  0.51100000000E-03 0.  1.
         11    1    4    4    0    0  0.78252351195E-01 -0.13973288747E-01 -0.16654691957E-01  0.81217751454E-01  0.51100000000E-03 0. -1.
</event>
<event>
 8    1  0.1123285E+005  0.1043930E+01  0.7957747E-01            NaN
         13   -1    0    0    0    0  0.00000000000E+00  0.00000000000E+00  0.74505805969E-08  0.10566000000E+00  0.10566000000E+00 0. -1.
     999900   -1    0    0    0    0 -0.00000000000E+00 -0.00000000000E+00 -0.74505805969E-08  0.93827000000E+00  0.93827000000E+00 0. -1.
     999902    2    1    2    0    0  0.69382156752E-04  0.11859701226E-01  0.16461507854E-01  0.10236411221E+01  0.10234400365E+01 0.  0.
     999903    2    3    3    0    0 -0.76455387092E-01  0.53220099164E-01  0.96560815471E-01  0.13573199276E+00  0.20527484091E-01 0.  0.
         14    1    1    2    0    0 -0.69382156752E-04 -0.11859701226E-01 -0.16461507854E-01  0.20288877935E-01  0.00000000000E+00 0.  1.
     999901    1    3    3    0    0  0.76524769248E-01 -0.41360397938E-01 -0.80099307617E-01  0.88790912931E+00  0.88000000000E+00 0. -1.
        -11    1    4    4    0    0 -0.85254628755E-02  0.13628181437E-01  0.22953048473E-01  0.28027029841E-01  0.51100000000E-03 0.  1.
         11    1    4    4    0    0 -0.67929924216E-01  0.39591917727E-01  0.73607766998E-01  0.10770496292E+00  0.51100000000E-03 0. -1.
</event>
<event>
 8    1  0.1123285E+005  0.1043930E+01  0.7957747E-01            NaN
         13   -1    0    0    0    0  0.00000000000E+00  0.00000000000E+00  0.74505805969E-08  0.10566000000E+00  0.10566000000E+00 0. -1.
     999900   -1    0    0    0    0 -0.00000000000E+00 -0.00000000000E+00 -0.74505805969E-08  0.93827000000E+00  0.93827000000E+00 0.  1.
     999902    2    1    2    0    0  0.21688765228E-01 -0.90996420354E-02 -0.14484833701E-02  0.10203651082E+01  0.10200929614E+01 0.  0.
     999903    2    3    3    0    0  0.33904345295E-01 -0.12156231729E+00  0.34502101404E-01  0.13239578536E+00  0.20281700297E-01 0.  0.
         14    1    1    2    0    0 -0.21688765228E-01  0.90996420354E-02  0.14484833701E-02  0.23564891817E-01  0.00000000000E+00 0.  1.
     999901    1    3    3    0    0 -0.12215580068E-01  0.11246267525E+00 -0.35950584774E-01  0.88796932282E+00  0.88000000000E+00 0. -1.
        -11    1    4    4    0    0  0.23461607396E-01 -0.73243777141E-01  0.11129644442E-01  0.77712470157E-01  0.51100000000E-03 0. -1.
         11    1    4    4    0    0  0.10442737899E-01 -0.48318540146E-01  0.23372456961E-01  0.54683315207E-01  0.51100000000E-03 0.  1.
</event>
<event>
 8    1  0.1123285E+005  0.1043930E+01  0.7957747E-01            NaN
         13   -1    0    0    0    0  0.00000000000E+00  0.00000000000E+00  0.74505805969E-08  0.10566000000E+00  0.10566000000E+00 0.  1.
     999900   -1    0    0    0    0 -0.00000000000E+00 -0.00000000000E+00 -0.74505805969E-08  0.93827000000E+00  0.93827000000E+00 0.  1.
     999902    2    1    2    0    0 -0.33189700543E-01  0.61299523029E-03 -0.35964021067E-02  0.10105403894E+01  0.10099886200E+01 0.  0.
     999903    2    3    3    0    0  0.18012781840E-01  0.84948867078E-01  0.83010203507E-01  0.12080169880E+00  0.12711656836E-01 0.  0.
         14    1    1    2    0    0  0.33189700543E-01 -0.61299523029E-03  0.35964021067E-02  0.33389610561E-01  0.00000000000E+00 0.  1.
     999901    1    3    3    0    0 -0.51202482383E-01 -0.84335871848E-01 -0.86606605614E-01  0.88973869064E+00  0.88000000000E+00 0.  1.
        -11    1    4    4    0    0  0.17168363376E-01  0.55116964292E-01  0.50961138977E-01  0.77006046909E-01  0.51100000000E-03 0. -1.
         11    1    4    4    0    0  0.84441846391E-03  0.29831902786E-01  0.32049064530E-01  0.43795651892E-01  0.51100000000E-03 0.  1.
</event>
<event>
 8    1  0.1123285E+005  0.1043930E+01  0.7957747E-01            NaN
         13   -1    0    0    0    0  0.00000000000E+00  0.00000000000E+00  0.74505805969E-08  0.10566000000E+00  0.10566000000E+00 0.  1.
     999900   -1    0    0    0    0 -0.00000000000E+00 -0.00000000000E+00 -0.74505805969E-08  0.93827000000E+00  0.93827000000E+00 0. -1.
     999902    2    1    2    0    0  0.87287163534E-03  0.20804425004E-01 -0.10717583457E-01  0.10205109351E+01  0.10202421850E+01 0.  0.
     999903    2    3    3    0    0  0.82557959275E-01 -0.47092288357E-01 -0.87610053673E-01  0.13079476172E+00  0.19956150122E-01 0.  0.
         14    1    1    2    0    0 -0.87287163534E-03 -0.20804425004E-01  0.10717583457E-01  0.23419064878E-01  0.00000000000E+00 0. -1.
     999901    1    3    3    0    0 -0.81685087640E-01  0.67896713360E-01  0.76892470216E-01  0.88971617340E+00  0.88000000000E+00 0.  1.
        -11    1    4    4    0    0  0.33200400036E-01 -0.27729324831E-01 -0.30926751352E-01  0.53178069619E-01  0.51100000000E-03 0. -1.
         11    1    4    4    0    0  0.49357559238E-01 -0.19362963526E-01 -0.56683302321E-01  0.77616692106E-01  0.51100000000E-03 0.  1.
</event>
<event>
 8    1  0.1123285E+005  0.1043930E+01  0.7957747E-01            NaN
         13   -1    0    0    0    0  0.00000000000E+00  0.00000000000E+00  0.74505805969E-08  0.10566000000E+00  0.10566000000E+00 0.  1.
     999900   -1    0    0    0    0 -0.00000000000E+00 -0.00000000000E+00 -0.74505805969E-08  0.93827000000E+00  0.93827000000E+00 0. -1.
     999902    2    1    2    0    0 -0.47640879954E-02 -0.19598253826E-01 -0.12965864740E-01  0.10199528914E+01  0.10196710249E+01 0.  0.
     999903    2    3    3    0    0 -0.50944680220E-01 -0.10197271315E+00  0.62590894263E-01  0.13168096094E+00  0.20699293711E-01 0.  0.
         14    1    1    2    0    0  0.47640879954E-02  0.19598253826E-01  0.12965864740E-01  0.23977108581E-01  0.00000000000E+00 0.  1.
     999901    1    3    3    0    0  0.46180592224E-01  0.82374459321E-01 -0.75556759003E-01  0.88827193048E+00  0.88000000000E+00 0. -1.
        -11    1    4    4    0    0 -0.15090032374E-01 -0.53150415420E-01  0.28485745351E-01  0.62164093701E-01  0.51100000000E-03 0. -1.
         11    1    4    4    0    0 -0.35854647846E-01 -0.48822297726E-01  0.34105148912E-01  0.69516867239E-01  0.51100000000E-03 0.  1.
</event>
<event>
 8    1  0.1123285E+005  0.1043930E+01  0.7957747E-01            NaN
         13   -1    0    0    0    0  0.00000000000E+00  0.00000000000E+00  0.74505805969E-08  0.10566000000E+00  0.10566000000E+00 0.  1.
     999900   -1    0    0    0    0 -0.00000000000E+00 -0.00000000000E+00 -0.74505805969E-08  0.93827000000E+00  0.93827000000E+00 0.  1.
     999902    2    1    2    0    0 -0.10542046894E-01 -0.14788895554E-01  0.18361598663E-01  0.10181037635E+01  0.10177761438E+01 0.  0.
     999903    2    3    3    0    0  0.62210468570E-02  0.12423563786E+00 -0.10535720690E-01  0.12656359211E+00  0.20836177652E-01 0.  0.
         14    1    1    2    0    0  0.10542046894E-01  0.14788895554E-01 -0.18361598663E-01  0.25826236464E-01  0.00000000000E+00 0.  1.
     999901    1    3    3    0    0 -0.16763093751E-01 -0.13902453341E+00  0.28897319353E-01  0.89154017143E+00  0.88000000000E+00 0.  1.
        -11    1    4    4    0    0 -0.56527546984E-02  0.51232027854E-01  0.18020175122E-02  0.51576959021E-01  0.51100000000E-03 0. -1.
         11    1    4    4    0    0  0.11873801555E-01  0.73003610003E-01 -0.12337738202E-01  0.74986633087E-01  0.51100000000E-03 0.  1.
</event>
<event>
 8    1  0.1123285E+005  0.1043930E+01  0.7957747E-01            NaN
         13   -1    0    0    0    0  0.00000000000E+00  0.00000000000E+00  0.74505805969E-08  0.10566000000E+00  0.10566000000E+00 0. -1.
     999900   -1    0    0    0    0 -0.00000000000E+00 -0.00000000000E+00 -0.74505805969E-08  0.93827000000E+00  0.93827000000E+00 0. -1.
     999902    2    1    2    0    0  0.18795544416E-01  0.71878773942E-02 -0.13193062999E-01  0.10198676854E+01  0.10195837880E+01 0.  0.
     999903    2    3    3    0    0 -0.15242005334E-01  0.58960960562E-01  0.11185566944E+00  0.12887038329E+00  0.19676669097E-01 0.  0.
         14    1    1    2    0    0 -0.18795544416E-01 -0.71878773942E-02  0.13193062999E-01  0.24062314573E-01  0.00000000000E+00 0. -1.
     999901    1    3    3    0    0  0.34037549750E-01 -0.51773083167E-01 -0.12504873244E+00  0.89099730214E+00  0.88000000000E+00 0. -1.
        -11    1    4    4    0    0 -0.47847629717E-02  0.39715461339E-01  0.86871825026E-01  0.95640927068E-01  0.51100000000E-03 0. -1.
         11    1    4    4    0    0 -0.10457242362E-01  0.19245499222E-01  0.24983844411E-01  0.33229456220E-01  0.51100000000E-03 0.  1.
</event>
<event>
 8    1  0.1123285E+005  0.1043930E+01  0.7957747E-01            NaN
         13   -1    0    0    0    0  0.00000000000E+00  0.00000000000E+00  0.74505805969E-08  0.10566000000E+00  0.10566000000E+00 0.  1.
     999900   -1    0    0    0    0 -0.00000000000E+00 -0.00000000000E+00 -0.74505805969E-08  0.93827000000E+00  0.93827000000E+00 0. -1.
     999902    2    1    2    0    0  0.15436354678E-01  0.13322144827E-01  0.13041103697E-01  0.10197260546E+01  0.10194387649E+01 0.  0.
     999903    2    3    3    0    0  0.43816056996E-01 -0.11895808863E+00  0.15488515754E-01  0.12938372856E+00  0.20721520085E-01 0.  0.
         14    1    1    2    0    0 -0.15436354678E-01 -0.13322144827E-01 -0.13041103697E-01  0.24203945426E-01  0.00000000000E+00 0. -1.
     999901    1    3    3    0    0 -0.28379702317E-01  0.13228023346E+00 -0.24474120563E-02  0.89034232601E+00  0.88000000000E+00 0.  1.
        -11    1    4    4    0    0  0.16300358978E-01 -0.20710659976E-01  0.48267956842E-02  0.26799108512E-01  0.51100000000E-03 0.  1.
         11    1    4    4    0    0  0.27515698017E-01 -0.98247428654E-01  0.10661720069E-01  0.10258462005E+00  0.51100000000E-03 0. -1.
</event>
<event>
 8    1  0.1123285E+005  0.1043930E+01  0.7957747E-01            NaN
         13   -1    0    0    0    0  0.00000000000E+00  0.00000000000E+00  0.74505805969E-08  0.10566000000E+00  0.10566000000E+00 0. -1.
     999900   -1    0    0    0    0 -0.00000000000E+00 -0.00000000000E+00 -0.74505805969E-08  0.93827000000E+00  0.93827000000E+00 0.  1.
     999902    2    1    2    0    0 -0.14366820233E-01 -0.15190083939E-01  0.99907837272E-02  0.10207576041E+01  0.10204945499E+01 0.  0.
     999903    2    3    3    0    0  0.10136236354E+00 -0.41161279015E-01 -0.66402666417E-01  0.12952042678E+00  0.19941093628E-01 0.  0.
         14    1    1    2    0    0  0.14366820233E-01  0.15190083939E-01 -0.99907837272E-02  0.23172395931E-01  0.00000000000E+00 0.  1.
     999901    1    3    3    0    0 -0.11572918377E+00  0.25971195076E-01  0.76393450144E-01  0.89123717728E+00  0.88000000000E+00 0. -1.
        -11    1    4    4    0    0  0.37703199745E-01 -0.66232971985E-02 -0.28849324231E-01  0.47936874808E-01  0.51100000000E-03 0.  1.
         11    1    4    4    0    0  0.63659163793E-01 -0.34537981817E-01 -0.37553342186E-01  0.81583551976E-01  0.51100000000E-03 0. -1.
</event>
<event>
 8    1  0.1123285E+005  0.1043930E+01  0.7957747E-01            NaN
         13   -1    0    0    0    0  0.00000000000E+00  0.00000000000E+00  0.74505805969E-08  0.10566000000E+00  0.10566000000E+00 0.  1.
     999900   -1    0    0    0    0 -0.00000000000E+00 -0.00000000000E+00 -0.74505805969E-08  0.93827000000E+00  0.93827000000E+00 0.  1.
     999902    2    1    2    0    0  0.19169110673E-01  0.22124633697E-02 -0.13964485103E-01  0.10201107506E+01  0.10198326269E+01 0.  0.
     999903    2    3    3    0    0 -0.59433792753E-02 -0.11528747883E+00 -0.58201219747E-01  0.13084489481E+00  0.20161299187E-01 0.  0.
         14    1    1    2    0    0 -0.19169110673E-01 -0.22124633697E-02  0.13964485103E-01  0.23819249408E-01  0.00000000000E+00 0. -1.
     999901    1    3    3    0    0  0.25112489949E-01  0.11749994220E+00  0.44236734643E-01  0.88926585578E+00  0.88000000000E+00 0.  1.
        -11    1    4    4    0    0 -0.24374851221E-02 -0.69400698266E-01 -0.23891725843E-01  0.73440274634E-01  0.51100000000E-03 0.  1.
         11    1    4    4    0    0 -0.35058941531E-02 -0.45886780566E-01 -0.34309493904E-01  0.57404620175E-01  0.51100000000E-03 0. -1.
</event>
<event>
 8    1  0.1123285E+005  0.1043930E+01  0.7957747E-01            NaN
         13   -1    0    0    0    0  0.00000000000E+00  0.00000000000E+00  0.74505805969E-08  0.10566000000E+00  0.10566000000E+00 0.  1.
     999900   -1    0    0    0    0 -0.00000000000E+00 -0.00000000000E+00 -0.74505805969E-08  0.93827000000E+00  0.93827000000E+00 0.  1.
     999902    2    1    2    0    0  0.20191920016E-01 -0.11534501879E-01  0.47546303076E-02  0.10201946913E+01  0.10199185474E+01 0.  0.
     999903    2    3    3    0    0  0.89634927847E-01  0.44981569708E-01 -0.82623193425E-01  0.13134640184E+00  0.19170896693E-01 0.  0.
         14    1    1    2    0    0 -0.20191920016E-01  0.11534501879E-01 -0.47546303076E-02  0.23735308654E-01  0.00000000000E+00 0. -1.
     999901    1    3    3    0    0 -0.69443007831E-01 -0.56516071587E-01  0.87377823733E-01  0.88884828951E+00  0.88000000000E+00 0. -1.
        -11    1    4    4    0    0  0.84970616519E-01  0.39860719277E-01 -0.70541571695E-01  0.11741063440E+00  0.51100000000E-03 0.  1.
         11    1    4    4    0    0  0.46643113281E-02  0.51208504310E-02 -0.12081621730E-01  0.13935767433E-01  0.51100000000E-03 0. -1.
</event>
<event>
 8    1  0.1123285E+005  0.1043930E+01  0.7957747E-01            NaN
         13   -1    0    0    0    0  0.00000000000E+00  0.00000000000E+00  0.74505805969E-08  0.10566000000E+00  0.10566000000E+00 0.  1.
     999900   -1    0    0    0    0 -0.00000000000E+00 -0.00000000000E+00 -0.74505805969E-08  0.93827000000E+00  0.93827000000E+00 0. -1.
     999902    2    1    2    0    0 -0.11494543897E-01  0.21436254950E-01  0.23667579632E-02  0.10194915240E+01  0.10191985716E+01 0.  0.
     999903    2    3    3    0    0  0.53567280553E-02 -0.82468594768E-02 -0.12772017628E+00  0.12927376238E+00  0.17394165288E-01 0.  0.
         14    1    1    2    0    0  0.11494543897E-01 -0.21436254950E-01 -0.23667579632E-02  0.24438475994E-01  0.00000000000E+00 0.  1.
     999901    1    3    3    0    0 -0.16851271952E-01  0.29683114427E-01  0.13008693424E+00  0.89021776162E+00  0.88000000000E+00 0.  1.
        -11    1    4    4    0    0 -0.38685722801E-02 -0.36600923189E-02 -0.12553051328E-01  0.13645598042E-01  0.51100000000E-03 0. -1.
         11    1    4    4    0    0  0.92253003354E-02 -0.45867671579E-02 -0.11516712495E+00  0.11562816434E+00  0.51100000000E-03 0.  1.
</event>
<event>
 8    1  0.1123285E+005  0.1043930E+01  0.7957747E-01            NaN
         13   -1    0    0    0    0  0.00000000000E+00  0.00000000000E+00  0.74505805969E-08  0.10566000000E+00  0.10566000000E+00 0.  1.
     999900   -1    0    0    0    0 -0.00000000000E+00 -0.00000000000E+00 -0.74505805969E-08  0.93827000000E+00  0.93827000000E+00 0.  1.
     999902    2    1    2    0    0 -0.18599188777E-02 -0.11490339467E-01  0.20496867167E-01  0.10203586453E+01  0.10200863474E+01 0.  0.
     999903    2    3    3    0    0  0.10622708833E+00  0.22109749712E-01 -0.66852241447E-01  0.12881973201E+00  0.18768746371E-01 0.  0.
         14    1    1    2    0    0  0.18599188777E-02  0.11490339467E-01 -0.20496867167E-01  0.23571354712E-01  0.00000000000E+00 0. -1.
     999901    1    3    3    0    0 -0.10808700721E+00 -0.33600089179E-01  0.87349108614E-01  0.89153891328E+00  0.88000000000E+00 0. -1.
        -11    1    4    4    0    0  0.83558011055E-02 -0.56816725684E-03 -0.11121722086E-01  0.13931835819E-01  0.51100000000E-03 0.  1.
         11    1    4    4    0    0  0.97871287224E-01  0.22677916969E-01 -0.55730519362E-01  0.11488789619E+00  0.51100000000E-03 0. -1.
</event>
<event>
 8    1  0.1123285E+005  0.1043930E+01  0.7957747E-01            NaN
         13   -1    0    0    0    0  0.00000000000E+00  0.00000000000E+00  0.74505805969E-08  0.10566000000E+00  0.10566000000E+00 0. -1.
     999900   -1    0    0    0    0 -0.00000000000E+00 -0.00000000000E+00 -0.74505805969E-08  0.93827000000E+00  0.93827000000E+00 0.  1.
     999902    2    1    2    0    0 -0.18765538389E-01  0.12129269948E-01  0.49582588866E-02  0.10210422532E+01  0.10207856944E+01 0.  0.
     999903    2    3    3    0    0 -0.21368172161E-01  0.12326406952E+00  0.41379682702E-01  0.13330116627E+00  0.20156715323E-01 0.  0.
         14    1    1    2    0    0  0.18765538389E-01 -0.12129269948E-01 -0.49582588866E-02  0.22887746759E-01  0.00000000000E+00 0.  1.
     999901    1    3    3    0    0  0.26026337719E-02 -0.11113479957E+00 -0.36421423816E-01  0.88774108697E+00  0.88000000000E+00 0.  1.
        -11    1    4    4    0    0 -0.21478899744E-02  0.50759849317E-01  0.24540234678E-01  0.56423930854E-01  0.51100000000E-03 0.  1.
         11    1    4    4    0    0 -0.19220282187E-01  0.72504220205E-01  0.16839448024E-01  0.76877235418E-01  0.51100000000E-03 0. -1.
</event>
<event>
 8    1  0.1123285E+005  0.1043930E+01  0.7957747E-01            NaN
         13   -1    0    0    0    0  0.00000000000E+00  0.00000000000E+00  0.74505805969E-08  0.10566000000E+00  0.10566000000E+00 0.  1.
     999900   -1    0    0    0    0 -0.00000000000E+00 -0.00000000000E+00 -0.74505805969E-08  0.93827000000E+00  0.93827000000E+00 0. -1.
     999902    2    1    2    0    0 -0.10838694568E-01 -0.13543867164E-01 -0.15880245806E-01  0.10204120102E+01  0.10201409583E+01 0.  0.
     999903    2    3    3    0    0  0.82611728928E-01  0.45218209924E-01  0.84599698197E-01  0.12784146256E+00  0.17802987089E-01 0.  0.
         14    1    1    2    0    0  0.10838694568E-01  0.13543867164E-01  0.15880245806E-01  0.23517989807E-01  0.00000000000E+00 0.  1.
     999901    1    3    3    0    0 -0.93450423496E-01 -0.58762077088E-01 -0.10047994400E+00  0.89257054763E+00  0.88000000000E+00 0. -1.
        -11    1    4    4    0    0  0.68972496085E-01  0.40074883513E-01  0.62395703570E-01  0.10127530030E+00  0.51100000000E-03 0.  1.
         11    1    4    4    0    0  0.13639232842E-01  0.51433264108E-02  0.22203994627E-01  0.26566162265E-01  0.51100000000E-03 0. -1.
</event>
<event>
 8    1  0.1123285E+005  0.1043930E+01  0.7957747E-01            NaN
         13   -1    0    0    0    0  0.00000000000E+00  0.00000000000E+00  0.74505805969E-08  0.10566000000E+00  0.10566000000E+00 0.  1.
     999900   -1    0    0    0    0 -0.00000000000E+00 -0.00000000000E+00 -0.74505805969E-08  0.93827000000E+00  0.93827000000E+00 0.  1.
     999902    2    1    2    0    0 -0.11948639522E-01 -0.10306452392E-01 -0.15548495312E-01  0.10217771525E+01  0.10215369796E+01 0.  0.
     999903    2    3    3    0    0 -0.59551931159E-01 -0.58050302029E-01  0.10013888801E+00  0.13164844311E+00  0.19678557146E-01 0.  0.
         14    1    1    2    0    0  0.11948639522E-01  0.10306452392E-01  0.15548495312E-01  0.22152847533E-01  0.00000000000E+00 0. -1.
     999901    1    3    3    0    0  0.47603291637E-01  0.47743849637E-01 -0.11568738333E+00  0.89012870935E+00  0.88000000000E+00 0.  1.
        -11    1    4    4    0    0 -0.22220445262E-01 -0.34856499164E-01  0.52663544854E-01  0.66950980570E-01  0.51100000000E-03 0. -1.
         11    1    4    4    0    0 -0.37331485897E-01 -0.23193802864E-01  0.47475343160E-01  0.64697462545E-01  0.51100000000E-03 0.  1.
</event>
<event>
 8    1  0.1123285E+005  0.1043930E+01  0.7957747E-01            NaN
         13   -1    0    0    0    0  0.00000000000E+00  0.00000000000E+00  0.74505805969E-08  0.10566000000E+00  0.10566000000E+00 0. -1.
     999900   -1    0    0    0    0 -0.00000000000E+00 -0.00000000000E+00 -0.74505805969E-08  0.93827000000E+00  0.93827000000E+00 0.  1.
     999902    2    1    2    0    0  0.25799417991E-02  0.55428501844E-02 -0.22502414466E-01  0.10206118109E+01  0.10203453977E+01 0.  0.
     999903    2    3    3    0    0 -0.93787150239E-01  0.89422565602E-01 -0.35602021114E-02  0.13118433743E+00  0.20105485802E-01 0.  0.
         14    1    1    2    0    0 -0.25799417991E-02 -0.55428501844E-02  0.22502414466E-01  0.23318189138E-01  0.00000000000E+00 0. -1.
     999901    1    3    3    0    0  0.96367092038E-01 -0.83879715417E-01 -0.18942212355E-01  0.88942747343E+00  0.88000000000E+00 0.  1.
        -11    1    4    4    0    0 -0.27875523911E-01  0.39485451916E-01 -0.38527007563E-02  0.48489691384E-01  0.51100000000E-03 0. -1.
         11    1    4    4    0    0 -0.65911626327E-01  0.49937113685E-01  0.29249864491E-03  0.82694646047E-01  0.51100000000E-03 0.  1.
</event>
<event>
 8    1  0.1123285E+005  0.1043930E+01  0.7957747E-01            NaN
         13   -1    0    0    0    0  0.00000000000E+00  0.00000000000E+00  0.74505805969E-08  0.10566000000E+00  0.10566000000E+00 0. -1.
     999900   -1    0    0    0    0 -0.00000000000E+00 -0.00000000000E+00 -0.74505805969E-08  0.93827000000E+00  0.93827000000E+00 0. -1.
     999902    2    1    2    0    0  0.12205055855E-01 -0.38946568245E-02  0.19965695587E-01  0.10202074213E+01  0.10199315770E+01 0.  0.
     999903    2    3    3    0    0 -0.11773186680E+00  0.25109775743E-01  0.44199787816E-01  0.12986358198E+00  0.20485003850E-01 0.  0.
         14    1    1    2    0    0 -0.12205055855E-01  0.38946568245E-02 -0.19965695587E-01  0.23722578706E-01  0.00000000000E+00 0.  1.
     999901    1    3    3    0    0  0.12993692266E+00 -0.29004432568E-01 -0.24234092230E-01  0.89034383931E+00  0.88000000000E+00 0. -1.
        -11    1    4    4    0    0 -0.55893551385E-01  0.18269118525E-01  0.12846784293E-01  0.60192613880E-01  0.51100000000E-03 0.  1.
         11    1    4    4    0    0 -0.61838315419E-01  0.68406572181E-02  0.31353003523E-01  0.69670968100E-01  0.51100000000E-03 0. -1.
</event>
<event>
 8    1  0.1123285E+005  0.1043930E+01  0.7957747E-01            NaN
         13   -1    0    0    0    0  0.00000000000E+00  0.00000000000E+00  0.74505805969E-08  0.10566000000E+00  0.10566000000E+00 0. -1.
     999900   -1    0    0    0    0 -0.00000000000E+00 -0.00000000000E+00 -0.74505805969E-08  0.93827000000E+00  0.93827000000E+00 0.  1.
     999902    2    1    2    0    0  0.21960586952E-01  0.32691669294E-02 -0.80520764673E-02  0.10203124056E+01  0.10200390258E+01 0.  0.
     999903    2    3    3    0    0  0.71827699009E-01  0.10381205387E+00  0.33793855268E-01  0.13219828959E+00  0.19955005508E-01 0.  0.
         14    1    1    2    0    0 -0.21960586952E-01 -0.32691669294E-02  0.80520764673E-02  0.23617594439E-01  0.00000000000E+00 0.  1.
     999901    1    3    3    0    0 -0.49867112057E-01 -0.10054288694E+00 -0.41845931736E-01  0.88811411597E+00  0.88000000000E+00 0.  1.
        -11    1    4    4    0    0  0.14308713879E-01  0.32010663404E-01  0.30612167649E-02  0.35200199339E-01  0.51100000000E-03 0.  1.
         11    1    4    4    0    0  0.57518985129E-01  0.71801390461E-01  0.30732638503E-01  0.96998090254E-01  0.51100000000E-03 0. -1.
</event>
<event>
 8    1  0.1123285E+005  0.1043930E+01  0.7957747E-01            NaN
         13   -1    0    0    0    0  0.00000000000E+00  0.00000000000E+00  0.74505805969E-08  0.10566000000E+00  0.10566000000E+00 0. -1.
     999900   -1    0    0    0    0 -0.00000000000E+00 -0.00000000000E+00 -0.74505805969E-08  0.93827000000E+00  0.93827000000E+00 0. -1.
     999902    2    1    2    0    0  0.98256741757E-02 -0.13335714573E-01  0.16079820593E-01  0.10208443814E+01  0.10205833162E+01 0.  0.
     999903    2    3    3    0    0  0.39397726763E-01  0.12182543832E+00 -0.38305272313E-02  0.12981157308E+00  0.21041703104E-01 0.  0.
         14    1    1    2    0    0 -0.98256741757E-02  0.13335714573E-01 -0.16079820593E-01  0.23085618607E-01  0.00000000000E+00 0. -1.
     999901    1    3    3    0    0 -0.29572052587E-01 -0.13516115289E+00  0.19910347824E-01  0.89103280832E+00  0.88000000000E+00 0.  1.
        -11    1    4    4    0    0  0.24251896098E-01  0.44537342683E-01  0.26620365569E-02  0.50784612997E-01  0.51100000000E-03 0.  1.
         11    1    4    4    0    0  0.15145830665E-01  0.77288095638E-01 -0.64925637881E-02  0.79026960080E-01  0.51100000000E-03 0. -1.
</event>
<event>
 8    1  0.1123285E+005  0.1043930E+01  0.7957747E-01            NaN
         13   -1    0    0    0    0  0.00000000000E+00  0.00000000000E+00  0.74505805969E-08  0.10566000000E+00  0.10566000000E+00 0. -1.
     999900   -1    0    0    0    0 -0.00000000000E+00 -0.00000000000E+00 -0.74505805969E-08  0.93827000000E+00  0.93827000000E+00 0.  1.
     999902    2    1    2    0    0  0.47727431313E-02 -0.74565041882E-02 -0.21854697834E-01  0.10203502131E+01  0.10200777182E+01 0.  0.
     999903    2    3    3    0    0  0.54473129507E-01 -0.11622228803E+00 -0.24726131852E-01  0.13225766768E+00  0.20143658790E-01 0.  0.
         14    1    1    2    0    0 -0.47727431313E-02  0.74565041882E-02  0.21854697834E-01  0.23579786876E-01  0.00000000000E+00 0. -1.
     999901    1    3    3    0    0 -0.49700386376E-01  0.10876578385E+00  0.28714340175E-02  0.88809254544E+00  0.88000000000E+00 0. -1.
        -11    1    4    4    0    0  0.14828912673E-01 -0.54829065556E-01 -0.12482516757E-01  0.58156662786E-01  0.51100000000E-03 0. -1.
         11    1    4    4    0    0  0.39644216834E-01 -0.61393222478E-01 -0.12243615094E-01  0.74101004893E-01  0.51100000000E-03 0.  1.
</event>
<event>
 8    1  0.1123285E+005  0.1043930E+01  0.7957747E-01            NaN
         13   -1    0    0    0    0  0.00000000000E+00  0.00000000000E+00  0.74505805969E-08  0.10566000000E+00  0.10566000000E+00 0.  1.
     999900   -1    0    0    0    0 -0.00000000000E+00 -0.00000000000E+00 -0.74505805969E-08  0.93827000000E+00  0.93827000000E+00 0.  1.
     999902    2    1    2    0    0 -0.16794278114E-01  0.15670231091E-01  0.55190243306E-02  0.10203066313E+01  0.10200331163E+01 0.  0.
     999903    2    3    3    0    0  0.18756609346E-01  0.86652929135E-01  0.95803654029E-01  0.13213225461E+00  0.20495171670E-01 0.  0.
         14    1    1    2    0    0  0.16794278114E-01 -0.15670231091E-01 -0.55190243306E-02  0.23623368714E-01  0.00000000000E+00 0. -1.
     999901    1    3    3    0    0 -0.35550887460E-01 -0.70982698044E-01 -0.90284629698E-01  0.88817437667E+00  0.88000000000E+00 0.  1.
        -11    1    4    4    0    0 -0.37097305523E-02  0.21369823658E-01  0.27308561041E-01  0.34877644575E-01  0.51100000000E-03 0.  1.
         11    1    4    4    0    0  0.22466339898E-01  0.65283105476E-01  0.68495092988E-01  0.97254610037E-01  0.51100000000E-03 0. -1.
</event>
<event>
 8    1  0.1123285E+005  0.1043930E+01  0.7957747E-01            NaN
         13   -1    0    0    0    0  0.00000000000E+00  0.00000000000E+00  0.74505805969E-08  0.10566000000E+00  0.10566000000E+00 0.  1.
     999900   -1    0    0    0    0 -0.00000000000E+00 -0.00000000000E+00 -0.74505805969E-08  0.93827000000E+00  0.93827000000E+00 0. -1.
     999902    2    1    2    0    0  0.16032776487E-02 -0.14492063367E-01  0.18228785705E-01  0.10205873560E+01  0.10203203773E+01 0.  0.
     999903    2    3    3    0    0  0.84838862841E-01 -0.98907166312E-01  0.15024015956E-01  0.13263220918E+00  0.19629611819E-01 0.  0.
         14    1    1    2    0    0 -0.16032776487E-02  0.14492063367E-01 -0.18228785705E-01  0.23342643983E-01  0.00000000000E+00 0. -1.
     999901    1    3    3    0    0 -0.83235585192E-01  0.84415102944E-01  0.32047697489E-02  0.88795514684E+00  0.88000000000E+00 0. -1.
        -11    1    4    4    0    0  0.42257606836E-01 -0.63852637429E-01  0.69130752612E-02  0.76882484174E-01  0.51100000000E-03 0. -1.
         11    1    4    4    0    0  0.42581256005E-01 -0.35054528882E-01  0.81109406947E-02  0.55749725005E-01  0.51100000000E-03 0.  1.
</event>
<event>
 8    1  0.1123285E+005  0.1043930E+01  0.7957747E-01            NaN
         13   -1    0    0    0    0  0.00000000000E+00  0.00000000000E+00  0.74505805969E-08  0.10566000000E+00  0.10566000000E+00 0. -1.
     999900   -1    0    0    0    0 -0.00000000000E+00 -0.00000000000E+00 -0.74505805969E-08  0.93827000000E+00  0.93827000000E+00 0.  1.
     999902    2    1    2    0    0 -0.73802112750E-02 -0.53154972982E-02  0.21677993285E-01  0.10204213330E+01  0.10201504984E+01 0.  0.
     999903    2    3    3    0    0  0.30199111522E-01 -0.12028356176E+00  0.40391798744E-01  0.13195069881E+00  0.19984192381E-01 0.  0.
         14    1    1    2    0    0  0.73802112750E-02  0.53154972982E-02 -0.21677993285E-01  0.23508666973E-01  0.00000000000E+00 0.  1.
     999901    1    3    3    0    0 -0.37579322797E-01  0.11496806446E+00 -0.18713805458E-01  0.88847063421E+00  0.88000000000E+00 0.  1.
        -11    1    4    4    0    0  0.21688964710E-01 -0.94933477352E-01  0.23038819560E-01  0.10006909933E+00  0.51100000000E-03 0. -1.
         11    1    4    4    0    0  0.85101468119E-02 -0.25350084407E-01  0.17352979184E-01  0.31881599485E-01  0.51100000000E-03 0.  1.
</event>
<event>
 8    1  0.1123285E+005  0.1043930E+01  0.7957747E-01            NaN
         13   -1    0    0    0    0  0.00000000000E+00  0.00000000000E+00  0.74505805969E-08  0.10566000000E+00  0.10566000000E+00 0. -1.
     999900   -1    0    0    0    0 -0.00000000000E+00 -0.00000000000E+00 -0.74505805969E-08  0.93827000000E+00  0.93827000000E+00 0. -1.
     999902    2    1    2    0    0  0.51832002689E-03  0.50426662983E-02 -0.24117318455E-01  0.10192856865E+01  0.10189877175E+01 0.  0.
     999903    2    3    3    0    0  0.91269846698E-01 -0.75785542852E-01  0.44436353766E-01  0.12829261976E+00  0.20267543669E-01 0.  0.
         14    1    1    2    0    0 -0.51832002689E-03 -0.50426662983E-02  0.24117318455E-01  0.24644313513E-01  0.00000000000E+00 0. -1.
     999901    1    3    3    0    0 -0.90751526671E-01  0.80828209150E-01 -0.68553672222E-01  0.89099306673E+00  0.88000000000E+00 0. -1.
        -11    1    4    4    0    0  0.63273023291E-01 -0.47203260323E-01  0.20103425405E-01  0.81461844415E-01  0.51100000000E-03 0. -1.
         11    1    4    4    0    0  0.27996823406E-01 -0.28582282529E-01  0.24332928361E-01  0.46830775341E-01  0.51100000000E-03 0.  1.
</event>
<event>
 8    1  0.1123285E+005  0.1043930E+01  0.7957747E-01            NaN
         13   -1    0    0    0    0  0.00000000000E+00  0.00000000000E+00  0.74505805969E-08  0.10566000000E+00  0.10566000000E+00 0.  1.
     999900   -1    0    0    0    0 -0.00000000000E+00 -0.00000000000E+00 -0.74505805969E-08  0.93827000000E+00  0.93827000000E+00 0.  1.
     999902    2    1    2    0    0  0.72686337341E-02  0.52161702276E-02  0.21502534140E-01  0.10206405079E+01  0.10203747576E+01 0.  0.
     999903    2    3    3    0    0 -0.12718129375E+00  0.20590373073E-01 -0.37675434959E-02  0.12993756867E+00  0.16447869938E-01 0.  0.
         14    1    1    2    0    0 -0.72686337341E-02 -0.52161702276E-02 -0.21502534140E-01  0.23289492108E-01  0.00000000000E+00 0. -1.
     999901    1    3    3    0    0  0.13444992748E+00 -0.15374202845E-01  0.25270077636E-01  0.89070293922E+00  0.88000000000E+00 0.  1.
        -11    1    4    4    0    0 -0.10419817537E+00  0.19845799581E-01  0.24864193813E-02  0.10610164426E+00  0.51100000000E-03 0.  1.
         11    1    4    4    0    0 -0.22983118373E-01  0.74457349170E-03 -0.62539628772E-02  0.23835924410E-01  0.51100000000E-03 0. -1.
</event>
<event>
 7    1  0.1299132E+005  0.1043930E+01  0.7957747E-01            NaN
         13   -1    0    0    0    0  0.00000000000E+00  0.00000000000E+00  0.74505805969E-08  0.10566000000E+00  0.10566000000E+00 0. -1.
     999900   -1    0    0    0    0 -0.00000000000E+00 -0.00000000000E+00 -0.74505805969E-08  0.93827000000E+00  0.93827000000E+00 0. -1.
     999903    2    1    2    0    0 -0.10630130133E-01 -0.10650720758E+00 -0.28430523262E-01  0.11237725789E+00  0.19067472416E-01 0.  0.
         14    1    1    2    0    0  0.40534828373E-01  0.70334649464E-02  0.19188691613E-01  0.45395460414E-01  0.00000000000E+00 0. -1.
     999901    1    1    2    0    0 -0.29904698240E-01  0.99473742636E-01  0.92418316492E-02  0.88615728170E+00  0.88000000000E+00 0. -1.
        -11    1    3    3    0    0  0.49471637207E-02 -0.25938044173E-01 -0.10214358490E-01  0.28316970261E-01  0.51100000000E-03 0.  1.
         11    1    3    3    0    0 -0.15577293854E-01 -0.80569163409E-01 -0.18216164772E-01  0.84060287629E-01  0.51100000000E-03 0. -1.
</event>
<event>
 8    1  0.1123285E+005  0.1043930E+01  0.7957747E-01            NaN
         13   -1    0    0    0    0  0.00000000000E+00  0.00000000000E+00  0.74505805969E-08  0.10566000000E+00  0.10566000000E+00 0.  1.
     999900   -1    0    0    0    0 -0.00000000000E+00 -0.00000000000E+00 -0.74505805969E-08  0.93827000000E+00  0.93827000000E+00 0.  1.
     999902    2    1    2    0    0  0.84248329054E-02  0.94930122996E-02 -0.20410505646E-01  0.10198949458E+01  0.10196116989E+01 0.  0.
     999903    2    3    3    0    0 -0.68590619490E-01 -0.18020680266E-01  0.10389146045E+00  0.12740440689E+00  0.20224473818E-01 0.  0.
         14    1    1    2    0    0 -0.84248329054E-02 -0.94930122996E-02  0.20410505646E-01  0.24035054248E-01  0.00000000000E+00 0.  1.
     999901    1    3    3    0    0  0.77015452395E-01  0.27513692566E-01 -0.12430196609E+00  0.89249053886E+00  0.88000000000E+00 0.  1.
        -11    1    4    4    0    0 -0.36311357704E-01 -0.16697769612E-01  0.44665443063E-01  0.59938244330E-01  0.51100000000E-03 0. -1.
         11    1    4    4    0    0 -0.32279261786E-01 -0.13229106540E-02  0.59226017385E-01  0.67466162558E-01  0.51100000000E-03 0.  1.
</event>
<event>
 8    1  0.1123285E+005  0.1043930E+01  0.7957747E-01            NaN
         13   -1    0    0    0    0  0.00000000000E+00  0.00000000000E+00  0.74505805969E-08  0.10566000000E+00  0.10566000000E+00 0.  1.
     999900   -1    0    0    0    0 -0.00000000000E+00 -0.00000000000E+00 -0.74505805969E-08  0.93827000000E+00  0.93827000000E+00 0. -1.
     999902    2    1    2    0    0  0.29359290304E-02 -0.20563383758E-01 -0.85237642130E-02  0.10214772276E+01  0.10212304341E+01 0.  0.
     999903    2    3    3    0    0  0.59761255337E-01 -0.64597742996E-01 -0.99019520454E-01  0.13392011713E+00  0.19633041047E-01 0.  0.
         14    1    1    2    0    0 -0.29359290304E-02  0.20563383758E-01  0.85237642130E-02  0.22452772372E-01  0.00000000000E+00 0.  1.
     999901    1    3    3    0    0 -0.56825326307E-01  0.44034359238E-01  0.90495756241E-01  0.88755711050E+00  0.88000000000E+00 0. -1.
        -11    1    4    4    0    0  0.39578812667E-01 -0.36835071956E-01 -0.47263820439E-01  0.71815282368E-01  0.51100000000E-03 0. -1.
         11    1    4    4    0    0  0.20182442670E-01 -0.27762671040E-01 -0.51755700014E-01  0.62104834759E-01  0.51100000000E-03 0.  1.
</event>
<event>
 8    1  0.1123285E+005  0.1043930E+01  0.7957747E-01            NaN
         13   -1    0    0    0    0  0.00000000000E+00  0.00000000000E+00  0.74505805969E-08  0.10566000000E+00  0.10566000000E+00 0.  1.
     999900   -1    0    0    0    0 -0.00000000000E+00 -0.00000000000E+00 -0.74505805969E-08  0.93827000000E+00  0.93827000000E+00 0. -1.
     999902    2    1    2    0    0 -0.18193197989E-01 -0.10369220005E-01 -0.11418035464E-01  0.10200786958E+01  0.10197998142E+01 0.  0.
     999903    2    3    3    0    0 -0.69049070971E-01  0.27200880487E-01  0.10508503687E+00  0.13015128411E+00  0.19718764718E-01 0.  0.
         14    1    1    2    0    0  0.18193197989E-01  0.10369220005E-01  0.11418035464E-01  0.23851304167E-01  0.00000000000E+00 0. -1.
     999901    1    3    3    0    0  0.50855872982E-01 -0.37570100492E-01 -0.11650307233E+00  0.88992741172E+00  0.88000000000E+00 0. -1.
        -11    1    4    4    0    0 -0.14367885190E-01 -0.22397483695E-02  0.17052277102E-01  0.22416375107E-01  0.51100000000E-03 0. -1.
         11    1    4    4    0    0 -0.54681185782E-01  0.29440628857E-01  0.88032759764E-01  0.10773490901E+00  0.51100000000E-03 0.  1.
</event>
<event>
 8    1  0.1123285E+005  0.1043930E+01  0.7957747E-01            NaN
         13   -1    0    0    0    0  0.00000000000E+00  0.00000000000E+00  0.74505805969E-08  0.10566000000E+00  0.10566000000E+00 0.  1.
     999900   -1    0    0    0    0 -0.00000000000E+00 -0.00000000000E+00 -0.74505805969E-08  0.93827000000E+00  0.93827000000E+00 0. -1.
     999902    2    1    2    0    0 -0.16688251471E-01 -0.57851321273E-02 -0.14398526414E-01  0.10211422170E+01  0.10208879196E+01 0.  0.
     999903    2    3    3    0    0 -0.58322428696E-01  0.10769409291E+00 -0.45527965512E-01  0.13233403680E+00  0.20975660042E-01 0.  0.
         14    1    1    2    0    0  0.16688251471E-01  0.57851321273E-02  0.14398526414E-01  0.22787782994E-01  0.00000000000E+00 0. -1.
     999901    1    3    3    0    0  0.41634177225E-01 -0.11347922504E+00  0.31129439098E-01  0.88880818021E+00  0.88000000000E+00 0. -1.
        -11    1    4    4    0    0 -0.10372457958E-01  0.39600943716E-01 -0.16427098392E-01  0.44112734101E-01  0.51100000000E-03 0. -1.
         11    1    4    4    0    0 -0.47949970739E-01  0.68093149195E-01 -0.29100867120E-01  0.88221302695E-01  0.51100000000E-03 0.  1.
</event>
<event>
 8    1  0.1123285E+005  0.1043930E+01  0.7957747E-01            NaN
         13   -1    0    0    0    0  0.00000000000E+00  0.00000000000E+00  0.74505805969E-08  0.10566000000E+00  0.10566000000E+00 0. -1.
     999900   -1    0    0    0    0 -0.00000000000E+00 -0.00000000000E+00 -0.74505805969E-08  0.93827000000E+00  0.93827000000E+00 0. -1.
     999902    2    1    2    0    0 -0.20476236947E-01  0.52166585632E-02  0.10633022815E-01  0.10202751700E+01  0.10200009175E+01 0.  0.
     999903    2    3    3    0    0  0.54107248027E-01  0.70810863275E-01 -0.90883504863E-01  0.12888810411E+00  0.20262262414E-01 0.  0.
         14    1    1    2    0    0  0.20476236947E-01 -0.52166585632E-02 -0.10633022815E-01  0.23654829956E-01  0.00000000000E+00 0.  1.
     999901    1    3    3    0    0 -0.74583484974E-01 -0.65594204712E-01  0.10151652768E+00  0.89138706593E+00  0.88000000000E+00 0.  1.
        -11    1    4    4    0    0  0.29876974496E-01  0.44417213854E-01 -0.40811458129E-01  0.67315367690E-01  0.51100000000E-03 0. -1.
         11    1    4    4    0    0  0.24230273531E-01  0.26393649421E-01 -0.50072046734E-01  0.61572736420E-01  0.51100000000E-03 0.  1.
</event>
<event>
 8    1  0.1123285E+005  0.1043930E+01  0.7957747E-01            NaN
         13   -1    0    0    0    0  0.00000000000E+00  0.00000000000E+00  0.74505805969E-08  0.10566000000E+00  0.10566000000E+00 0.  1.
     999900   -1    0    0    0    0 -0.00000000000E+00 -0.00000000000E+00 -0.74505805969E-08  0.93827000000E+00  0.93827000000E+00 0.  1.
     999902    2    1    2    0    0 -0.16564114317E-01  0.86457613693E-02  0.14461173017E-01  0.10203027996E+01  0.10200291948E+01 0.  0.
     999903    2    3    3    0    0  0.41139339783E-01 -0.11486571560E+00 -0.34778514566E-01  0.12844556867E+00  0.20053457044E-01 0.  0.
         14    1    1    2    0    0  0.16564114317E-01 -0.86457613693E-02 -0.14461173017E-01  0.23627200380E-01  0.00000000000E+00 0. -1.
     999901    1    3    3    0    0 -0.57703454100E-01  0.12351147697E+00  0.49239687583E-01  0.89185723095E+00  0.88000000000E+00 0. -1.
        -11    1    4    4    0    0  0.26241037275E-01 -0.66742887737E-01 -0.10365271288E-01  0.72463129043E-01  0.51100000000E-03 0. -1.
         11    1    4    4    0    0  0.14898302508E-01 -0.48122827859E-01 -0.24413243277E-01  0.55982439631E-01  0.51100000000E-03 0.  1.
</event>
<event>
 8    1  0.1123285E+005  0.1043930E+01  0.7957747E-01            NaN
         13   -1    0    0    0    0  0.00000000000E+00  0.00000000000E+00  0.74505805969E-08  0.10566000000E+00  0.10566000000E+00 0. -1.
     999900   -1    0    0    0    0 -0.00000000000E+00 -0.00000000000E+00 -0.74505805969E-08  0.93827000000E+00  0.93827000000E+00 0. -1.
     999902    2    1    2    0    0 -0.11550013151E-01  0.19886716639E-01 -0.71018803816E-02  0.10198609118E+01  0.10195768526E+01 0.  0.
     999903    2    3    3    0    0  0.82624327700E-01 -0.94343989187E-01 -0.10496778196E-01  0.12748823966E+00  0.20383843488E-01 0.  0.
         14    1    1    2    0    0  0.11550013151E-01 -0.19886716639E-01  0.71018803816E-02  0.24069088214E-01  0.00000000000E+00 0. -1.
     999901    1    3    3    0    0 -0.94174340851E-01  0.11423070583E+00  0.33948978145E-02  0.89237267213E+00  0.88000000000E+00 0.  1.
        -11    1    4    4    0    0  0.16713358795E-01 -0.96676012549E-02  0.21734670573E-02  0.19436665256E-01  0.51100000000E-03 0.  1.
         11    1    4    4    0    0  0.65910968905E-01 -0.84676387932E-01 -0.12670245253E-01  0.10805157440E+00  0.51100000000E-03 0. -1.
</event>
<event>
 8    1  0.1123285E+005  0.1043930E+01  0.7957747E-01            NaN
         13   -1    0    0    0    0  0.00000000000E+00  0.00000000000E+00  0.74505805969E-08  0.10566000000E+00  0.10566000000E+00 0.  1.
     999900   -1    0    0    0    0 -0.00000000000E+00 -0.00000000000E+00 -0.74505805969E-08  0.93827000000E+00  0.93827000000E+00 0. -1.
     999902    2    1    2    0    0  0.47884903600E-02  0.21917890157E-01  0.59676396619E-02  0.10207149990E+01  0.10204509654E+01 0.  0.
     999903    2    3    3    0    0  0.69314176902E-01  0.59666915740E-01 -0.93021130188E-01  0.13201520169E+00  0.20260475390E-01 0.  0.
         14    1    1    2    0    0 -0.47884903600E-02 -0.21917890157E-01 -0.59676396619E-02  0.23215001012E-01  0.00000000000E+00 0. -1.
     999901    1    3    3    0    0 -0.64525686542E-01 -0.37749025583E-01  0.98988769850E-01  0.88869979730E+00  0.88000000000E+00 0.  1.
        -11    1    4    4    0    0  0.14383004681E-01  0.33768214552E-02 -0.11428125055E-01  0.18685205647E-01  0.51100000000E-03 0.  1.
         11    1    4    4    0    0  0.54931172221E-01  0.56290094285E-01 -0.81593005132E-01  0.11332999605E+00  0.51100000000E-03 0. -1.
</event>
<event>
 8    1  0.1123285E+005  0.1043930E+01  0.7957747E-01            NaN
         13   -1    0    0    0    0  0.00000000000E+00  0.00000000000E+00  0.74505805969E-08  0.10566000000E+00  0.10566000000E+00 0. -1.
     999900   -1    0    0    0    0 -0.00000000000E+00 -0.00000000000E+00 -0.74505805969E-08  0.93827000000E+00  0.93827000000E+00 0.  1.
     999902    2    1    2    0    0 -0.61789504655E-02 -0.16039491289E-01 -0.16381920098E-01  0.10201852739E+01  0.10199089083E+01 0.  0.
     999903    2    3    3    0    0 -0.25732287146E-01  0.89336202481E-01  0.85299830270E-01  0.12787056030E+00  0.20777667640E-01 0.  0.
         14    1    1    2    0    0  0.61789504655E-02  0.16039491289E-01  0.16381920098E-01  0.23744726062E-01  0.00000000000E+00 0. -1.
     999901    1    3    3    0    0  0.19553336680E-01 -0.10537569377E+00 -0.10168175037E+00  0.89231471364E+00  0.88000000000E+00 0.  1.
        -11    1    4    4    0    0 -0.21112178219E-01  0.39930525562E-01  0.34351136017E-01  0.56748855561E-01  0.51100000000E-03 0.  1.
         11    1    4    4    0    0 -0.46201089269E-02  0.49405676919E-01  0.50948694253E-01  0.71121704742E-01  0.51100000000E-03 0. -1.
</event>
<event>
 8    1  0.1123285E+005  0.1043930E+01  0.7957747E-01            NaN
         13   -1    0    0    0    0  0.00000000000E+00  0.00000000000E+00  0.74505805969E-08  0.10566000000E+00  0.10566000000E+00 0.  1.
     999900   -1    0    0    0    0 -0.00000000000E+00 -0.00000000000E+00 -0.74505805969E-08  0.93827000000E+00  0.93827000000E+00 0.  1.
     999902    2    1    2    0    0 -0.10426851437E-01 -0.47277227254E-02  0.20397566687E-01  0.10205391616E+01  0.10202710665E+01 0.  0.
     999903    2    3    3    0    0 -0.10143553826E+00  0.61566352812E-02 -0.78554367333E-01  0.13026249925E+00  0.21690032356E-01 0.  0.
         14    1    1    2    0    0  0.10426851437E-01  0.47277227254E-02 -0.20397566687E-01  0.23390838373E-01  0.00000000000E+00 0. -1.
     999901    1    3    3    0    0  0.91008686824E-01 -0.10884358007E-01  0.98951934020E-01  0.89027666238E+00  0.88000000000E+00 0.  1.
        -11    1    4    4    0    0 -0.63041969184E-01  0.14176810677E-01 -0.51139536235E-01  0.82406220195E-01  0.51100000000E-03 0. -1.
         11    1    4    4    0    0 -0.38393569076E-01 -0.80201753962E-02 -0.27414831099E-01  0.47856279055E-01  0.51100000000E-03 0.  1.
</event>
<event>
 8    1  0.1123285E+005  0.1043930E+01  0.7957747E-01            NaN
         13   -1    0    0    0    0  0.00000000000E+00  0.00000000000E+00  0.74505805969E-08  0.10566000000E+00  0.10566000000E+00 0.  1.
     999900   -1    0    0    0    0 -0.00000000000E+00 -0.00000000000E+00 -0.74505805969E-08  0.93827000000E+00  0.93827000000E+00 0. -1.
     999902    2    1    2    0    0 -0.19773726139E-01 -0.11412952441E-01 -0.76289202502E-02  0.10198581045E+01  0.10195739783E+01 0.  0.
     999903    2    3    3    0    0 -0.55175706694E-01  0.20800446775E-01 -0.11590061786E+00  0.13193143871E+00  0.22269577983E-01 0.  0.
         14    1    1    2    0    0  0.19773726139E-01  0.11412952441E-01  0.76289202502E-02  0.24071895501E-01  0.00000000000E+00 0. -1.
     999901    1    3    3    0    0  0.35401980556E-01 -0.32213399216E-01  0.10827169761E+00  0.88792666579E+00  0.88000000000E+00 0.  1.
        -11    1    4    4    0    0 -0.42226791231E-01  0.20001884477E-01 -0.69494101173E-01  0.83742871333E-01  0.51100000000E-03 0. -1.
         11    1    4    4    0    0 -0.12948915464E-01  0.79856229794E-03 -0.46406516691E-01  0.48188567376E-01  0.51100000000E-03 0.  1.
</event>
<event>
 8    1  0.1123285E+005  0.1043930E+01  0.7957747E-01            NaN
         13   -1    0    0    0    0  0.00000000000E+00  0.00000000000E+00  0.74505805969E-08  0.10566000000E+00  0.10566000000E+00 0. -1.
     999900   -1    0    0    0    0 -0.00000000000E+00 -0.00000000000E+00 -0.74505805969E-08  0.93827000000E+00  0.93827000000E+00 0.  1.
     999902    2    1    2    0    0  0.35253971312E-02 -0.66693771161E-02  0.19450400950E-01  0.10230679025E+01  0.10228551735E+01 0.  0.
     999903    2    3    3    0    0  0.34893054215E-01  0.10231766582E+00  0.76515885829E-01  0.13395678737E+00  0.20082582648E-01 0.  0.
         14    1    1    2    0    0 -0.35253971312E-02  0.66693771161E-02 -0.19450400950E-01  0.20862097525E-01  0.00000000000E+00 0.  1.
     999901    1    3    3    0    0 -0.31367657084E-01 -0.10898704294E+00 -0.57065484880E-01  0.88911111511E+00  0.88000000000E+00 0.  1.
        -11    1    4    4    0    0 -0.18401237470E-02  0.15881404807E-01  0.12402037925E-01  0.20240472815E-01  0.51100000000E-03 0. -1.
         11    1    4    4    0    0  0.36733177963E-01  0.86436261017E-01  0.64113847904E-01  0.11371631455E+00  0.51100000000E-03 0.  1.
</event>
<event>
 8    1  0.1123285E+005  0.1043930E+01  0.7957747E-01            NaN
         13   -1    0    0    0    0  0.00000000000E+00  0.00000000000E+00  0.74505805969E-08  0.10566000000E+00  0.10566000000E+00 0.  1.
     999900   -1    0    0    0    0 -0.00000000000E+00 -0.00000000000E+00 -0.74505805969E-08  0.93827000000E+00  0.93827000000E+00 0. -1.
     999902    2    1    2    0    0  0.71664798945E-02  0.16770079319E-01 -0.13087198690E-01  0.10214829787E+01  0.10212363130E+01 0.  0.
     999903    2    3    3    0    0  0.18160026404E-01  0.31643131436E-01 -0.12683090230E+00  0.13396976989E+00  0.23037949996E-01 0.  0.
         14    1    1    2    0    0 -0.71664798945E-02 -0.16770079319E-01  0.13087198690E-01  0.22447021272E-01  0.00000000000E+00 0.  1.
     999901    1    3    3    0    0 -0.10993546510E-01 -0.14873052117E-01  0.11374370361E+00  0.88751320883E+00  0.88000000000E+00 0.  1.
        -11    1    4    4    0    0  0.42223973063E-02 -0.18202076671E-02 -0.33959490330E-01  0.34273165880E-01  0.51100000000E-03 0. -1.
         11    1    4    4    0    0  0.13937629098E-01  0.33463339104E-01 -0.92871411974E-01  0.99696604014E-01  0.51100000000E-03 0.  1.
</event>
