<event>
 8    1  0.1051655E+005  0.1043930E+01  0.7957747E-01            NaN
         13   -1    0    0    0    0  0.00000000000E+00  0.00000000000E+00  0.74505805969E-08  0.10566000000E+00  0.10566000000E+00 0.  1.
     999900   -1    0    0    0    0 -0.00000000000E+00 -0.00000000000E+00 -0.74505805969E-08  0.93827000000E+00  0.93827000000E+00 0. -1.
     999902    2    1    2    0    0 -0.20255778647E-01 -0.12050375228E-01 -0.46175408427E-02  0.10199127188E+01  0.10196298957E+01 0.  0.
     999903    2    3    3    0    0  0.12551795879E-01 -0.48361749777E-01  0.11824274989E+00  0.13003098291E+00  0.20743726635E-01 0.  0.
         14    1    1    2    0    0  0.20255778647E-01  0.12050375228E-01  0.46175408427E-02  0.24017281177E-01  0.00000000000E+00 0.  1.
     999901    1    3    3    0    0 -0.32807574526E-01  0.36311374549E-01 -0.12286029073E+00  0.88988173591E+00  0.88000000000E+00 0. -1.
        -11    1    4    4    0    0  0.15325257341E-01 -0.20974533878E-01  0.47912539696E-01  0.54503827068E-01  0.51100000000E-03 0. -1.
         11    1    4    4    0    0 -0.27734614620E-02 -0.27387215899E-01  0.70330210193E-01  0.75527155845E-01  0.51100000000E-03 0.  1.
</event>
<event>
 8    1  0.1051655E+005  0.1043930E+01  0.7957747E-01            NaN
         13   -1    0    0    0    0  0.00000000000E+00  0.00000000000E+00  0.74505805969E-08  0.10566000000E+00  0.10566000000E+00 0. -1.
     999900   -1    0    0    0    0 -0.00000000000E+00 -0.00000000000E+00 -0.74505805969E-08  0.93827000000E+00  0.93827000000E+00 0.  1.
     999902    2    1    2    0    0 -0.14330400431E-01 -0.12672967836E-01  0.12839808404E-01  0.10208903566E+01  0.10206303420E+01 0.  0.
     999903    2    3    3    0    0  0.60556170522E-01  0.62192192501E-01 -0.93239875363E-01  0.12821701762E+00  0.14526205706E-01 0.  0.
         14    1    1    2    0    0  0.14330400431E-01  0.12672967836E-01 -0.12839808404E-01  0.23039643447E-01  0.00000000000E+00 0.  1.
     999901    1    3    3    0    0 -0.74886570953E-01 -0.74865160337E-01  0.10607968377E+00  0.89267333894E+00  0.88000000000E+00 0. -1.
        -11    1    4    4    0    0  0.72533243372E-02  0.13863589163E-01 -0.21652464353E-01  0.26718910007E-01  0.51100000000E-03 0.  1.
         11    1    4    4    0    0  0.53302846185E-01  0.48328603338E-01 -0.71587411011E-01  0.10149810761E+00  0.51100000000E-03 0. -1.
</event>
<event>
 8    1  0.1051655E+005  0.1043930E+01  0.7957747E-01            NaN
         13   -1    0    0    0    0  0.00000000000E+00  0.00000000000E+00  0.74505805969E-08  0.10566000000E+00  0.10566000000E+00 0.  1.
     999900   -1    0    0    0    0 -0.00000000000E+00 -0.00000000000E+00 -0.74505805969E-08  0.93827000000E+00  0.93827000000E+00 0. -1.
     999902    2    1    2    0    0 -0.17057429962E-01 -0.14577653821E-01  0.79599899931E-02  0.10201219058E+01  0.10198440456E+01 0.  0.
     999903    2    3    3    0    0 -0.55847524165E-01 -0.60937109696E-01 -0.10021243908E+00  0.13144021648E+00  0.20042960542E-01 0.  0.
         14    1    1    2    0    0  0.17057429962E-01  0.14577653821E-01 -0.79599899931E-02  0.23808094181E-01  0.00000000000E+00 0. -1.
     999901    1    3    3    0    0  0.38790094203E-01  0.46359455876E-01  0.10817242908E+00  0.88868168934E+00  0.88000000000E+00 0.  1.
        -11    1    4    4    0    0 -0.15481628519E-01 -0.29342882059E-01 -0.47205619000E-01  0.57700235141E-01  0.51100000000E-03 0. -1.
         11    1    4    4    0    0 -0.40365895646E-01 -0.31594227638E-01 -0.53006820084E-01  0.73739981338E-01  0.51100000000E-03 0.  1.
</event>
<event>
 8    1  0.1051655E+005  0.1043930E+01  0.7957747E-01            NaN
         13   -1    0    0    0    0  0.00000000000E+00  0.00000000000E+00  0.74505805969E-08  0.10566000000E+00  0.10566000000E+00 0.  1.
     999900   -1    0    0    0    0 -0.00000000000E+00 -0.00000000000E+00 -0.74505805969E-08  0.93827000000E+00  0.93827000000E+00 0. -1.
     999902    2    1    2    0    0 -0.20775445687E-01 -0.12511513664E-01 -0.12477618362E-02  0.10196459718E+01  0.10193567549E+01 0.  0.
     999903    2    3    3    0    0  0.54145953192E-01  0.91972589544E-01 -0.67151671672E-01  0.12786490605E+00  0.21197776224E-01 0.  0.
         14    1    1    2    0    0  0.20775445687E-01  0.12511513664E-01  0.12477618362E-02  0.24284028234E-01  0.00000000000E+00 0. -1.
     999901    1    3    3    0    0 -0.74921398879E-01 -0.10448410321E+00  0.65903909836E-01  0.89178106571E+00  0.88000000000E+00 0.  1.
        -11    1    4    4    0    0  0.41366870311E-01  0.58973140967E-01 -0.54310949344E-01  0.90216349154E-01  0.51100000000E-03 0. -1.
         11    1    4    4    0    0  0.12779082881E-01  0.32999448577E-01 -0.12840722328E-01  0.37648556899E-01  0.51100000000E-03 0.  1.
</event>
<event>
 8    1  0.1051655E+005  0.1043930E+01  0.7957747E-01            NaN
         13   -1    0    0    0    0  0.00000000000E+00  0.00000000000E+00  0.74505805969E-08  0.10566000000E+00  0.10566000000E+00 0. -1.
     999900   -1    0    0    0    0 -0.00000000000E+00 -0.00000000000E+00 -0.74505805969E-08  0.93827000000E+00  0.93827000000E+00 0.  1.
     999902    2    1    2    0    0  0.12114092479E-01 -0.18480408888E-01 -0.84157525148E-02  0.10202846698E+01  0.10200106401E+01 0.  0.
     999903    2    3    3    0    0  0.43917239838E-01 -0.32324183945E-01 -0.11918505478E+00  0.13266260575E+00  0.20511286155E-01 0.  0.
         14    1    1    2    0    0 -0.12114092479E-01  0.18480408888E-01  0.84157525148E-02  0.23645330187E-01  0.00000000000E+00 0. -1.
     999901    1    3    3    0    0 -0.31803147358E-01  0.13843775057E-01  0.11076930226E+00  0.88762206406E+00  0.88000000000E+00 0. -1.
        -11    1    4    4    0    0  0.22818527002E-01 -0.50013441463E-02 -0.55577132204E-01  0.60289114796E-01  0.51100000000E-03 0. -1.
         11    1    4    4    0    0  0.21098712836E-01 -0.27322839799E-01 -0.63607922571E-01  0.72373490953E-01  0.51100000000E-03 0.  1.
</event>
<event>
 8    1  0.1051655E+005  0.1043930E+01  0.7957747E-01            NaN
         13   -1    0    0    0    0  0.00000000000E+00  0.00000000000E+00  0.74505805969E-08  0.10566000000E+00  0.10566000000E+00 0.  1.
     999900   -1    0    0    0    0 -0.00000000000E+00 -0.00000000000E+00 -0.74505805969E-08  0.93827000000E+00  0.93827000000E+00 0. -1.
     999902    2    1    2    0    0  0.21771930419E-01 -0.40150342935E-02 -0.79310534044E-02  0.10204132174E+01  0.10201421936E+01 0.  0.
     999903    2    3    3    0    0 -0.10459172611E+00  0.68880076318E-01 -0.19471833835E-01  0.12832877049E+00  0.20130249361E-01 0.  0.
         14    1    1    2    0    0 -0.21771930419E-01  0.40150342935E-02  0.79310534044E-02  0.23516782575E-01  0.00000000000E+00 0. -1.
     999901    1    3    3    0    0  0.12636365653E+00 -0.72895110611E-01  0.11540780431E-01  0.89208444693E+00  0.88000000000E+00 0.  1.
        -11    1    4    4    0    0 -0.87094717857E-01  0.48187241760E-01 -0.12317828954E-01  0.10029700982E+00  0.51100000000E-03 0. -1.
         11    1    4    4    0    0 -0.17497008254E-01  0.20692834558E-01 -0.71540048807E-02  0.28031760678E-01  0.51100000000E-03 0.  1.
</event>
<event>
 8    1  0.1051655E+005  0.1043930E+01  0.7957747E-01            NaN
         13   -1    0    0    0    0  0.00000000000E+00  0.00000000000E+00  0.74505805969E-08  0.10566000000E+00  0.10566000000E+00 0. -1.
     999900   -1    0    0    0    0 -0.00000000000E+00 -0.00000000000E+00 -0.74505805969E-08  0.93827000000E+00  0.93827000000E+00 0.  1.
     999902    2    1    2    0    0  0.21694045433E-01  0.59921538164E-02  0.72109244650E-02  0.10202966561E+01  0.10200229073E+01 0.  0.
     999903    2    3    3    0    0 -0.65008603730E-01 -0.70033055066E-01  0.84798997696E-01  0.12938864123E+00  0.20489097320E-01 0.  0.
         14    1    1    2    0    0 -0.21694045433E-01 -0.59921538164E-02 -0.72109244650E-02  0.23633343950E-01  0.00000000000E+00 0. -1.
     999901    1    3    3    0    0  0.86702649163E-01  0.76025208883E-01 -0.77588073231E-01  0.89090801482E+00  0.88000000000E+00 0.  1.
        -11    1    4    4    0    0 -0.36312804994E-01 -0.46811930107E-01  0.63147375017E-01  0.86590003461E-01  0.51100000000E-03 0.  1.
         11    1    4    4    0    0 -0.28695798736E-01 -0.23221124959E-01  0.21651622680E-01  0.42798637772E-01  0.51100000000E-03 0. -1.
</event>
<event>
 8    1  0.1051655E+005  0.1043930E+01  0.7957747E-01            NaN
         13   -1    0    0    0    0  0.00000000000E+00  0.00000000000E+00  0.74505805969E-08  0.10566000000E+00  0.10566000000E+00 0. -1.
     999900   -1    0    0    0    0 -0.00000000000E+00 -0.00000000000E+00 -0.74505805969E-08  0.93827000000E+00  0.93827000000E+00 0. -1.
     999902    2    1    2    0    0 -0.77503946437E-02 -0.22753350669E-01  0.21385088931E-02  0.10197979300E+01  0.10195123644E+01 0.  0.
     999903    2    3    3    0    0 -0.63075247138E-02 -0.12686769424E+00  0.33944457306E-01  0.13308856565E+00  0.20619006202E-01 0.  0.
         14    1    1    2    0    0  0.77503946437E-02  0.22753350669E-01 -0.21385088931E-02  0.24132070033E-01  0.00000000000E+00 0. -1.
     999901    1    3    3    0    0 -0.14428699299E-02  0.10411434357E+00 -0.31805948413E-01  0.88670936432E+00  0.88000000000E+00 0.  1.
        -11    1    4    4    0    0  0.66883525671E-02 -0.22020840062E-01  0.52536394035E-02  0.23611719656E-01  0.51100000000E-03 0. -1.
         11    1    4    4    0    0 -0.12995877281E-01 -0.10484685417E+00  0.28690817902E-01  0.10947684600E+00  0.51100000000E-03 0.  1.
</event>
<event>
 8    1  0.1051655E+005  0.1043930E+01  0.7957747E-01            NaN
         13   -1    0    0    0    0  0.00000000000E+00  0.00000000000E+00  0.74505805969E-08  0.10566000000E+00  0.10566000000E+00 0. -1.
     999900   -1    0    0    0    0 -0.00000000000E+00 -0.00000000000E+00 -0.74505805969E-08  0.93827000000E+00  0.93827000000E+00 0. -1.
     999902    2    1    2    0    0 -0.14120733382E-01  0.14109617478E-01  0.96138599383E-02  0.10217736754E+01  0.10215334263E+01 0.  0.
     999903    2    3    3    0    0  0.15600586866E-01  0.11453649897E+00  0.64411141421E-01  0.13387072043E+00  0.20262940094E-01 0.  0.
         14    1    1    2    0    0  0.14120733382E-01 -0.14109617478E-01 -0.96138599383E-02  0.22156324594E-01  0.00000000000E+00 0. -1.
     999901    1    3    3    0    0 -0.29721320247E-01 -0.10042688149E+00 -0.54797281483E-01  0.88790295498E+00  0.88000000000E+00 0. -1.
        -11    1    4    4    0    0  0.73563984820E-02  0.12859142669E-01  0.12601356485E-01  0.19455833446E-01  0.51100000000E-03 0. -1.
         11    1    4    4    0    0  0.82441883839E-02  0.10167735630E+00  0.51809784936E-01  0.11441488698E+00  0.51100000000E-03 0.  1.
</event>
<event>
 8    1  0.1051655E+005  0.1043930E+01  0.7957747E-01            NaN
         13   -1    0    0    0    0  0.00000000000E+00  0.00000000000E+00  0.74505805969E-08  0.10566000000E+00  0.10566000000E+00 0.  1.
     999900   -1    0    0    0    0 -0.00000000000E+00 -0.00000000000E+00 -0.74505805969E-08  0.93827000000E+00  0.93827000000E+00 0. -1.
     999902    2    1    2    0    0 -0.96448473839E-02 -0.16084320249E-01 -0.18679842437E-02  0.10250827773E+01  0.10249094997E+01 0.  0.
     999903    2    3    3    0    0  0.29660387673E-01 -0.76381223858E-01  0.10592478414E+00  0.13558859574E+00  0.21222098033E-01 0.  0.
         14    1    1    2    0    0  0.96448473839E-02  0.16084320249E-01  0.18679842437E-02  0.18847222715E-01  0.00000000000E+00 0. -1.
     999901    1    3    3    0    0 -0.39305235057E-01  0.60296903610E-01 -0.10779276838E+00  0.88949418155E+00  0.88000000000E+00 0. -1.
        -11    1    4    4    0    0  0.12318650249E-01 -0.13798030808E-01  0.33801566316E-01  0.38534942644E-01  0.51100000000E-03 0.  1.
         11    1    4    4    0    0  0.17341737424E-01 -0.62583193050E-01  0.72123217822E-01  0.97053653096E-01  0.51100000000E-03 0. -1.
</event>
<event>
 8    1  0.1051655E+005  0.1043930E+01  0.7957747E-01            NaN
         13   -1    0    0    0    0  0.00000000000E+00  0.00000000000E+00  0.74505805969E-08  0.10566000000E+00  0.10566000000E+00 0. -1.
     999900   -1    0    0    0    0 -0.00000000000E+00 -0.00000000000E+00 -0.74505805969E-08  0.93827000000E+00  0.93827000000E+00 0.  1.
     999902    2    1    2    0    0 -0.10845222142E-01  0.16206816850E-01 -0.12193246366E-01  0.10209309780E+01  0.10206718899E+01 0.  0.
     999903    2    3    3    0    0 -0.29337790923E-01 -0.11359043395E+00  0.49880027708E-01  0.12905520596E+00  0.20093191885E-01 0.  0.
         14    1    1    2    0    0  0.10845222142E-01 -0.16206816850E-01  0.12193246366E-01  0.22999021993E-01  0.00000000000E+00 0. -1.
     999901    1    3    3    0    0  0.18492568781E-01  0.12979725080E+00 -0.62073274074E-01  0.89187577205E+00  0.88000000000E+00 0.  1.
        -11    1    4    4    0    0 -0.23913099839E-01 -0.10110837937E+00  0.50289051019E-01  0.11542959107E+00  0.51100000000E-03 0.  1.
         11    1    4    4    0    0 -0.54246910840E-02 -0.12482054578E-01 -0.40902331046E-03  0.13625614882E-01  0.51100000000E-03 0. -1.
</event>
<event>
 8    1  0.1051655E+005  0.1043930E+01  0.7957747E-01            NaN
         13   -1    0    0    0    0  0.00000000000E+00  0.00000000000E+00  0.74505805969E-08  0.10566000000E+00  0.10566000000E+00 0.  1.
     999900   -1    0    0    0    0 -0.00000000000E+00 -0.00000000000E+00 -0.74505805969E-08  0.93827000000E+00  0.93827000000E+00 0.  1.
     999902    2    1    2    0    0  0.11401566265E-01  0.13175321241E-01 -0.12655933192E-01  0.10223949716E+01  0.10221681469E+01 0.  0.
     999903    2    3    3    0    0 -0.29388654848E-01 -0.10469312221E+00  0.67953633922E-01  0.12995185610E+00  0.21105583821E-01 0.  0.
         14    1    1    2    0    0 -0.11401566265E-01 -0.13175321241E-01  0.12655933192E-01  0.21535028397E-01  0.00000000000E+00 0. -1.
     999901    1    3    3    0    0  0.40790221113E-01  0.11786844345E+00 -0.80609567113E-01  0.89244311550E+00  0.88000000000E+00 0. -1.
        -11    1    4    4    0    0 -0.15424450763E-01 -0.50579698610E-01  0.20787803992E-01  0.56820889720E-01  0.51100000000E-03 0.  1.
         11    1    4    4    0    0 -0.13964204086E-01 -0.54113423602E-01  0.47165829930E-01  0.73130966380E-01  0.51100000000E-03 0. -1.
</event>
<event>
 8    1  0.1051655E+005  0.1043930E+01  0.7957747E-01            NaN
         13   -1    0    0    0    0  0.00000000000E+00  0.00000000000E+00  0.74505805969E-08  0.10566000000E+00  0.10566000000E+00 0. -1.
     999900   -1    0    0    0    0 -0.00000000000E+00 -0.00000000000E+00 -0.74505805969E-08  0.93827000000E+00  0.93827000000E+00 0.  1.
     999902    2    1    2    0    0  0.59210967835E-02 -0.16467748616E-01 -0.15774232420E-01  0.10203700225E+01  0.10200979905E+01 0.  0.
     999903    2    3    3    0    0 -0.94406764966E-01  0.84248933367E-01  0.11805853691E-01  0.12853472883E+00  0.19268582973E-01 0.  0.
         14    1    1    2    0    0 -0.59210967835E-02  0.16467748616E-01  0.15774232420E-01  0.23559977505E-01  0.00000000000E+00 0. -1.
     999901    1    3    3    0    0  0.10032786175E+00 -0.10071668198E+00 -0.27580086111E-01  0.89183529366E+00  0.88000000000E+00 0.  1.
        -11    1    4    4    0    0 -0.72861921506E-01  0.61400973548E-01  0.16731625502E-01  0.96742687429E-01  0.51100000000E-03 0.  1.
         11    1    4    4    0    0 -0.21544843460E-01  0.22847959819E-01 -0.49257718111E-02  0.31792041403E-01  0.51100000000E-03 0. -1.
</event>
<event>
 8    1  0.1051655E+005  0.1043930E+01  0.7957747E-01            NaN
         13   -1    0    0    0    0  0.00000000000E+00  0.00000000000E+00  0.74505805969E-08  0.10566000000E+00  0.10566000000E+00 0. -1.
     999900   -1    0    0    0    0 -0.00000000000E+00 -0.00000000000E+00 -0.74505805969E-08  0.93827000000E+00  0.93827000000E+00 0. -1.
     999902    2    1    2    0    0  0.12226392455E-01  0.10021667360E-01  0.16928942685E-01  0.10207673665E+01  0.10205045365E+01 0.  0.
     999903    2    3    3    0    0  0.11071052973E+00 -0.47027431249E-01  0.52619649041E-01  0.13272032302E+00  0.19428226783E-01 0.  0.
         14    1    1    2    0    0 -0.12226392455E-01 -0.10021667360E-01 -0.16928942685E-01  0.23162633477E-01  0.00000000000E+00 0.  1.
     999901    1    3    3    0    0 -0.98484137273E-01  0.57049098610E-01 -0.35690706357E-01  0.88804704350E+00  0.88000000000E+00 0.  1.
        -11    1    4    4    0    0  0.47803047646E-01 -0.14002395405E-01  0.30024307749E-01  0.58162862878E-01  0.51100000000E-03 0. -1.
         11    1    4    4    0    0  0.62907482082E-01 -0.33025035845E-01  0.22595341292E-01  0.74557460147E-01  0.51100000000E-03 0.  1.
</event>
<event>
 8    1  0.1051655E+005  0.1043930E+01  0.7957747E-01            NaN
         13   -1    0    0    0    0  0.00000000000E+00  0.00000000000E+00  0.74505805969E-08  0.10566000000E+00  0.10566000000E+00 0. -1.
     999900   -1    0    0    0    0 -0.00000000000E+00 -0.00000000000E+00 -0.74505805969E-08  0.93827000000E+00  0.93827000000E+00 0.  1.
     999902    2    1    2    0    0 -0.63854966115E-02 -0.10001374989E-01  0.24512097324E-01  0.10166968404E+01  0.10163320423E+01 0.  0.
     999903    2    3    3    0    0 -0.12497975589E+00  0.15901330822E-01 -0.67099287546E-02  0.12781531653E+00  0.20468030948E-01 0.  0.
         14    1    1    2    0    0  0.63854966115E-02  0.10001374989E-01 -0.24512097324E-01  0.27233159638E-01  0.00000000000E+00 0.  1.
     999901    1    3    3    0    0  0.11859425928E+00 -0.25902705812E-01  0.31222026078E-01  0.88888152383E+00  0.88000000000E+00 0.  1.
        -11    1    4    4    0    0 -0.44348101703E-01 -0.29619254120E-02  0.23435630822E-02  0.44511577547E-01  0.51100000000E-03 0.  1.
         11    1    4    4    0    0 -0.80631654187E-01  0.18863256234E-01 -0.90534918367E-02  0.83303738981E-01  0.51100000000E-03 0. -1.
</event>
<event>
 8    1  0.1051655E+005  0.1043930E+01  0.7957747E-01            NaN
         13   -1    0    0    0    0  0.00000000000E+00  0.00000000000E+00  0.74505805969E-08  0.10566000000E+00  0.10566000000E+00 0. -1.
     999900   -1    0    0    0    0 -0.00000000000E+00 -0.00000000000E+00 -0.74505805969E-08  0.93827000000E+00  0.93827000000E+00 0. -1.
     999902    2    1    2    0    0 -0.12683287829E-01  0.18413639767E-02  0.22681947527E-01  0.10178776075E+01  0.10175441498E+01 0.  0.
     999903    2    3    3    0    0 -0.30982976204E-01  0.86238528160E-02 -0.12033378230E+00  0.12611845855E+00  0.19782082126E-01 0.  0.
         14    1    1    2    0    0  0.12683287829E-01 -0.18413639767E-02 -0.22681947527E-01  0.26052392502E-01  0.00000000000E+00 0.  1.
     999901    1    3    3    0    0  0.18299688375E-01 -0.67824888393E-02  0.14301572983E+00  0.89175914895E+00  0.88000000000E+00 0.  1.
        -11    1    4    4    0    0 -0.15048499563E-01  0.14180747489E-01 -0.72490578326E-01  0.75383658743E-01  0.51100000000E-03 0.  1.
         11    1    4    4    0    0 -0.15934476641E-01 -0.55568946732E-02 -0.47843203974E-01  0.50734799810E-01  0.51100000000E-03 0. -1.
</event>
<event>
 8    1  0.1051655E+005  0.1043930E+01  0.7957747E-01            NaN
         13   -1    0    0    0    0  0.00000000000E+00  0.00000000000E+00  0.74505805969E-08  0.10566000000E+00  0.10566000000E+00 0.  1.
     999900   -1    0    0    0    0 -0.00000000000E+00 -0.00000000000E+00 -0.74505805969E-08  0.93827000000E+00  0.93827000000E+00 0.  1.
     999902    2    1    2    0    0 -0.13844926730E-01  0.18833112015E-01  0.15125778915E-03  0.10205549923E+01  0.10202872642E+01 0.  0.
     999903    2    3    3    0    0  0.63710741272E-01  0.11208214747E+00  0.19931866818E-01  0.13201600234E+00  0.20235592968E-01 0.  0.
         14    1    1    2    0    0  0.13844926730E-01 -0.18833112015E-01 -0.15125778915E-03  0.23375007663E-01  0.00000000000E+00 0.  1.
     999901    1    3    3    0    0 -0.77555668002E-01 -0.93249035460E-01 -0.19780609029E-01  0.88853899000E+00  0.88000000000E+00 0. -1.
        -11    1    4    4    0    0  0.49140357820E-01  0.89542820263E-01  0.23846291824E-01  0.10488850357E+00  0.51100000000E-03 0. -1.
         11    1    4    4    0    0  0.14570383452E-01  0.22539327212E-01 -0.39144250060E-02  0.27127498765E-01  0.51100000000E-03 0.  1.
</event>
<event>
 8    1  0.1051655E+005  0.1043930E+01  0.7957747E-01            NaN
         13   -1    0    0    0    0  0.00000000000E+00  0.00000000000E+00  0.74505805969E-08  0.10566000000E+00  0.10566000000E+00 0. -1.
     999900   -1    0    0    0    0 -0.00000000000E+00 -0.00000000000E+00 -0.74505805969E-08  0.93827000000E+00  0.93827000000E+00 0.  1.
     999902    2    1    2    0    0 -0.53676972755E-02 -0.26875839794E-02 -0.18444875091E-01  0.10245328688E+01  0.10243492327E+01 0.  0.
     999903    2    3    3    0    0 -0.10861006138E+00  0.76121441334E-01 -0.11247373137E-01  0.13497025029E+00  0.22357231442E-01 0.  0.
         14    1    1    2    0    0  0.53676972755E-02  0.26875839794E-02  0.18444875091E-01  0.19397131201E-01  0.00000000000E+00 0. -1.
     999901    1    3    3    0    0  0.10324236410E+00 -0.78809025313E-01 -0.71975019545E-02  0.88956261851E+00  0.88000000000E+00 0.  1.
        -11    1    4    4    0    0 -0.19157813325E-01  0.15009517540E-01 -0.10806511507E-01  0.26633611098E-01  0.51100000000E-03 0.  1.
         11    1    4    4    0    0 -0.89452248052E-01  0.61111923793E-01 -0.44086162954E-03  0.10833663919E+00  0.51100000000E-03 0. -1.
</event>
<event>
 8    1  0.1051655E+005  0.1043930E+01  0.7957747E-01            NaN
         13   -1    0    0    0    0  0.00000000000E+00  0.00000000000E+00  0.74505805969E-08  0.10566000000E+00  0.10566000000E+00 0.  1.
     999900   -1    0    0    0    0 -0.00000000000E+00 -0.00000000000E+00 -0.74505805969E-08  0.93827000000E+00  0.93827000000E+00 0.  1.
     999902    2    1    2    0    0  0.11175612663E-01 -0.28591569843E-03 -0.17132284546E-01  0.10234729416E+01  0.10232684745E+01 0.  0.
     999903    2    3    3    0    0 -0.45852599282E-01  0.12052014834E+00 -0.27385752627E-01  0.13333168554E+00  0.19994796956E-01 0.  0.
         14    1    1    2    0    0 -0.11175612663E-01  0.28591569843E-03  0.17132284546E-01  0.20457058438E-01  0.00000000000E+00 0.  1.
     999901    1    3    3    0    0  0.57028211946E-01 -0.12080606404E+00  0.10253468081E-01  0.89014125602E+00  0.88000000000E+00 0. -1.
        -11    1    4    4    0    0 -0.14140639263E-01  0.16477653135E-01 -0.46613745159E-02  0.22213965539E-01  0.51100000000E-03 0.  1.
         11    1    4    4    0    0 -0.31711960019E-01  0.10404249520E+00 -0.22724378111E-01  0.11111772000E+00  0.51100000000E-03 0. -1.
</event>
<event>
 8    1  0.1051655E+005  0.1043930E+01  0.7957747E-01            NaN
         13   -1    0    0    0    0  0.00000000000E+00  0.00000000000E+00  0.74505805969E-08  0.10566000000E+00  0.10566000000E+00 0.  1.
     999900   -1    0    0    0    0 -0.00000000000E+00 -0.00000000000E+00 -0.74505805969E-08  0.93827000000E+00  0.93827000000E+00 0. -1.
     999902    2    1    2    0    0  0.10620890093E-01  0.16979296516E-01 -0.12076849018E-01  0.10205430357E+01  0.10202750304E+01 0.  0.
     999903    2    3    3    0    0 -0.60697485620E-01  0.62909079946E-01 -0.97320820792E-01  0.13236377990E+00  0.20176495494E-01 0.  0.
         14    1    1    2    0    0 -0.10620890093E-01 -0.16979296516E-01  0.12076849018E-01  0.23386964291E-01  0.00000000000E+00 0. -1.
     999901    1    3    3    0    0  0.71318375713E-01 -0.45929783430E-01  0.85243971774E-01  0.88817925581E+00  0.88000000000E+00 0.  1.
        -11    1    4    4    0    0 -0.41909503842E-01  0.42663642326E-01 -0.79521200324E-01  0.99501132208E-01  0.51100000000E-03 0. -1.
         11    1    4    4    0    0 -0.18787981777E-01  0.20245437620E-01 -0.17799620468E-01  0.32862647695E-01  0.51100000000E-03 0.  1.
</event>
<event>
 7    1  0.1051655E+005  0.1043930E+01  0.7957747E-01            NaN
         13   -1    0    0    0    0  0.00000000000E+00  0.00000000000E+00  0.74505805969E-08  0.10566000000E+00  0.10566000000E+00 0.  1.
     999900   -1    0    0    0    0 -0.00000000000E+00 -0.00000000000E+00 -0.74505805969E-08  0.93827000000E+00  0.93827000000E+00 0. -1.
     999902    2    1    2    0    0  0.20754277569E-01 -0.86022899852E-02 -0.16017276888E-02  0.10214065686E+01  0.10211582020E+01 0.  0.
         14    1    1    2    0    0 -0.20754277569E-01  0.86022899852E-02  0.16017276888E-02  0.22523431399E-01  0.00000000000E+00 0.  1.
     999901    1    3    3    0    0 -0.60522830304E-01 -0.11277226903E+00 -0.11858142986E-03  0.88925846170E+00  0.88000000000E+00 0. -1.
        -11    1    3    3    0    0  0.42694279382E-01  0.55737083821E-01 -0.30211600161E-03  0.70212366432E-01  0.51100000000E-03 0.  1.
         11    1    3    3    0    0  0.38582828490E-01  0.48432895219E-01 -0.11810302573E-02  0.61935740466E-01  0.51100000000E-03 0. -1.
</event>
<event>
 8    1  0.1051655E+005  0.1043930E+01  0.7957747E-01            NaN
         13   -1    0    0    0    0  0.00000000000E+00  0.00000000000E+00  0.74505805969E-08  0.10566000000E+00  0.10566000000E+00 0.  1.
     999900   -1    0    0    0    0 -0.00000000000E+00 -0.00000000000E+00 -0.74505805969E-08  0.93827000000E+00  0.93827000000E+00 0. -1.
     999902    2    1    2    0    0 -0.22007654563E-01 -0.44345720101E-02  0.63423136140E-03  0.10214710477E+01  0.10212241168E+01 0.  0.
     999903    2    3    3    0    0  0.40329485952E-01  0.11569966783E+00 -0.38883050373E-01  0.13024729903E+00  0.20966323585E-01 0.  0.
         14    1    1    2    0    0  0.22007654563E-01  0.44345720101E-02 -0.63423136140E-03  0.22458952284E-01  0.00000000000E+00 0.  1.
     999901    1    3    3    0    0 -0.62337140515E-01 -0.12013423984E+00  0.39517281734E-01  0.89122374869E+00  0.88000000000E+00 0. -1.
        -11    1    4    4    0    0  0.39136297399E-01  0.84972910899E-01 -0.29224163442E-01  0.98012030948E-01  0.51100000000E-03 0.  1.
         11    1    4    4    0    0  0.11931885529E-02  0.30726756931E-01 -0.96588869312E-02  0.32235268079E-01  0.51100000000E-03 0. -1.
</event>
<event>
 8    1  0.1051655E+005  0.1043930E+01  0.7957747E-01            NaN
         13   -1    0    0    0    0  0.00000000000E+00  0.00000000000E+00  0.74505805969E-08  0.10566000000E+00  0.10566000000E+00 0.  1.
     999900   -1    0    0    0    0 -0.00000000000E+00 -0.00000000000E+00 -0.74505805969E-08  0.93827000000E+00  0.93827000000E+00 0. -1.
     999902    2    1    2    0    0 -0.12763067779E-01  0.64860971121E-02 -0.19637099286E-01  0.10196281272E+01  0.10193384799E+01 0.  0.
     999903    2    3    3    0    0  0.21823099825E-01  0.12217552455E+00  0.33052615426E-01  0.12982115223E+00  0.18919558524E-01 0.  0.
         14    1    1    2    0    0  0.12763067779E-01 -0.64860971121E-02  0.19637099286E-01  0.24301872834E-01  0.00000000000E+00 0.  1.
     999901    1    3    3    0    0 -0.34586167604E-01 -0.11568942744E+00 -0.52689714712E-01  0.88980697494E+00  0.88000000000E+00 0. -1.
        -11    1    4    4    0    0  0.40922971003E-02  0.16290737177E-01 -0.19065544686E-02  0.16912453526E-01  0.51100000000E-03 0. -1.
         11    1    4    4    0    0  0.17730802725E-01  0.10588478737E+00  0.34959169894E-01  0.11290869870E+00  0.51100000000E-03 0.  1.
</event>
<event>
 8    1  0.1051655E+005  0.1043930E+01  0.7957747E-01            NaN
         13   -1    0    0    0    0  0.00000000000E+00  0.00000000000E+00  0.74505805969E-08  0.10566000000E+00  0.10566000000E+00 0.  1.
     999900   -1    0    0    0    0 -0.00000000000E+00 -0.00000000000E+00 -0.74505805969E-08  0.93827000000E+00  0.93827000000E+00 0.  1.
     999902    2    1    2    0    0  0.19027654667E-01 -0.57017775789E-02 -0.90128244943E-02  0.10221173221E+01  0.10218845470E+01 0.  0.
     999903    2    3    3    0    0  0.10821378254E+00 -0.48520601475E-01  0.58683058546E-01  0.13398988216E+00  0.21097764356E-01 0.  0.
         14    1    1    2    0    0 -0.19027654667E-01  0.57017775789E-02  0.90128244943E-02  0.21812677852E-01  0.00000000000E+00 0. -1.
     999901    1    3    3    0    0 -0.89186127874E-01  0.42818823897E-01 -0.67695883040E-01  0.88812743999E+00  0.88000000000E+00 0.  1.
        -11    1    4    4    0    0  0.27741761409E-01 -0.52089514107E-02  0.20772518710E-01  0.35049923758E-01  0.51100000000E-03 0.  1.
         11    1    4    4    0    0  0.80472021132E-01 -0.43311650065E-01  0.37910539835E-01  0.98939958399E-01  0.51100000000E-03 0. -1.
</event>
<event>
 8    1  0.1051655E+005  0.1043930E+01  0.7957747E-01            NaN
         13   -1    0    0    0    0  0.00000000000E+00  0.00000000000E+00  0.74505805969E-08  0.10566000000E+00  0.10566000000E+00 0. -1.
     999900   -1    0    0    0    0 -0.00000000000E+00 -0.00000000000E+00 -0.74505805969E-08  0.93827000000E+00  0.93827000000E+00 0. -1.
     999902    2    1    2    0    0  0.17009031473E-01  0.32210776400E-02  0.15324161039E-01  0.10208104757E+01  0.10205486343E+01 0.  0.
     999903    2    3    3    0    0 -0.92921383068E-01  0.30017153434E-01  0.84762147591E-01  0.13085297126E+00  0.20061542583E-01 0.  0.
         14    1    1    2    0    0 -0.17009031473E-01 -0.32210776400E-02 -0.15324161039E-01  0.23119524311E-01  0.00000000000E+00 0. -1.
     999901    1    3    3    0    0  0.10993041454E+00 -0.26796075794E-01 -0.69437986552E-01  0.88995750443E+00  0.88000000000E+00 0. -1.
        -11    1    4    4    0    0 -0.39742108873E-01  0.68286211095E-02  0.24425171185E-01  0.47147803685E-01  0.51100000000E-03 0.  1.
         11    1    4    4    0    0 -0.53179274195E-01  0.23188532325E-01  0.60336976406E-01  0.83705167571E-01  0.51100000000E-03 0. -1.
</event>
<event>
 8    1  0.1051655E+005  0.1043930E+01  0.7957747E-01            NaN
         13   -1    0    0    0    0  0.00000000000E+00  0.00000000000E+00  0.74505805969E-08  0.10566000000E+00  0.10566000000E+00 0. -1.
     999900   -1    0    0    0    0 -0.00000000000E+00 -0.00000000000E+00 -0.74505805969E-08  0.93827000000E+00  0.93827000000E+00 0. -1.
     999902    2    1    2    0    0 -0.83498972550E-02  0.12233893516E-01 -0.16564201737E-01  0.10217092504E+01  0.10214675867E+01 0.  0.
     999903    2    3    3    0    0 -0.81226016047E-01 -0.79418596531E-01 -0.65304228390E-01  0.13261606188E+00  0.20430332011E-01 0.  0.
         14    1    1    2    0    0  0.83498972550E-02 -0.12233893516E-01  0.16564201737E-01  0.22220749626E-01  0.00000000000E+00 0. -1.
     999901    1    3    3    0    0  0.72876118792E-01  0.91652490047E-01  0.48740026653E-01  0.88909318849E+00  0.88000000000E+00 0.  1.
        -11    1    4    4    0    0 -0.19113706608E-01 -0.17161463329E-01 -0.25098830579E-01  0.35917433390E-01  0.51100000000E-03 0. -1.
         11    1    4    4    0    0 -0.62112309439E-01 -0.62257133203E-01 -0.40205397811E-01  0.96698628494E-01  0.51100000000E-03 0.  1.
</event>
<event>
 8    1  0.1051655E+005  0.1043930E+01  0.7957747E-01            NaN
         13   -1    0    0    0    0  0.00000000000E+00  0.00000000000E+00  0.74505805969E-08  0.10566000000E+00  0.10566000000E+00 0. -1.
     999900   -1    0    0    0    0 -0.00000000000E+00 -0.00000000000E+00 -0.74505805969E-08  0.93827000000E+00  0.93827000000E+00 0.  1.
     999902    2    1    2    0    0  0.32911490776E-02  0.11547529673E-01  0.10194951950E-01  0.10281783604E+01  0.10280576962E+01 0.  0.
     999903    2    3    3    0    0 -0.64153102994E-01 -0.11553983171E+00 -0.23985665731E-01  0.13583972562E+00  0.20298905358E-01 0.  0.
         14    1    1    2    0    0 -0.32911490776E-02 -0.11547529673E-01 -0.10194951950E-01  0.15751639567E-01  0.00000000000E+00 0.  1.
     999901    1    3    3    0    0  0.67444252072E-01  0.12708736139E+00  0.34180617681E-01  0.89233863482E+00  0.88000000000E+00 0.  1.
        -11    1    4    4    0    0 -0.30429694803E-01 -0.51879834245E-01 -0.78245134355E-03  0.60152779472E-01  0.51100000000E-03 0.  1.
         11    1    4    4    0    0 -0.33723408191E-01 -0.63659997468E-01 -0.23203214388E-01  0.75686946144E-01  0.51100000000E-03 0. -1.
</event>
<event>
 8    1  0.1051655E+005  0.1043930E+01  0.7957747E-01            NaN
         13   -1    0    0    0    0  0.00000000000E+00  0.00000000000E+00  0.74505805969E-08  0.10566000000E+00  0.10566000000E+00 0.  1.
     999900   -1    0    0    0    0 -0.00000000000E+00 -0.00000000000E+00 -0.74505805969E-08  0.93827000000E+00  0.93827000000E+00 0.  1.
     999902    2    1    2    0    0  0.19419397158E-01  0.21352148920E-02  0.13099361798E-01  0.10204084055E+01  0.10201372695E+01 0.  0.
     999903    2    3    3    0    0  0.69648335324E-01 -0.11017952055E+00  0.73001713587E-02  0.13183022850E+00  0.18316639448E-01 0.  0.
         14    1    1    2    0    0 -0.19419397158E-01 -0.21352148920E-02 -0.13099361798E-01  0.23521594507E-01  0.00000000000E+00 0. -1.
     999901    1    3    3    0    0 -0.50228938165E-01  0.11231473544E+00  0.57991904390E-02  0.88857817700E+00  0.88000000000E+00 0. -1.
        -11    1    4    4    0    0  0.28128775436E-01 -0.49759402893E-01  0.11847567874E-01  0.58376811915E-01  0.51100000000E-03 0. -1.
         11    1    4    4    0    0  0.41519559887E-01 -0.60420117659E-01 -0.45473965158E-02  0.73453416580E-01  0.51100000000E-03 0.  1.
</event>
<event>
 8    1  0.1051655E+005  0.1043930E+01  0.7957747E-01            NaN
         13   -1    0    0    0    0  0.00000000000E+00  0.00000000000E+00  0.74505805969E-08  0.10566000000E+00  0.10566000000E+00 0. -1.
     999900   -1    0    0    0    0 -0.00000000000E+00 -0.00000000000E+00 -0.74505805969E-08  0.93827000000E+00  0.93827000000E+00 0.  1.
     999902    2    1    2    0    0  0.86349271388E-02  0.67032650070E-02 -0.21194286479E-01  0.10200827044E+01  0.10198039176E+01 0.  0.
     999903    2    3    3    0    0 -0.50154735336E-01 -0.28303384307E-01 -0.11738880903E+00  0.13220034953E+00  0.19499253546E-01 0.  0.
         14    1    1    2    0    0 -0.86349271388E-02 -0.67032650070E-02  0.21194286479E-01  0.23847295608E-01  0.00000000000E+00 0. -1.
     999901    1    3    3    0    0  0.58789662475E-01  0.35006649314E-01  0.96194522556E-01  0.88788235486E+00  0.88000000000E+00 0. -1.
        -11    1    4    4    0    0 -0.30406615968E-03 -0.59915960763E-02 -0.90089292591E-02  0.10835755957E-01  0.51100000000E-03 0. -1.
         11    1    4    4    0    0 -0.49850669176E-01 -0.22311788231E-01 -0.10837987978E+00  0.12136459357E+00  0.51100000000E-03 0.  1.
</event>
<event>
 8    1  0.1051655E+005  0.1043930E+01  0.7957747E-01            NaN
         13   -1    0    0    0    0  0.00000000000E+00  0.00000000000E+00  0.74505805969E-08  0.10566000000E+00  0.10566000000E+00 0. -1.
     999900   -1    0    0    0    0 -0.00000000000E+00 -0.00000000000E+00 -0.74505805969E-08  0.93827000000E+00  0.93827000000E+00 0.  1.
     999902    2    1    2    0    0 -0.20653728300E-01  0.10135198186E-01  0.14861721661E-02  0.10208755548E+01  0.10206152022E+01 0.  0.
     999903    2    3    3    0    0  0.83041826368E-01 -0.94306185171E-01 -0.19466963634E-01  0.12840717750E+00  0.17884045175E-01 0.  0.
         14    1    1    2    0    0  0.20653728300E-01 -0.10135198186E-01 -0.14861721661E-02  0.23054445182E-01  0.00000000000E+00 0.  1.
     999901    1    3    3    0    0 -0.10369555467E+00  0.10444138336E+00  0.20953135800E-01  0.89246837732E+00  0.88000000000E+00 0. -1.
        -11    1    4    4    0    0  0.15150794050E-01 -0.80876705261E-02 -0.25906492216E-02  0.17376120374E-01  0.51100000000E-03 0. -1.
         11    1    4    4    0    0  0.67891032319E-01 -0.86218514645E-01 -0.16876314412E-01  0.11103105712E+00  0.51100000000E-03 0.  1.
</event>
<event>
 8    1  0.1051655E+005  0.1043930E+01  0.7957747E-01            NaN
         13   -1    0    0    0    0  0.00000000000E+00  0.00000000000E+00  0.74505805969E-08  0.10566000000E+00  0.10566000000E+00 0. -1.
     999900   -1    0    0    0    0 -0.00000000000E+00 -0.00000000000E+00 -0.74505805969E-08  0.93827000000E+00  0.93827000000E+00 0. -1.
     999902    2    1    2    0    0  0.10329795035E-01  0.14187236724E-01 -0.15518873006E-01  0.10205031400E+01  0.10202342089E+01 0.  0.
     999903    2    3    3    0    0 -0.20399822718E-01 -0.46462724839E-02 -0.12925246825E+00  0.13245227366E+00  0.19991589064E-01 0.  0.
         14    1    1    2    0    0 -0.10329795035E-01 -0.14187236724E-01  0.15518873006E-01  0.23426860027E-01  0.00000000000E+00 0. -1.
     999901    1    3    3    0    0  0.30729617752E-01  0.18833509208E-01  0.11373359524E+00  0.88805086632E+00  0.88000000000E+00 0.  1.
        -11    1    4    4    0    0 -0.12226376921E-01 -0.12494735571E-01 -0.83833655647E-01  0.85638458941E-01  0.51100000000E-03 0.  1.
         11    1    4    4    0    0 -0.81734457966E-02  0.78484630874E-02 -0.45418812604E-01  0.46813814717E-01  0.51100000000E-03 0. -1.
</event>
<event>
 8    1  0.1051655E+005  0.1043930E+01  0.7957747E-01            NaN
         13   -1    0    0    0    0  0.00000000000E+00  0.00000000000E+00  0.74505805969E-08  0.10566000000E+00  0.10566000000E+00 0.  1.
     999900   -1    0    0    0    0 -0.00000000000E+00 -0.00000000000E+00 -0.74505805969E-08  0.93827000000E+00  0.93827000000E+00 0.  1.
     999902    2    1    2    0    0  0.21874457731E-02 -0.23860414098E-01 -0.10576963698E-02  0.10199461929E+01  0.10196641670E+01 0.  0.
     999903    2    3    3    0    0  0.10854452014E+00  0.96443845539E-02  0.67969765967E-01  0.13022759171E+00  0.21550163624E-01 0.  0.
         14    1    1    2    0    0 -0.21874457731E-02  0.23860414098E-01  0.10576963698E-02  0.23983807069E-01  0.00000000000E+00 0.  1.
     999901    1    3    3    0    0 -0.10635707436E+00 -0.33504798651E-01 -0.69027462337E-01  0.88971860122E+00  0.88000000000E+00 0. -1.
        -11    1    4    4    0    0  0.46839212588E-01  0.27307498722E-03  0.40936810350E-01  0.62209886421E-01  0.51100000000E-03 0. -1.
         11    1    4    4    0    0  0.61705307548E-01  0.93713095667E-02  0.27032955617E-01  0.68017705290E-01  0.51100000000E-03 0.  1.
</event>
<event>
 8    1  0.1051655E+005  0.1043930E+01  0.7957747E-01            NaN
         13   -1    0    0    0    0  0.00000000000E+00  0.00000000000E+00  0.74505805969E-08  0.10566000000E+00  0.10566000000E+00 0.  1.
     999900   -1    0    0    0    0 -0.00000000000E+00 -0.00000000000E+00 -0.74505805969E-08  0.93827000000E+00  0.93827000000E+00 0.  1.
     999902    2    1    2    0    0  0.14087154282E-01 -0.11575298370E-01 -0.24452727967E-01  0.10134280107E+01  0.10129688847E+01 0.  0.
     999903    2    3    3    0    0  0.78862837142E-01  0.62082580457E-01 -0.74368908987E-01  0.12657233057E+00  0.20401626471E-01 0.  0.
         14    1    1    2    0    0 -0.14087154282E-01  0.11575298370E-01  0.24452727967E-01  0.30501989331E-01  0.00000000000E+00 0.  1.
     999901    1    3    3    0    0 -0.64775682860E-01 -0.73657878827E-01  0.49916181020E-01  0.88685568010E+00  0.88000000000E+00 0. -1.
        -11    1    4    4    0    0  0.39907293438E-01  0.36627777256E-01 -0.28419375982E-01  0.61172773261E-01  0.51100000000E-03 0.  1.
         11    1    4    4    0    0  0.38955543705E-01  0.25454803201E-01 -0.45949533005E-01  0.65399557305E-01  0.51100000000E-03 0. -1.
</event>
<event>
 8    1  0.1051655E+005  0.1043930E+01  0.7957747E-01            NaN
         13   -1    0    0    0    0  0.00000000000E+00  0.00000000000E+00  0.74505805969E-08  0.10566000000E+00  0.10566000000E+00 0.  1.
     999900   -1    0    0    0    0 -0.00000000000E+00 -0.00000000000E+00 -0.74505805969E-08  0.93827000000E+00  0.93827000000E+00 0.  1.
     999902    2    1    2    0    0  0.82452870425E-02 -0.15432420327E-01 -0.15994050860E-01  0.10202244306E+01  0.10199489864E+01 0.  0.
     999903    2    3    3    0    0  0.35220103638E-01 -0.74480641513E-01 -0.10314126146E+00  0.13354017485E+00  0.20175153610E-01 0.  0.
         14    1    1    2    0    0 -0.82452870425E-02  0.15432420327E-01  0.15994050860E-01  0.23705569355E-01  0.00000000000E+00 0.  1.
     999901    1    3    3    0    0 -0.26974816596E-01  0.59048221187E-01  0.87147210600E-01  0.88668425579E+00  0.88000000000E+00 0. -1.
        -11    1    4    4    0    0  0.15545026850E-01 -0.22633655767E-01 -0.21656416118E-01  0.34974157791E-01  0.51100000000E-03 0.  1.
         11    1    4    4    0    0  0.19675076789E-01 -0.51846985747E-01 -0.81484845342E-01  0.98566017060E-01  0.51100000000E-03 0. -1.
</event>
<event>
 8    1  0.1051655E+005  0.1043930E+01  0.7957747E-01            NaN
         13   -1    0    0    0    0  0.00000000000E+00  0.00000000000E+00  0.74505805969E-08  0.10566000000E+00  0.10566000000E+00 0.  1.
     999900   -1    0    0    0    0 -0.00000000000E+00 -0.00000000000E+00 -0.74505805969E-08  0.93827000000E+00  0.93827000000E+00 0. -1.
     999902    2    1    2    0    0 -0.16649118727E-01 -0.12299667101E-01  0.20985582177E-02  0.10231242577E+01  0.10229126883E+01 0.  0.
     999903    2    3    3    0    0  0.79070703914E-01  0.92341830158E-01 -0.43518950646E-01  0.13060362238E+00  0.19601461652E-01 0.  0.
         14    1    1    2    0    0  0.16649118727E-01  0.12299667101E-01 -0.20985582177E-02  0.20805742279E-01  0.00000000000E+00 0. -1.
     999901    1    3    3    0    0 -0.95719822641E-01 -0.10464149726E+00  0.45617508863E-01  0.89252063534E+00  0.88000000000E+00 0.  1.
        -11    1    4    4    0    0  0.75736022857E-01  0.88939232886E-01 -0.45570119477E-01  0.12539150376E+00  0.51100000000E-03 0.  1.
         11    1    4    4    0    0  0.33346810573E-02  0.34025972717E-02  0.20511688313E-02  0.52121186213E-02  0.51100000000E-03 0. -1.
</event>
<event>
 8    1  0.1051655E+005  0.1043930E+01  0.7957747E-01            NaN
         13   -1    0    0    0    0  0.00000000000E+00  0.00000000000E+00  0.74505805969E-08  0.10566000000E+00  0.10566000000E+00 0. -1.
     999900   -1    0    0    0    0 -0.00000000000E+00 -0.00000000000E+00 -0.74505805969E-08  0.93827000000E+00  0.93827000000E+00 0. -1.
     999902    2    1    2    0    0 -0.16071392458E-01 -0.26822815964E-03  0.17485345941E-01  0.10201792332E+01  0.10199027252E+01 0.  0.
     999903    2    3    3    0    0 -0.43193145441E-01 -0.64349978376E-01  0.10601803774E+00  0.13300388540E+00  0.21062803129E-01 0.  0.
         14    1    1    2    0    0  0.16071392458E-01  0.26822815964E-03 -0.17485345941E-01  0.23750766820E-01  0.00000000000E+00 0.  1.
     999901    1    3    3    0    0  0.27121752984E-01  0.64081750216E-01 -0.88532691794E-01  0.88717534778E+00  0.88000000000E+00 0. -1.
        -11    1    4    4    0    0 -0.31291134022E-01 -0.38531170671E-01  0.51573280972E-01  0.71581077198E-01  0.51100000000E-03 0.  1.
         11    1    4    4    0    0 -0.11902011419E-01 -0.25818807705E-01  0.54444756763E-01  0.61422808199E-01  0.51100000000E-03 0. -1.
</event>
<event>
 8    1  0.1051655E+005  0.1043930E+01  0.7957747E-01            NaN
         13   -1    0    0    0    0  0.00000000000E+00  0.00000000000E+00  0.74505805969E-08  0.10566000000E+00  0.10566000000E+00 0.  1.
     999900   -1    0    0    0    0 -0.00000000000E+00 -0.00000000000E+00 -0.74505805969E-08  0.93827000000E+00  0.93827000000E+00 0.  1.
     999902    2    1    2    0    0  0.65879246046E-02 -0.89714618748E-02 -0.20687161773E-01  0.10204385858E+01  0.10201681532E+01 0.  0.
     999903    2    3    3    0    0  0.71218540346E-01 -0.72957777180E-01  0.79268320122E-01  0.13012265120E+00  0.15922312693E-01 0.  0.
         14    1    1    2    0    0 -0.65879246046E-02  0.89714618748E-02  0.20687161773E-01  0.23491414197E-01  0.00000000000E+00 0.  1.
     999901    1    3    3    0    0 -0.64630615741E-01  0.63986315305E-01 -0.99955481896E-01  0.89031593460E+00  0.88000000000E+00 0.  1.
        -11    1    4    4    0    0  0.10133000599E-01 -0.49508569332E-02  0.12983861049E-01  0.17205535570E-01  0.51100000000E-03 0.  1.
         11    1    4    4    0    0  0.61085539747E-01 -0.68006920247E-01  0.66284459074E-01  0.11291711564E+00  0.51100000000E-03 0. -1.
</event>
<event>
 8    1  0.1051655E+005  0.1043930E+01  0.7957747E-01            NaN
         13   -1    0    0    0    0  0.00000000000E+00  0.00000000000E+00  0.74505805969E-08  0.10566000000E+00  0.10566000000E+00 0. -1.
     999900   -1    0    0    0    0 -0.00000000000E+00 -0.00000000000E+00 -0.74505805969E-08  0.93827000000E+00  0.93827000000E+00 0. -1.
     999902    2    1    2    0    0  0.22464310560E-01 -0.26221190867E-02 -0.47769454097E-02  0.10208142053E+01  0.10205524493E+01 0.  0.
     999903    2    3    3    0    0 -0.61725344242E-01  0.10499196184E+00 -0.40082589392E-01  0.12957059276E+00  0.18670681908E-01 0.  0.
         14    1    1    2    0    0 -0.22464310560E-01  0.26221190867E-02  0.47769454097E-02  0.23115794706E-01  0.00000000000E+00 0. -1.
     999901    1    3    3    0    0  0.84189654802E-01 -0.10761408092E+00  0.35305643983E-01  0.89124361254E+00  0.88000000000E+00 0.  1.
        -11    1    4    4    0    0 -0.92197256615E-02  0.30825864451E-01 -0.13444031821E-01  0.34874637963E-01  0.51100000000E-03 0.  1.
         11    1    4    4    0    0 -0.52505618580E-01  0.74166097387E-01 -0.26638557571E-01  0.94695954795E-01  0.51100000000E-03 0. -1.
</event>
<event>
 8    1  0.1051655E+005  0.1043930E+01  0.7957747E-01            NaN
         13   -1    0    0    0    0  0.00000000000E+00  0.00000000000E+00  0.74505805969E-08  0.10566000000E+00  0.10566000000E+00 0.  1.
     999900   -1    0    0    0    0 -0.00000000000E+00 -0.00000000000E+00 -0.74505805969E-08  0.93827000000E+00  0.93827000000E+00 0.  1.
     999902    2    1    2    0    0 -0.20828004051E-01  0.57242656090E-02 -0.92106924285E-02  0.10204478829E+01  0.10201776668E+01 0.  0.
     999903    2    3    3    0    0  0.51522975934E-01  0.54404027724E-01  0.10311971770E+00  0.12903187192E+00  0.20028292772E-01 0.  0.
         14    1    1    2    0    0  0.20828004051E-01 -0.57242656090E-02  0.92106924285E-02  0.23482117122E-01  0.00000000000E+00 0.  1.
     999901    1    3    3    0    0 -0.72350979986E-01 -0.48679762115E-01 -0.11233041013E+00  0.89141601095E+00  0.88000000000E+00 0.  1.
        -11    1    4    4    0    0  0.23362306868E-01  0.30817204873E-01  0.37739801596E-01  0.54037498498E-01  0.51100000000E-03 0. -1.
         11    1    4    4    0    0  0.28160669067E-01  0.23586822851E-01  0.65379916107E-01  0.74994373426E-01  0.51100000000E-03 0.  1.
</event>
<event>
 8    1  0.1051655E+005  0.1043930E+01  0.7957747E-01            NaN
         13   -1    0    0    0    0  0.00000000000E+00  0.00000000000E+00  0.74505805969E-08  0.10566000000E+00  0.10566000000E+00 0. -1.
     999900   -1    0    0    0    0 -0.00000000000E+00 -0.00000000000E+00 -0.74505805969E-08  0.93827000000E+00  0.93827000000E+00 0. -1.
     999902    2    1    2    0    0 -0.70790362506E-02 -0.23769644053E-01  0.35778238736E-02  0.10188718764E+01  0.10185636902E+01 0.  0.
     999903    2    3    3    0    0  0.35788888626E-02 -0.89377386250E-01 -0.93606652337E-01  0.13103022974E+00  0.20139268236E-01 0.  0.
         14    1    1    2    0    0  0.70790362506E-02  0.23769644053E-01 -0.35778238736E-02  0.25058123559E-01  0.00000000000E+00 0.  1.
     999901    1    3    3    0    0 -0.10657925113E-01  0.65607742197E-01  0.97184476211E-01  0.88784164670E+00  0.88000000000E+00 0.  1.
        -11    1    4    4    0    0 -0.72866637513E-03 -0.26458506240E-01 -0.15638570361E-01  0.30747512275E-01  0.51100000000E-03 0.  1.
         11    1    4    4    0    0  0.43075552377E-02 -0.62918880010E-01 -0.77968081976E-01  0.10028271746E+00  0.51100000000E-03 0. -1.
</event>
<event>
 7    1  0.1051655E+005  0.1043930E+01  0.7957747E-01            NaN
         13   -1    0    0    0    0  0.00000000000E+00  0.00000000000E+00  0.74505805969E-08  0.10566000000E+00  0.10566000000E+00 0. -1.
     999900   -1    0    0    0    0 -0.00000000000E+00 -0.00000000000E+00 -0.74505805969E-08  0.93827000000E+00  0.93827000000E+00 0. -1.
     999902    2    1    2    0    0 -0.20220837019E-01  0.11417053839E-01 -0.48241733955E-02  0.10202128329E+01  0.10199371159E+01 0.  0.
         14    1    1    2    0    0  0.20220837019E-01 -0.11417053839E-01  0.48241733955E-02  0.23717167138E-01  0.00000000000E+00 0. -1.
     999901    1    3    3    0    0 -0.13412116181E-01  0.15084341102E-01 -0.12997322332E+00  0.88977551157E+00  0.88000000000E+00 0. -1.
        -11    1    3    3    0    0 -0.16252970307E-01 -0.69435630272E-02  0.11436559589E+00  0.11572433951E+00  0.51100000000E-03 0.  1.
         11    1    3    3    0    0  0.94442494689E-02  0.32762757644E-02  0.10783454039E-01  0.14712981782E-01  0.51100000000E-03 0. -1.
</event>
<event>
 8    1  0.1051655E+005  0.1043930E+01  0.7957747E-01            NaN
         13   -1    0    0    0    0  0.00000000000E+00  0.00000000000E+00  0.74505805969E-08  0.10566000000E+00  0.10566000000E+00 0. -1.
     999900   -1    0    0    0    0 -0.00000000000E+00 -0.00000000000E+00 -0.74505805969E-08  0.93827000000E+00  0.93827000000E+00 0.  1.
     999902    2    1    2    0    0 -0.20068449913E-01  0.78581816488E-02 -0.10064317163E-01  0.10201437817E+01  0.10198664379E+01 0.  0.
     999903    2    3    3    0    0 -0.27863241651E-01  0.69636666890E-02 -0.12743509596E+00  0.13231640060E+00  0.21049306286E-01 0.  0.
         14    1    1    2    0    0  0.20068449913E-01 -0.78581816488E-02  0.10064317163E-01  0.23786218294E-01  0.00000000000E+00 0.  1.
     999901    1    3    3    0    0  0.77947917377E-02  0.89451495981E-03  0.11737077880E+00  0.88782738111E+00  0.88000000000E+00 0. -1.
        -11    1    4    4    0    0 -0.14792373473E-01  0.21252430376E-02 -0.10381212573E+00  0.10488350461E+00  0.51100000000E-03 0.  1.
         11    1    4    4    0    0 -0.13070868178E-01  0.48384236514E-02 -0.23622970232E-01  0.27432895981E-01  0.51100000000E-03 0. -1.
</event>
<event>
 8    1  0.1051655E+005  0.1043930E+01  0.7957747E-01            NaN
         13   -1    0    0    0    0  0.00000000000E+00  0.00000000000E+00  0.74505805969E-08  0.10566000000E+00  0.10566000000E+00 0. -1.
     999900   -1    0    0    0    0 -0.00000000000E+00 -0.00000000000E+00 -0.74505805969E-08  0.93827000000E+00  0.93827000000E+00 0.  1.
     999902    2    1    2    0    0  0.79310322812E-03  0.17561030967E-02  0.23908522280E-01  0.10199439551E+01  0.10196618759E+01 0.  0.
     999903    2    3    3    0    0 -0.28631429657E-01  0.10644144287E+00 -0.64779083351E-01  0.12882650222E+00  0.15823985227E-01 0.  0.
         14    1    1    2    0    0 -0.79310322812E-03 -0.17561030967E-02 -0.23908522280E-01  0.23986044868E-01  0.00000000000E+00 0.  1.
     999901    1    3    3    0    0  0.29424532886E-01 -0.10468533978E+00  0.88687605630E-01  0.89111745292E+00  0.88000000000E+00 0. -1.
        -11    1    4    4    0    0 -0.70814868654E-02  0.38961329331E-01 -0.15478990201E-01  0.42520499740E-01  0.51100000000E-03 0.  1.
         11    1    4    4    0    0 -0.21549942792E-01  0.67480113541E-01 -0.49300093149E-01  0.86306002476E-01  0.51100000000E-03 0. -1.
</event>
<event>
 8    1  0.1051655E+005  0.1043930E+01  0.7957747E-01            NaN
         13   -1    0    0    0    0  0.00000000000E+00  0.00000000000E+00  0.74505805969E-08  0.10566000000E+00  0.10566000000E+00 0. -1.
     999900   -1    0    0    0    0 -0.00000000000E+00 -0.00000000000E+00 -0.74505805969E-08  0.93827000000E+00  0.93827000000E+00 0.  1.
     999902    2    1    2    0    0 -0.44336822183E-02  0.91343669566E-02  0.21119004615E-01  0.10204969773E+01  0.10202279030E+01 0.  0.
     999903    2    3    3    0    0 -0.58864841668E-02 -0.87572588571E-01  0.95795273403E-01  0.13205401851E+00  0.23620339377E-01 0.  0.
         14    1    1    2    0    0  0.44336822183E-02 -0.91343669566E-02 -0.21119004615E-01  0.23433022717E-01  0.00000000000E+00 0.  1.
     999901    1    3    3    0    0  0.14528019485E-02  0.96706955528E-01 -0.74676268787E-01  0.88844295878E+00  0.88000000000E+00 0. -1.
        -11    1    4    4    0    0  0.85830376540E-02 -0.39844154019E-01  0.48029813894E-01  0.62994835412E-01  0.51100000000E-03 0. -1.
         11    1    4    4    0    0 -0.14469521821E-01 -0.47728434553E-01  0.47765459509E-01  0.69059183094E-01  0.51100000000E-03 0.  1.
</event>
<event>
 8    1  0.1051655E+005  0.1043930E+01  0.7957747E-01            NaN
         13   -1    0    0    0    0  0.00000000000E+00  0.00000000000E+00  0.74505805969E-08  0.10566000000E+00  0.10566000000E+00 0. -1.
     999900   -1    0    0    0    0 -0.00000000000E+00 -0.00000000000E+00 -0.74505805969E-08  0.93827000000E+00  0.93827000000E+00 0. -1.
     999902    2    1    2    0    0 -0.22187003941E-01  0.64762273476E-02  0.34553862405E-02  0.10205602683E+01  0.10202926624E+01 0.  0.
     999903    2    3    3    0    0 -0.70838813920E-01  0.24957815510E-01  0.10776160891E+00  0.13287318618E+00  0.20042184005E-01 0.  0.
         14    1    1    2    0    0  0.22187003941E-01 -0.64762273476E-02 -0.34553862405E-02  0.23369731676E-01  0.00000000000E+00 0.  1.
     999901    1    3    3    0    0  0.48651809979E-01 -0.18481588162E-01 -0.10430622266E+00  0.88768708214E+00  0.88000000000E+00 0. -1.
        -11    1    4    4    0    0 -0.43057932587E-01  0.17640766754E-01  0.81993531712E-01  0.94278218979E-01  0.51100000000E-03 0.  1.
         11    1    4    4    0    0 -0.27780881333E-01  0.73170487559E-02  0.25768077194E-01  0.38594967203E-01  0.51100000000E-03 0. -1.
</event>
<event>
 8    1  0.1051655E+005  0.1043930E+01  0.7957747E-01            NaN
         13   -1    0    0    0    0  0.00000000000E+00  0.00000000000E+00  0.74505805969E-08  0.10566000000E+00  0.10566000000E+00 0. -1.
     999900   -1    0    0    0    0 -0.00000000000E+00 -0.00000000000E+00 -0.74505805969E-08  0.93827000000E+00  0.93827000000E+00 0.  1.
     999902    2    1    2    0    0 -0.84728018286E-02  0.16222019841E-01 -0.14575847034E-01  0.10205334700E+01  0.10202652429E+01 0.  0.
     999903    2    3    3    0    0  0.66606230792E-01 -0.63488164779E-02  0.10792931118E+00  0.12859523360E+00  0.20280543443E-01 0.  0.
         14    1    1    2    0    0  0.84728018286E-02 -0.16222019841E-01  0.14575847034E-01  0.23396529985E-01  0.00000000000E+00 0. -1.
     999901    1    3    3    0    0 -0.75079032620E-01  0.22570836319E-01 -0.12250515821E+00  0.89193823642E+00  0.88000000000E+00 0.  1.
        -11    1    4    4    0    0  0.40696714444E-01 -0.85104916969E-02  0.81631955869E-01  0.91611617033E-01  0.51100000000E-03 0. -1.
         11    1    4    4    0    0  0.25909516347E-01  0.21616752191E-02  0.26297355309E-01  0.36983616567E-01  0.51100000000E-03 0.  1.
</event>
<event>
 8    1  0.1051655E+005  0.1043930E+01  0.7957747E-01            NaN
         13   -1    0    0    0    0  0.00000000000E+00  0.00000000000E+00  0.74505805969E-08  0.10566000000E+00  0.10566000000E+00 0.  1.
     999900   -1    0    0    0    0 -0.00000000000E+00 -0.00000000000E+00 -0.74505805969E-08  0.93827000000E+00  0.93827000000E+00 0.  1.
     999902    2    1    2    0    0 -0.56997473561E-02  0.20728949150E-01  0.12777260114E-01  0.10189213049E+01  0.10186143484E+01 0.  0.
     999903    2    3    3    0    0  0.40373759426E-03 -0.11189968562E+00 -0.55101191296E-01  0.12637713715E+00  0.20330687785E-01 0.  0.
         14    1    1    2    0    0  0.56997473561E-02 -0.20728949150E-01 -0.12777260114E-01  0.25008695064E-01  0.00000000000E+00 0.  1.
     999901    1    3    3    0    0 -0.61034849504E-02  0.13262863477E+00  0.67878451411E-01  0.89254416779E+00  0.88000000000E+00 0. -1.
        -11    1    4    4    0    0  0.85219561383E-04 -0.21927661807E-01 -0.22998223989E-02  0.22054022734E-01  0.51100000000E-03 0.  1.
         11    1    4    4    0    0  0.31851803288E-03 -0.89972023810E-01 -0.52801368898E-01  0.10432311441E+00  0.51100000000E-03 0. -1.
</event>
<event>
 8    1  0.1051655E+005  0.1043930E+01  0.7957747E-01            NaN
         13   -1    0    0    0    0  0.00000000000E+00  0.00000000000E+00  0.74505805969E-08  0.10566000000E+00  0.10566000000E+00 0.  1.
     999900   -1    0    0    0    0 -0.00000000000E+00 -0.00000000000E+00 -0.74505805969E-08  0.93827000000E+00  0.93827000000E+00 0.  1.
     999902    2    1    2    0    0  0.14969411122E-01 -0.16721280317E-02 -0.18292588434E-01  0.10202340494E+01  0.10199588313E+01 0.  0.
     999903    2    3    3    0    0 -0.52374202204E-01  0.38228354287E-01  0.10844558566E+00  0.12771526783E+00  0.18608612553E-01 0.  0.
         14    1    1    2    0    0 -0.14969411122E-01  0.16721280317E-02  0.18292588434E-01  0.23695950564E-01  0.00000000000E+00 0.  1.
     999901    1    3    3    0    0  0.67343613326E-01 -0.39900482318E-01 -0.12673817409E+00  0.89251878160E+00  0.88000000000E+00 0.  1.
        -11    1    4    4    0    0 -0.26800360210E-01  0.24260959321E-01  0.43729444052E-01  0.56739570431E-01  0.51100000000E-03 0.  1.
         11    1    4    4    0    0 -0.25573841994E-01  0.13967394965E-01  0.64716141604E-01  0.70975697401E-01  0.51100000000E-03 0. -1.
</event>
<event>
 8    1  0.1051655E+005  0.1043930E+01  0.7957747E-01            NaN
         13   -1    0    0    0    0  0.00000000000E+00  0.00000000000E+00  0.74505805969E-08  0.10566000000E+00  0.10566000000E+00 0.  1.
     999900   -1    0    0    0    0 -0.00000000000E+00 -0.00000000000E+00 -0.74505805969E-08  0.93827000000E+00  0.93827000000E+00 0.  1.
     999902    2    1    2    0    0 -0.10745869379E-02 -0.16559424657E-01 -0.18024687895E-01  0.10194298234E+01  0.10191353718E+01 0.  0.
     999903    2    3    3    0    0 -0.97122295342E-01  0.78610448773E-01  0.20759205327E-01  0.12825831490E+00  0.20171956453E-01 0.  0.
         14    1    1    2    0    0  0.10745869379E-02  0.16559424657E-01  0.18024687895E-01  0.24500176648E-01  0.00000000000E+00 0.  1.
     999901    1    3    3    0    0  0.96047708405E-01 -0.95169873429E-01 -0.38783893222E-01  0.89117150845E+00  0.88000000000E+00 0.  1.
        -11    1    4    4    0    0 -0.77747560980E-01  0.52696088040E-01  0.19156865460E-01  0.95858268023E-01  0.51100000000E-03 0. -1.
         11    1    4    4    0    0 -0.19374734362E-01  0.25914360733E-01  0.16023398674E-02  0.32400046880E-01  0.51100000000E-03 0.  1.
</event>
<event>
 8    1  0.1051655E+005  0.1043930E+01  0.7957747E-01            NaN
         13   -1    0    0    0    0  0.00000000000E+00  0.00000000000E+00  0.74505805969E-08  0.10566000000E+00  0.10566000000E+00 0. -1.
     999900   -1    0    0    0    0 -0.00000000000E+00 -0.00000000000E+00 -0.74505805969E-08  0.93827000000E+00  0.93827000000E+00 0.  1.
     999902    2    1    2    0    0  0.22252916686E-01  0.85095926496E-02  0.17691466084E-02  0.10200399320E+01  0.10197601324E+01 0.  0.
     999903    2    3    3    0    0  0.37873204057E-01 -0.10734653087E+00  0.60511640470E-01  0.13036734319E+00  0.19399182058E-01 0.  0.
         14    1    1    2    0    0 -0.22252916686E-01 -0.85095926496E-02 -0.17691466084E-02  0.23890067974E-01  0.00000000000E+00 0. -1.
     999901    1    3    3    0    0 -0.15620287371E-01  0.11585612352E+00 -0.58742493862E-01  0.88967258883E+00  0.88000000000E+00 0.  1.
        -11    1    4    4    0    0  0.24768142350E-01 -0.79376769069E-01  0.34666335922E-01  0.90089668168E-01  0.51100000000E-03 0.  1.
         11    1    4    4    0    0  0.13105061707E-01 -0.27969761797E-01  0.25845304548E-01  0.40277675026E-01  0.51100000000E-03 0. -1.
</event>
<event>
 8    1  0.1051655E+005  0.1043930E+01  0.7957747E-01            NaN
         13   -1    0    0    0    0  0.00000000000E+00  0.00000000000E+00  0.74505805969E-08  0.10566000000E+00  0.10566000000E+00 0. -1.
     999900   -1    0    0    0    0 -0.00000000000E+00 -0.00000000000E+00 -0.74505805969E-08  0.93827000000E+00  0.93827000000E+00 0. -1.
     999902    2    1    2    0    0 -0.15515366163E-01  0.14158756804E-01  0.10439274916E-01  0.10204741811E+01  0.10202045769E+01 0.  0.
     999903    2    3    3    0    0 -0.72120770025E-01 -0.12261502226E-01  0.10899392053E+00  0.13277196747E+00  0.19924124258E-01 0.  0.
         14    1    1    2    0    0  0.15515366163E-01 -0.14158756804E-01 -0.10439274916E-01  0.23455818941E-01  0.00000000000E+00 0. -1.
     999901    1    3    3    0    0  0.56605403862E-01  0.26420259030E-01 -0.98554645618E-01  0.88770221359E+00  0.88000000000E+00 0. -1.
        -11    1    4    4    0    0 -0.30874173962E-01 -0.90720910519E-03  0.30707238018E-01  0.43557240889E-01  0.51100000000E-03 0. -1.
         11    1    4    4    0    0 -0.41246596063E-01 -0.11354293121E-01  0.78286682515E-01  0.89214726583E-01  0.51100000000E-03 0.  1.
</event>
<event>
 8    1  0.1051655E+005  0.1043930E+01  0.7957747E-01            NaN
         13   -1    0    0    0    0  0.00000000000E+00  0.00000000000E+00  0.74505805969E-08  0.10566000000E+00  0.10566000000E+00 0. -1.
     999900   -1    0    0    0    0 -0.00000000000E+00 -0.00000000000E+00 -0.74505805969E-08  0.93827000000E+00  0.93827000000E+00 0.  1.
     999902    2    1    2    0    0  0.18937348360E-01 -0.12255096649E-01 -0.10589423748E-01  0.10190112028E+01  0.10187064764E+01 0.  0.
     999903    2    3    3    0    0  0.10786684445E+00 -0.49571732039E-01 -0.55005632620E-01  0.13262878753E+00  0.21729309994E-01 0.  0.
         14    1    1    2    0    0 -0.18937348360E-01  0.12255096649E-01  0.10589423748E-01  0.24918797164E-01  0.00000000000E+00 0. -1.
     999901    1    3    3    0    0 -0.88929496091E-01  0.37316635390E-01  0.44416208872E-01  0.88638241531E+00  0.88000000000E+00 0.  1.
        -11    1    4    4    0    0  0.89868224826E-01 -0.44046382509E-01 -0.37387573817E-01  0.10683853913E+00  0.51100000000E-03 0. -1.
         11    1    4    4    0    0  0.17998619625E-01 -0.55253495301E-02 -0.17618058803E-01  0.25790248406E-01  0.51100000000E-03 0.  1.
</event>
<event>
 8    1  0.1051655E+005  0.1043930E+01  0.7957747E-01            NaN
         13   -1    0    0    0    0  0.00000000000E+00  0.00000000000E+00  0.74505805969E-08  0.10566000000E+00  0.10566000000E+00 0.  1.
     999900   -1    0    0    0    0 -0.00000000000E+00 -0.00000000000E+00 -0.74505805969E-08  0.93827000000E+00  0.93827000000E+00 0. -1.
     999902    2    1    2    0    0  0.51069902021E-02 -0.23773103755E-01  0.18039048491E-02  0.10195477137E+01  0.10192561232E+01 0.  0.
     999903    2    3    3    0    0 -0.56589654035E-01 -0.71056218601E-01 -0.92514355178E-01  0.13110069616E+00  0.19419358208E-01 0.  0.
         14    1    1    2    0    0 -0.51069902021E-02  0.23773103755E-01 -0.18039048491E-02  0.24382286270E-01  0.00000000000E+00 0. -1.
     999901    1    3    3    0    0  0.61696644237E-01  0.47283114847E-01  0.94318260027E-01  0.88844701757E+00  0.88000000000E+00 0.  1.
        -11    1    4    4    0    0 -0.29570522035E-01 -0.48484116663E-01 -0.65688976196E-01  0.86835638172E-01  0.51100000000E-03 0. -1.
         11    1    4    4    0    0 -0.27019132000E-01 -0.22572101938E-01 -0.26825378982E-01  0.44265057985E-01  0.51100000000E-03 0.  1.
</event>
<event>
 8    1  0.1051655E+005  0.1043930E+01  0.7957747E-01            NaN
         13   -1    0    0    0    0  0.00000000000E+00  0.00000000000E+00  0.74505805969E-08  0.10566000000E+00  0.10566000000E+00 0. -1.
     999900   -1    0    0    0    0 -0.00000000000E+00 -0.00000000000E+00 -0.74505805969E-08  0.93827000000E+00  0.93827000000E+00 0.  1.
     999902    2    1    2    0    0 -0.16278688697E-02  0.19956560781E-01  0.13404580519E-01  0.10198344184E+01  0.10195497260E+01 0.  0.
     999903    2    3    3    0    0 -0.93202516224E-01 -0.72267707417E-01 -0.46302115604E-01  0.12828738021E+00  0.20110580466E-01 0.  0.
         14    1    1    2    0    0  0.16278688697E-02 -0.19956560781E-01 -0.13404580519E-01  0.24095581631E-01  0.00000000000E+00 0.  1.
     999901    1    3    3    0    0  0.91574647354E-01  0.92224268198E-01  0.59706696123E-01  0.89154703816E+00  0.88000000000E+00 0.  1.
        -11    1    4    4    0    0 -0.37148068092E-01 -0.18236050545E-01 -0.21088342666E-01  0.46449023885E-01  0.51100000000E-03 0. -1.
         11    1    4    4    0    0 -0.56054448132E-01 -0.54031656872E-01 -0.25213772938E-01  0.81838356328E-01  0.51100000000E-03 0.  1.
</event>
<event>
 8    1  0.1051655E+005  0.1043930E+01  0.7957747E-01            NaN
         13   -1    0    0    0    0  0.00000000000E+00  0.00000000000E+00  0.74505805969E-08  0.10566000000E+00  0.10566000000E+00 0.  1.
     999900   -1    0    0    0    0 -0.00000000000E+00 -0.00000000000E+00 -0.74505805969E-08  0.93827000000E+00  0.93827000000E+00 0.  1.
     999902    2    1    2    0    0  0.21589747059E-01  0.82494251177E-02  0.53029591353E-02  0.10202173121E+01  0.10199417004E+01 0.  0.
     999903    2    3    3    0    0  0.72633011954E-01 -0.37293779530E-01  0.10261320934E+00  0.13221456255E+00  0.16877185818E-01 0.  0.
         14    1    1    2    0    0 -0.21589747059E-01 -0.82494251177E-02 -0.53029591353E-02  0.23712687921E-01  0.00000000000E+00 0. -1.
     999901    1    3    3    0    0 -0.51043264895E-01  0.45543204648E-01 -0.97310250206E-01  0.88800274953E+00  0.88000000000E+00 0.  1.
        -11    1    4    4    0    0  0.26130019188E-01 -0.14401239972E-01  0.25240310077E-01  0.39083346700E-01  0.51100000000E-03 0. -1.
         11    1    4    4    0    0  0.46502992766E-01 -0.22892539558E-01  0.77372899264E-01  0.93131215847E-01  0.51100000000E-03 0.  1.
</event>
<event>
 8    1  0.1051655E+005  0.1043930E+01  0.7957747E-01            NaN
         13   -1    0    0    0    0  0.00000000000E+00  0.00000000000E+00  0.74505805969E-08  0.10566000000E+00  0.10566000000E+00 0. -1.
     999900   -1    0    0    0    0 -0.00000000000E+00 -0.00000000000E+00 -0.74505805969E-08  0.93827000000E+00  0.93827000000E+00 0.  1.
     999902    2    1    2    0    0 -0.10283950731E-01  0.16111941691E-01  0.13894312530E-01  0.10202993794E+01  0.10200256945E+01 0.  0.
     999903    2    3    3    0    0 -0.58762883033E-01 -0.28814546028E-01 -0.10991249462E+00  0.12917833172E+00  0.17970265142E-01 0.  0.
         14    1    1    2    0    0  0.10283950731E-01 -0.16111941691E-01 -0.13894312530E-01  0.23630620566E-01  0.00000000000E+00 0.  1.
     999901    1    3    3    0    0  0.48478932303E-01  0.44926487718E-01  0.12380680714E+00  0.89112104771E+00  0.88000000000E+00 0. -1.
        -11    1    4    4    0    0 -0.24963729433E-01 -0.20007618711E-01 -0.63326350579E-01  0.70950548922E-01  0.51100000000E-03 0.  1.
         11    1    4    4    0    0 -0.33799153601E-01 -0.88069273166E-02 -0.46586144037E-01  0.58227782802E-01  0.51100000000E-03 0. -1.
</event>
<event>
 8    1  0.1051655E+005  0.1043930E+01  0.7957747E-01            NaN
         13   -1    0    0    0    0  0.00000000000E+00  0.00000000000E+00  0.74505805969E-08  0.10566000000E+00  0.10566000000E+00 0. -1.
     999900   -1    0    0    0    0 -0.00000000000E+00 -0.00000000000E+00 -0.74505805969E-08  0.93827000000E+00  0.93827000000E+00 0. -1.
     999902    2    1    2    0    0 -0.18343416119E-01 -0.10562251065E-01  0.17178409764E-02  0.10226934033E+01  0.10224728867E+01 0.  0.
     999903    2    3    3    0    0 -0.11719701917E+00 -0.81410232210E-02  0.63623876358E-01  0.13499398659E+00  0.19338076719E-01 0.  0.
         14    1    1    2    0    0  0.18343416119E-01  0.10562251065E-01 -0.17178409764E-02  0.21236596717E-01  0.00000000000E+00 0. -1.
     999901    1    3    3    0    0  0.98853603051E-01 -0.24212278441E-02 -0.61906035382E-01  0.88769941669E+00  0.88000000000E+00 0. -1.
        -11    1    4    4    0    0 -0.70437284688E-01 -0.14334713969E-01  0.37722076686E-01  0.81179500425E-01  0.51100000000E-03 0.  1.
         11    1    4    4    0    0 -0.46759734483E-01  0.61936907482E-02  0.25901799672E-01  0.53814486165E-01  0.51100000000E-03 0. -1.
</event>
<event>
 8    1  0.1051655E+005  0.1043930E+01  0.7957747E-01            NaN
         13   -1    0    0    0    0  0.00000000000E+00  0.00000000000E+00  0.74505805969E-08  0.10566000000E+00  0.10566000000E+00 0.  1.
     999900   -1    0    0    0    0 -0.00000000000E+00 -0.00000000000E+00 -0.74505805969E-08  0.93827000000E+00  0.93827000000E+00 0. -1.
     999902    2    1    2    0    0  0.16440126525E-01  0.46982878860E-02 -0.16264242469E-01  0.10203317532E+01  0.10200588264E+01 0.  0.
     999903    2    3    3    0    0  0.95502743151E-01 -0.86130935069E-01  0.16700833005E-01  0.13151932006E+00  0.21888394208E-01 0.  0.
         14    1    1    2    0    0 -0.16440126525E-01 -0.46982878860E-02  0.16264242469E-01  0.23598246806E-01  0.00000000000E+00 0.  1.
     999901    1    3    3    0    0 -0.79062616626E-01  0.90829222955E-01 -0.32965075474E-01  0.88881243313E+00  0.88000000000E+00 0. -1.
        -11    1    4    4    0    0  0.17327345228E-01 -0.92408836855E-02  0.89675146821E-02  0.21594172004E-01  0.51100000000E-03 0. -1.
         11    1    4    4    0    0  0.78175397923E-01 -0.76890051383E-01  0.77333183230E-02  0.10992514806E+00  0.51100000000E-03 0.  1.
</event>
<event>
 8    1  0.1051655E+005  0.1043930E+01  0.7957747E-01            NaN
         13   -1    0    0    0    0  0.00000000000E+00  0.00000000000E+00  0.74505805969E-08  0.10566000000E+00  0.10566000000E+00 0. -1.
     999900   -1    0    0    0    0 -0.00000000000E+00 -0.00000000000E+00 -0.74505805969E-08  0.93827000000E+00  0.93827000000E+00 0.  1.
     999902    2    1    2    0    0  0.17511126927E-01  0.39684651805E-03 -0.81862072115E-02  0.10245958064E+01  0.10244133714E+01 0.  0.
     999903    2    3    3    0    0 -0.84613596600E-01 -0.97414818560E-01 -0.24489968214E-01  0.13315742177E+00  0.21955245943E-01 0.  0.
         14    1    1    2    0    0 -0.17511126927E-01 -0.39684651805E-03  0.81862072115E-02  0.19334193594E-01  0.00000000000E+00 0. -1.
     999901    1    3    3    0    0  0.10212472353E+00  0.97811665078E-01  0.16303761002E-01  0.89143838464E+00  0.88000000000E+00 0. -1.
        -11    1    4    4    0    0 -0.32616353759E-01 -0.54250192280E-01 -0.11394088003E-01  0.64319485829E-01  0.51100000000E-03 0.  1.
         11    1    4    4    0    0 -0.51997242841E-01 -0.43164626280E-01 -0.13095880211E-01  0.68837935940E-01  0.51100000000E-03 0. -1.
</event>
<event>
 8    1  0.1051655E+005  0.1043930E+01  0.7957747E-01            NaN
         13   -1    0    0    0    0  0.00000000000E+00  0.00000000000E+00  0.74505805969E-08  0.10566000000E+00  0.10566000000E+00 0.  1.
     999900   -1    0    0    0    0 -0.00000000000E+00 -0.00000000000E+00 -0.74505805969E-08  0.93827000000E+00  0.93827000000E+00 0.  1.
     999902    2    1    2    0    0 -0.78566349793E-02 -0.21793908975E-01 -0.53659761701E-02  0.10201498637E+01  0.10198726634E+01 0.  0.
     999903    2    3    3    0    0  0.10494372923E+00  0.66260033607E-01 -0.25950849983E-01  0.12835327480E+00  0.19938359491E-01 0.  0.
         14    1    1    2    0    0  0.78566349793E-02  0.21793908975E-01  0.53659761701E-02  0.23780136287E-01  0.00000000000E+00 0.  1.
     999901    1    3    3    0    0 -0.11280036421E+00 -0.88053942581E-01  0.20584873813E-01  0.89179658891E+00  0.88000000000E+00 0. -1.
        -11    1    4    4    0    0  0.66324623578E-01  0.32047924288E-01 -0.99457172526E-02  0.74331712994E-01  0.51100000000E-03 0.  1.
         11    1    4    4    0    0  0.38619105648E-01  0.34212109319E-01 -0.16005132731E-01  0.54021561805E-01  0.51100000000E-03 0. -1.
</event>
<event>
 8    1  0.1051655E+005  0.1043930E+01  0.7957747E-01            NaN
         13   -1    0    0    0    0  0.00000000000E+00  0.00000000000E+00  0.74505805969E-08  0.10566000000E+00  0.10566000000E+00 0.  1.
     999900   -1    0    0    0    0 -0.00000000000E+00 -0.00000000000E+00 -0.74505805969E-08  0.93827000000E+00  0.93827000000E+00 0.  1.
     999902    2    1    2    0    0  0.11189522395E-01 -0.19930533867E-01 -0.57057743669E-02  0.10203718283E+01  0.10200998385E+01 0.  0.
     999903    2    3    3    0    0 -0.12619929344E+00 -0.10127419498E-01 -0.18091848761E-01  0.12957151253E+00  0.20799893683E-01 0.  0.
         14    1    1    2    0    0 -0.11189522395E-01  0.19930533867E-01  0.57057743669E-02  0.23558171678E-01  0.00000000000E+00 0.  1.
     999901    1    3    3    0    0  0.13738881584E+00 -0.98031143689E-02  0.12386074394E-01  0.89080031579E+00  0.88000000000E+00 0.  1.
        -11    1    4    4    0    0 -0.10875726579E+00 -0.37679877391E-02 -0.99007008329E-02  0.10927316959E+00  0.51100000000E-03 0.  1.
         11    1    4    4    0    0 -0.17442027654E-01 -0.63594317594E-02 -0.81911479276E-02  0.20298342946E-01  0.51100000000E-03 0. -1.
</event>
<event>
 8    1  0.1051655E+005  0.1043930E+01  0.7957747E-01            NaN
         13   -1    0    0    0    0  0.00000000000E+00  0.00000000000E+00  0.74505805969E-08  0.10566000000E+00  0.10566000000E+00 0. -1.
     999900   -1    0    0    0    0 -0.00000000000E+00 -0.00000000000E+00 -0.74505805969E-08  0.93827000000E+00  0.93827000000E+00 0.  1.
     999902    2    1    2    0    0  0.58653814753E-02 -0.70203697834E-02 -0.22893280480E-01  0.10192765908E+01  0.10189783992E+01 0.  0.
     999903    2    3    3    0    0  0.46188559601E-01 -0.63986219841E-01 -0.10475404635E+00  0.13272582989E+00  0.20374403691E-01 0.  0.
         14    1    1    2    0    0 -0.58653814753E-02  0.70203697834E-02  0.22893280480E-01  0.24653409153E-01  0.00000000000E+00 0. -1.
     999901    1    3    3    0    0 -0.40323178126E-01  0.56965850058E-01  0.81860765867E-01  0.88655076096E+00  0.88000000000E+00 0. -1.
        -11    1    4    4    0    0  0.40350707747E-01 -0.43054877910E-01 -0.84132505488E-01  0.10276400989E+00  0.51100000000E-03 0.  1.
         11    1    4    4    0    0  0.58378518541E-02 -0.20931341931E-01 -0.20621540859E-01  0.29961820000E-01  0.51100000000E-03 0. -1.
</event>
<event>
 8    1  0.1051655E+005  0.1043930E+01  0.7957747E-01            NaN
         13   -1    0    0    0    0  0.00000000000E+00  0.00000000000E+00  0.74505805969E-08  0.10566000000E+00  0.10566000000E+00 0.  1.
     999900   -1    0    0    0    0 -0.00000000000E+00 -0.00000000000E+00 -0.74505805969E-08  0.93827000000E+00  0.93827000000E+00 0. -1.
     999902    2    1    2    0    0 -0.17311484390E-01 -0.10971668425E-01  0.12089582942E-01  0.10201345589E+01  0.10198569975E+01 0.  0.
     999903    2    3    3    0    0 -0.75007073019E-01  0.88923451591E-01 -0.55250253886E-01  0.13005452345E+00  0.18114835597E-01 0.  0.
         14    1    1    2    0    0  0.17311484390E-01  0.10971668425E-01 -0.12089582942E-01  0.23795441066E-01  0.00000000000E+00 0. -1.
     999901    1    3    3    0    0  0.57695588629E-01 -0.99895120016E-01  0.67339836828E-01  0.89008003549E+00  0.88000000000E+00 0. -1.
        -11    1    4    4    0    0 -0.14320196749E-01  0.20896927059E-01 -0.45567165919E-02  0.25744404879E-01  0.51100000000E-03 0. -1.
         11    1    4    4    0    0 -0.60686876270E-01  0.68026524531E-01 -0.50693537294E-01  0.10431011857E+00  0.51100000000E-03 0.  1.
</event>
<event>
 8    1  0.1051655E+005  0.1043930E+01  0.7957747E-01            NaN
         13   -1    0    0    0    0  0.00000000000E+00  0.00000000000E+00  0.74505805969E-08  0.10566000000E+00  0.10566000000E+00 0. -1.
     999900   -1    0    0    0    0 -0.00000000000E+00 -0.00000000000E+00 -0.74505805969E-08  0.93827000000E+00  0.93827000000E+00 0.  1.
     999902    2    1    2    0    0 -0.13130690474E-02  0.13082862041E-01  0.16546079799E-01  0.10227957107E+01  0.10225773357E+01 0.  0.
     999903    2    3    3    0    0  0.74034021056E-01 -0.55236203644E-01 -0.89887005186E-01  0.13056665917E+00  0.20878321762E-01 0.  0.
         14    1    1    2    0    0  0.13130690474E-02 -0.13082862041E-01 -0.16546079799E-01  0.21134289348E-01  0.00000000000E+00 0.  1.
     999901    1    3    3    0    0 -0.75347090103E-01  0.68319065685E-01  0.10643308499E+00  0.89222905148E+00  0.88000000000E+00 0.  1.
        -11    1    4    4    0    0  0.15167441166E-01 -0.23030587439E-01 -0.25105947930E-01  0.37296500798E-01  0.51100000000E-03 0. -1.
         11    1    4    4    0    0  0.58866579890E-01 -0.32205616205E-01 -0.64781057257E-01  0.93270158375E-01  0.51100000000E-03 0.  1.
</event>
<event>
 8    1  0.1051655E+005  0.1043930E+01  0.7957747E-01            NaN
         13   -1    0    0    0    0  0.00000000000E+00  0.00000000000E+00  0.74505805969E-08  0.10566000000E+00  0.10566000000E+00 0.  1.
     999900   -1    0    0    0    0 -0.00000000000E+00 -0.00000000000E+00 -0.74505805969E-08  0.93827000000E+00  0.93827000000E+00 0.  1.
     999902    2    1    2    0    0  0.89131610283E-02  0.11144457522E-01  0.19704361792E-01  0.10196008971E+01  0.10193105926E+01 0.  0.
     999903    2    3    3    0    0  0.81664765302E-01 -0.96883193885E-01  0.19631406832E-01  0.13001516505E+00  0.21518918644E-01 0.  0.
         14    1    1    2    0    0 -0.89131610283E-02 -0.11144457522E-01 -0.19704361792E-01  0.24329102873E-01  0.00000000000E+00 0. -1.
     999901    1    3    3    0    0 -0.72751604274E-01  0.10802765141E+00  0.72954959942E-04  0.88958573208E+00  0.88000000000E+00 0. -1.
        -11    1    4    4    0    0  0.54388215102E-01 -0.78058667018E-01  0.11066513163E-01  0.95780803260E-01  0.51100000000E-03 0.  1.
         11    1    4    4    0    0  0.27276550200E-01 -0.18824526867E-01  0.85648936696E-02  0.34234361789E-01  0.51100000000E-03 0. -1.
</event>
<event>
 8    1  0.1051655E+005  0.1043930E+01  0.7957747E-01            NaN
         13   -1    0    0    0    0  0.00000000000E+00  0.00000000000E+00  0.74505805969E-08  0.10566000000E+00  0.10566000000E+00 0.  1.
     999900   -1    0    0    0    0 -0.00000000000E+00 -0.00000000000E+00 -0.74505805969E-08  0.93827000000E+00  0.93827000000E+00 0.  1.
     999902    2    1    2    0    0  0.75576739500E-02 -0.54587289092E-03 -0.22600683822E-01  0.10200929003E+01  0.10198143546E+01 0.  0.
     999903    2    3    3    0    0 -0.23147070063E-01 -0.11714458419E-01  0.12319051539E+00  0.12749971616E+00  0.20180662789E-01 0.  0.
         14    1    1    2    0    0 -0.75576739500E-02  0.54587289092E-03  0.22600683822E-01  0.23837099697E-01  0.00000000000E+00 0.  1.
     999901    1    3    3    0    0  0.30704744013E-01  0.11168585528E-01 -0.14579119921E+00  0.89259318414E+00  0.88000000000E+00 0.  1.
        -11    1    4    4    0    0 -0.83350964127E-02 -0.12375012221E-01  0.34714413214E-01  0.37788442221E-01  0.51100000000E-03 0. -1.
         11    1    4    4    0    0 -0.14811973650E-01  0.66055380258E-03  0.88476102177E-01  0.89711273941E-01  0.51100000000E-03 0.  1.
</event>
<event>
 8    1  0.1051655E+005  0.1043930E+01  0.7957747E-01            NaN
         13   -1    0    0    0    0  0.00000000000E+00  0.00000000000E+00  0.74505805969E-08  0.10566000000E+00  0.10566000000E+00 0. -1.
     999900   -1    0    0    0    0 -0.00000000000E+00 -0.00000000000E+00 -0.74505805969E-08  0.93827000000E+00  0.93827000000E+00 0.  1.
     999902    2    1    2    0    0 -0.73485930356E-02 -0.13540148454E-01  0.27133196800E-01  0.10127282723E+01  0.10122475022E+01 0.  0.
     999903    2    3    3    0    0 -0.48316209806E-01  0.94493543894E-01  0.61097333063E-01  0.12452605052E+00  0.22591307707E-01 0.  0.
         14    1    1    2    0    0  0.73485930356E-02  0.13540148454E-01 -0.27133196800E-01  0.31201727650E-01  0.00000000000E+00 0.  1.
     999901    1    3    3    0    0  0.40967616770E-01 -0.10803369235E+00 -0.33964136262E-01  0.88820222183E+00  0.88000000000E+00 0.  1.
        -11    1    4    4    0    0 -0.15131015097E-01  0.43924579392E-01  0.37085908881E-01  0.59446968393E-01  0.51100000000E-03 0. -1.
         11    1    4    4    0    0 -0.33185194708E-01  0.50568964502E-01  0.24011424182E-01  0.65079082130E-01  0.51100000000E-03 0.  1.
</event>
<event>
 8    1  0.1051655E+005  0.1043930E+01  0.7957747E-01            NaN
         13   -1    0    0    0    0  0.00000000000E+00  0.00000000000E+00  0.74505805969E-08  0.10566000000E+00  0.10566000000E+00 0. -1.
     999900   -1    0    0    0    0 -0.00000000000E+00 -0.00000000000E+00 -0.74505805969E-08  0.93827000000E+00  0.93827000000E+00 0.  1.
     999902    2    1    2    0    0  0.14095758382E-02  0.19542242345E-01 -0.21741881150E-01  0.10146623466E+01  0.10142401501E+01 0.  0.
     999903    2    3    3    0    0 -0.73234954336E-02  0.12521446606E+00 -0.18660215480E-01  0.12829200522E+00  0.19450934834E-01 0.  0.
         14    1    1    2    0    0 -0.14095758382E-02 -0.19542242345E-01  0.21741881150E-01  0.29267653406E-01  0.00000000000E+00 0. -1.
     999901    1    3    3    0    0  0.87330712718E-02 -0.10567222372E+00 -0.30816656699E-02  0.88637034137E+00  0.88000000000E+00 0. -1.
        -11    1    4    4    0    0 -0.13875122215E-01  0.77646558348E-01 -0.10249707397E-01  0.79541339330E-01  0.51100000000E-03 0. -1.
         11    1    4    4    0    0  0.65516267816E-02  0.47567907714E-01 -0.84105080838E-02  0.48750665893E-01  0.51100000000E-03 0.  1.
</event>
<event>
 8    1  0.1051655E+005  0.1043930E+01  0.7957747E-01            NaN
         13   -1    0    0    0    0  0.00000000000E+00  0.00000000000E+00  0.74505805969E-08  0.10566000000E+00  0.10566000000E+00 0.  1.
     999900   -1    0    0    0    0 -0.00000000000E+00 -0.00000000000E+00 -0.74505805969E-08  0.93827000000E+00  0.93827000000E+00 0. -1.
     999902    2    1    2    0    0  0.14271182496E-01 -0.59664814488E-02 -0.19635322831E-01  0.10189337712E+01  0.10186271245E+01 0.  0.
     999903    2    3    3    0    0  0.96147077019E-02 -0.12787791762E+00  0.91799608794E-02  0.13004997589E+00  0.19583669907E-01 0.  0.
         14    1    1    2    0    0 -0.14271182496E-01  0.59664814488E-02  0.19635322831E-01  0.24996228784E-01  0.00000000000E+00 0.  1.
     999901    1    3    3    0    0  0.46564747945E-02  0.12191143617E+00 -0.28815283711E-01  0.88888379533E+00  0.88000000000E+00 0. -1.
        -11    1    4    4    0    0  0.10277421796E-01 -0.60452133280E-01 -0.35646428441E-02  0.61425187150E-01  0.51100000000E-03 0.  1.
         11    1    4    4    0    0 -0.66271409402E-03 -0.67425784340E-01  0.12744603723E-01  0.68624788735E-01  0.51100000000E-03 0. -1.
</event>
<event>
 8    1  0.1051655E+005  0.1043930E+01  0.7957747E-01            NaN
         13   -1    0    0    0    0  0.00000000000E+00  0.00000000000E+00  0.74505805969E-08  0.10566000000E+00  0.10566000000E+00 0.  1.
     999900   -1    0    0    0    0 -0.00000000000E+00 -0.00000000000E+00 -0.74505805969E-08  0.93827000000E+00  0.93827000000E+00 0.  1.
     999902    2    1    2    0    0 -0.34132999584E-02 -0.22091680306E-01  0.89574930172E-02  0.10198482717E+01  0.10195639106E+01 0.  0.
     999903    2    3    3    0    0  0.76933296098E-01  0.91621132226E-01 -0.39200836726E-01  0.12760088229E+00  0.20787391444E-01 0.  0.
         14    1    1    2    0    0  0.34132999584E-02  0.22091680306E-01 -0.89574930172E-02  0.24081728271E-01  0.00000000000E+00 0.  1.
     999901    1    3    3    0    0 -0.80346596056E-01 -0.11371281253E+00  0.48158329743E-01  0.89224738944E+00  0.88000000000E+00 0. -1.
        -11    1    4    4    0    0  0.50469914224E-01  0.58437219705E-01 -0.35520631078E-01  0.84994689492E-01  0.51100000000E-03 0. -1.
         11    1    4    4    0    0  0.26463381874E-01  0.33183912520E-01 -0.36802056482E-02  0.42606192801E-01  0.51100000000E-03 0.  1.
</event>
<event>
 8    1  0.1051655E+005  0.1043930E+01  0.7957747E-01            NaN
         13   -1    0    0    0    0  0.00000000000E+00  0.00000000000E+00  0.74505805969E-08  0.10566000000E+00  0.10566000000E+00 0. -1.
     999900   -1    0    0    0    0 -0.00000000000E+00 -0.00000000000E+00 -0.74505805969E-08  0.93827000000E+00  0.93827000000E+00 0. -1.
     999902    2    1    2    0    0  0.11719324323E-02 -0.11938784870E-01  0.19454463601E-01  0.10210742750E+01  0.10208184417E+01 0.  0.
     999903    2    3    3    0    0  0.14988790261E-01 -0.11690122983E+00  0.60112099028E-01  0.13379694312E+00  0.19939813657E-01 0.  0.
         14    1    1    2    0    0 -0.11719324323E-02  0.11938784870E-01 -0.19454463601E-01  0.22855724968E-01  0.00000000000E+00 0.  1.
     999901    1    3    3    0    0 -0.13816857829E-01  0.10496244496E+00 -0.40657635427E-01  0.88727733192E+00  0.88000000000E+00 0.  1.
        -11    1    4    4    0    0  0.37191332666E-02 -0.75685023200E-01  0.46686587773E-01  0.89005355389E-01  0.51100000000E-03 0. -1.
         11    1    4    4    0    0  0.11269656995E-01 -0.41216206630E-01  0.13425511255E-01  0.44791587728E-01  0.51100000000E-03 0.  1.
</event>
<event>
 8    1  0.1051655E+005  0.1043930E+01  0.7957747E-01            NaN
         13   -1    0    0    0    0  0.00000000000E+00  0.00000000000E+00  0.74505805969E-08  0.10566000000E+00  0.10566000000E+00 0.  1.
     999900   -1    0    0    0    0 -0.00000000000E+00 -0.00000000000E+00 -0.74505805969E-08  0.93827000000E+00  0.93827000000E+00 0.  1.
     999902    2    1    2    0    0 -0.18078541654E-01 -0.69731343946E-02  0.13246177173E-01  0.10204583260E+01  0.10201883530E+01 0.  0.
     999903    2    3    3    0    0  0.23003613143E-01  0.31847861238E-01  0.12405168035E+00  0.13171051435E+00  0.20381062531E-01 0.  0.
         14    1    1    2    0    0  0.18078541654E-01  0.69731343946E-02 -0.13246177173E-01  0.23471674020E-01  0.00000000000E+00 0. -1.
     999901    1    3    3    0    0 -0.41082154796E-01 -0.38820995633E-01 -0.11080550317E+00  0.88874781163E+00  0.88000000000E+00 0.  1.
        -11    1    4    4    0    0  0.17837395390E-02  0.13148147480E-01  0.20992828936E-01  0.24839796630E-01  0.51100000000E-03 0. -1.
         11    1    4    4    0    0  0.21219873604E-01  0.18699713758E-01  0.10305885141E+00  0.10687071772E+00  0.51100000000E-03 0.  1.
</event>
<event>
 8    1  0.1051655E+005  0.1043930E+01  0.7957747E-01            NaN
         13   -1    0    0    0    0  0.00000000000E+00  0.00000000000E+00  0.74505805969E-08  0.10566000000E+00  0.10566000000E+00 0.  1.
     999900   -1    0    0    0    0 -0.00000000000E+00 -0.00000000000E+00 -0.74505805969E-08  0.93827000000E+00  0.93827000000E+00 0. -1.
     999902    2    1    2    0    0 -0.32682942768E-02 -0.46618385969E-02 -0.22748784334E-01  0.10204795911E+01  0.10202101128E+01 0.  0.
     999903    2    3    3    0    0 -0.11966806498E+00  0.11407528038E-01  0.45190508253E-01  0.13007357217E+00  0.20648841834E-01 0.  0.
         14    1    1    2    0    0  0.32682942768E-02  0.46618385969E-02  0.22748784334E-01  0.23450408851E-01  0.00000000000E+00 0.  1.
     999901    1    3    3    0    0  0.11639977070E+00 -0.16069366635E-01 -0.67939292587E-01  0.89040601898E+00  0.88000000000E+00 0. -1.
        -11    1    4    4    0    0 -0.53640341661E-01  0.75989086771E-02  0.97888285113E-02  0.55055535155E-01  0.51100000000E-03 0. -1.
         11    1    4    4    0    0 -0.66027723315E-01  0.38086193605E-02  0.35401679741E-01  0.75018037011E-01  0.51100000000E-03 0.  1.
</event>
<event>
 8    1  0.1051655E+005  0.1043930E+01  0.7957747E-01            NaN
         13   -1    0    0    0    0  0.00000000000E+00  0.00000000000E+00  0.74505805969E-08  0.10566000000E+00  0.10566000000E+00 0. -1.
     999900   -1    0    0    0    0 -0.00000000000E+00 -0.00000000000E+00 -0.74505805969E-08  0.93827000000E+00  0.93827000000E+00 0.  1.
     999902    2    1    2    0    0 -0.38904417784E-02 -0.19203459340E-01 -0.12613726084E-01  0.10206273290E+01  0.10203612744E+01 0.  0.
     999903    2    3    3    0    0  0.83450528550E-01 -0.17746964097E-01  0.95993680126E-01  0.12965811793E+00  0.17818402590E-01 0.  0.
         14    1    1    2    0    0  0.38904417784E-02  0.19203459340E-01  0.12613726084E-01  0.23302670953E-01  0.00000000000E+00 0. -1.
     999901    1    3    3    0    0 -0.87340970328E-01 -0.14564952424E-02 -0.10860740621E+00  0.89096921112E+00  0.88000000000E+00 0.  1.
        -11    1    4    4    0    0  0.52033882524E-02 -0.33963983685E-02  0.14443078167E-01  0.15731319052E-01  0.51100000000E-03 0. -1.
         11    1    4    4    0    0  0.78247140297E-01 -0.14350565729E-01  0.81550601958E-01  0.11392679888E+00  0.51100000000E-03 0.  1.
</event>
<event>
 8    1  0.1051655E+005  0.1043930E+01  0.7957747E-01            NaN
         13   -1    0    0    0    0  0.00000000000E+00  0.00000000000E+00  0.74505805969E-08  0.10566000000E+00  0.10566000000E+00 0. -1.
     999900   -1    0    0    0    0 -0.00000000000E+00 -0.00000000000E+00 -0.74505805969E-08  0.93827000000E+00  0.93827000000E+00 0. -1.
     999902    2    1    2    0    0 -0.25510230509E-01  0.10762550851E-01 -0.22778096311E-03  0.10162414420E+01  0.10158641701E+01 0.  0.
     999903    2    3    3    0    0  0.16947822964E-01  0.10330439524E+00 -0.71117343630E-01  0.12753901182E+00  0.15795448436E-01 0.  0.
         14    1    1    2    0    0  0.25510230509E-01 -0.10762550851E-01  0.22778096311E-03  0.27688558027E-01  0.00000000000E+00 0.  1.
     999901    1    3    3    0    0 -0.42458053473E-01 -0.92541844390E-01  0.70889562667E-01  0.88870243015E+00  0.88000000000E+00 0.  1.
        -11    1    4    4    0    0  0.13016295661E-01  0.33843026723E-01 -0.22874793104E-01  0.42875303976E-01  0.51100000000E-03 0.  1.
         11    1    4    4    0    0  0.39315273034E-02  0.69461368518E-01 -0.48242550525E-01  0.84663707842E-01  0.51100000000E-03 0. -1.
</event>
<event>
 8    1  0.1051655E+005  0.1043930E+01  0.7957747E-01            NaN
         13   -1    0    0    0    0  0.00000000000E+00  0.00000000000E+00  0.74505805969E-08  0.10566000000E+00  0.10566000000E+00 0.  1.
     999900   -1    0    0    0    0 -0.00000000000E+00 -0.00000000000E+00 -0.74505805969E-08  0.93827000000E+00  0.93827000000E+00 0. -1.
     999902    2    1    2    0    0  0.52962921347E-02  0.21947832560E-01 -0.23795638837E-02  0.10212271282E+01  0.10209747435E+01 0.  0.
     999903    2    3    3    0    0 -0.10838947349E+00  0.31155235674E-01 -0.64944756222E-01  0.13166339642E+00  0.19962512930E-01 0.  0.
         14    1    1    2    0    0 -0.52962921347E-02 -0.21947832560E-01  0.23795638837E-02  0.22702871817E-01  0.00000000000E+00 0. -1.
     999901    1    3    3    0    0  0.11368576563E+00 -0.92074031141E-02  0.62565192338E-01  0.88956373176E+00  0.88000000000E+00 0.  1.
        -11    1    4    4    0    0 -0.38739986723E-01  0.57799135191E-02 -0.31828484284E-01  0.50472839274E-01  0.51100000000E-03 0.  1.
         11    1    4    4    0    0 -0.69649486768E-01  0.25375322155E-01 -0.33116271937E-01  0.81190557145E-01  0.51100000000E-03 0. -1.
</event>
<event>
 8    1  0.1051655E+005  0.1043930E+01  0.7957747E-01            NaN
         13   -1    0    0    0    0  0.00000000000E+00  0.00000000000E+00  0.74505805969E-08  0.10566000000E+00  0.10566000000E+00 0.  1.
     999900   -1    0    0    0    0 -0.00000000000E+00 -0.00000000000E+00 -0.74505805969E-08  0.93827000000E+00  0.93827000000E+00 0. -1.
     999902    2    1    2    0    0 -0.16394354340E-02 -0.23547294363E-01 -0.41633799904E-02  0.10199613423E+01  0.10196796767E+01 0.  0.
     999903    2    3    3    0    0  0.91434830740E-01 -0.38001044677E-01 -0.84110643969E-01  0.13133133212E+00  0.19207048160E-01 0.  0.
         14    1    1    2    0    0  0.16394354340E-02  0.23547294363E-01  0.41633799904E-02  0.23968657728E-01  0.00000000000E+00 0. -1.
     999901    1    3    3    0    0 -0.93074266174E-01  0.14453750314E-01  0.79947263978E-01  0.88863001015E+00  0.88000000000E+00 0.  1.
        -11    1    4    4    0    0  0.58635276744E-01 -0.17778098005E-01 -0.42214910198E-01  0.74407769834E-01  0.51100000000E-03 0.  1.
         11    1    4    4    0    0  0.32799553996E-01 -0.20222946671E-01 -0.41895733771E-01  0.56923562288E-01  0.51100000000E-03 0. -1.
</event>
<event>
 8    1  0.1051655E+005  0.1043930E+01  0.7957747E-01            NaN
         13   -1    0    0    0    0  0.00000000000E+00  0.00000000000E+00  0.74505805969E-08  0.10566000000E+00  0.10566000000E+00 0. -1.
     999900   -1    0    0    0    0 -0.00000000000E+00 -0.00000000000E+00 -0.74505805969E-08  0.93827000000E+00  0.93827000000E+00 0. -1.
     999902    2    1    2    0    0 -0.42028496634E-02  0.15880359900E-01  0.17038528232E-01  0.10202622747E+01  0.10199877195E+01 0.  0.
     999903    2    3    3    0    0 -0.86104417549E-01  0.78972506479E-01  0.60659456980E-01  0.13313698976E+00  0.19881167472E-01 0.  0.
         14    1    1    2    0    0  0.42028496634E-02 -0.15880359900E-01 -0.17038528232E-01  0.23667725285E-01  0.00000000000E+00 0.  1.
     999901    1    3    3    0    0  0.81901567886E-01 -0.63092146579E-01 -0.43620928748E-01  0.88712528496E+00  0.88000000000E+00 0. -1.
        -11    1    4    4    0    0 -0.39422297810E-01  0.49468129305E-01  0.33913760091E-01  0.71774770121E-01  0.51100000000E-03 0. -1.
         11    1    4    4    0    0 -0.46682119740E-01  0.29504377174E-01  0.26745696889E-01  0.61362219638E-01  0.51100000000E-03 0.  1.
</event>
<event>
 8    1  0.1051655E+005  0.1043930E+01  0.7957747E-01            NaN
         13   -1    0    0    0    0  0.00000000000E+00  0.00000000000E+00  0.74505805969E-08  0.10566000000E+00  0.10566000000E+00 0.  1.
     999900   -1    0    0    0    0 -0.00000000000E+00 -0.00000000000E+00 -0.74505805969E-08  0.93827000000E+00  0.93827000000E+00 0. -1.
     999902    2    1    2    0    0  0.24546991310E-01 -0.26048730041E-02 -0.65174726182E-02  0.10183992813E+01  0.10180792104E+01 0.  0.
     999903    2    3    3    0    0 -0.10883043868E+00  0.38473798662E-01  0.45895292171E-01  0.12586127431E+00  0.20257960430E-01 0.  0.
         14    1    1    2    0    0 -0.24546991310E-01  0.26048730041E-02  0.65174726182E-02  0.25530718655E-01  0.00000000000E+00 0.  1.
     999901    1    3    3    0    0  0.13337742998E+00 -0.41078671666E-01 -0.52412764789E-01  0.89253800704E+00  0.88000000000E+00 0. -1.
        -11    1    4    4    0    0 -0.90599437348E-01  0.25402181386E-01  0.42183500135E-01  0.10311759147E+00  0.51100000000E-03 0.  1.
         11    1    4    4    0    0 -0.18231001327E-01  0.13071617277E-01  0.37117920360E-02  0.22743682832E-01  0.51100000000E-03 0. -1.
</event>
<event>
 8    1  0.1051655E+005  0.1043930E+01  0.7957747E-01            NaN
         13   -1    0    0    0    0  0.00000000000E+00  0.00000000000E+00  0.74505805969E-08  0.10566000000E+00  0.10566000000E+00 0. -1.
     999900   -1    0    0    0    0 -0.00000000000E+00 -0.00000000000E+00 -0.74505805969E-08  0.93827000000E+00  0.93827000000E+00 0. -1.
     999902    2    1    2    0    0  0.21293615207E-01 -0.97291863321E-02 -0.60051860337E-02  0.10197610659E+01  0.10194746167E+01 0.  0.
     999903    2    3    3    0    0  0.12213645748E-01 -0.30842030169E-01 -0.12556900923E+00  0.13137843111E+00  0.19806870351E-01 0.  0.
         14    1    1    2    0    0 -0.21293615207E-01  0.97291863321E-02  0.60051860337E-02  0.24168934080E-01  0.00000000000E+00 0. -1.
     999901    1    3    3    0    0  0.90799694591E-02  0.21112843837E-01  0.11956382320E+00  0.88838263481E+00  0.88000000000E+00 0.  1.
        -11    1    4    4    0    0 -0.18105789721E-03 -0.10716965287E-01 -0.72392900356E-01  0.73183873018E-01  0.51100000000E-03 0.  1.
         11    1    4    4    0    0  0.12394703645E-01 -0.20125064881E-01 -0.53176108876E-01  0.58194558088E-01  0.51100000000E-03 0. -1.
</event>
<event>
 8    1  0.1051655E+005  0.1043930E+01  0.7957747E-01            NaN
         13   -1    0    0    0    0  0.00000000000E+00  0.00000000000E+00  0.74505805969E-08  0.10566000000E+00  0.10566000000E+00 0. -1.
     999900   -1    0    0    0    0 -0.00000000000E+00 -0.00000000000E+00 -0.74505805969E-08  0.93827000000E+00  0.93827000000E+00 0.  1.
     999902    2    1    2    0    0 -0.21230418604E-01 -0.14872798012E-02  0.12420063748E-01  0.10192885581E+01  0.10189906594E+01 0.  0.
     999903    2    3    3    0    0  0.83001651282E-02 -0.53191247049E-02  0.12910359045E+00  0.13108712610E+00  0.20467333280E-01 0.  0.
         14    1    1    2    0    0  0.21230418604E-01  0.14872798012E-02 -0.12420063748E-01  0.24641441898E-01  0.00000000000E+00 0.  1.
     999901    1    3    3    0    0 -0.29530583732E-01  0.38318449037E-02 -0.11668352671E+00  0.88820143200E+00  0.88000000000E+00 0.  1.
        -11    1    4    4    0    0  0.11553577591E-01  0.31149441406E-02  0.96816660705E-01  0.97554676686E-01  0.51100000000E-03 0.  1.
         11    1    4    4    0    0 -0.32534124627E-02 -0.84340688456E-02  0.32286929749E-01  0.33532449412E-01  0.51100000000E-03 0. -1.
</event>
<event>
 8    1  0.1051655E+005  0.1043930E+01  0.7957747E-01            NaN
         13   -1    0    0    0    0  0.00000000000E+00  0.00000000000E+00  0.74505805969E-08  0.10566000000E+00  0.10566000000E+00 0. -1.
     999900   -1    0    0    0    0 -0.00000000000E+00 -0.00000000000E+00 -0.74505805969E-08  0.93827000000E+00  0.93827000000E+00 0.  1.
     999902    2    1    2    0    0 -0.68063498054E-02  0.17238650779E-01 -0.17001194665E-01  0.10187796899E+01  0.10184692035E+01 0.  0.
     999903    2    3    3    0    0 -0.43549111515E-01  0.52162054994E-01 -0.11175916542E+00  0.13224218492E+00  0.19505879184E-01 0.  0.
         14    1    1    2    0    0  0.68063498054E-02 -0.17238650779E-01  0.17001194665E-01  0.25150310105E-01  0.00000000000E+00 0. -1.
     999901    1    3    3    0    0  0.36742761710E-01 -0.34923404216E-01  0.94757970756E-01  0.88653750497E+00  0.88000000000E+00 0. -1.
        -11    1    4    4    0    0 -0.44309112593E-01  0.44430935111E-01 -0.10202115045E+00  0.11977471233E+00  0.51100000000E-03 0.  1.
         11    1    4    4    0    0  0.76000107812E-03  0.77311198835E-02 -0.97380149726E-02  0.12467472595E-01  0.51100000000E-03 0. -1.
</event>
<event>
 8    1  0.1051655E+005  0.1043930E+01  0.7957747E-01            NaN
         13   -1    0    0    0    0  0.00000000000E+00  0.00000000000E+00  0.74505805969E-08  0.10566000000E+00  0.10566000000E+00 0. -1.
     999900   -1    0    0    0    0 -0.00000000000E+00 -0.00000000000E+00 -0.74505805969E-08  0.93827000000E+00  0.93827000000E+00 0. -1.
     999902    2    1    2    0    0 -0.23715736587E-01 -0.23530926887E-01  0.12430746236E-01  0.10082836238E+01  0.10076533144E+01 0.  0.
     999903    2    3    3    0    0  0.55015218457E-01 -0.34182325690E-01  0.99554569612E-01  0.12041957107E+00  0.19865928506E-01 0.  0.
         14    1    1    2    0    0  0.23715736587E-01  0.23530926887E-01 -0.12430746236E-01  0.35646376169E-01  0.00000000000E+00 0.  1.
     999901    1    3    3    0    0 -0.78730955045E-01  0.10651398803E-01 -0.87123823376E-01  0.88786405276E+00  0.88000000000E+00 0. -1.
        -11    1    4    4    0    0  0.30325133770E-01 -0.75690783558E-02  0.41679964911E-01  0.52099762776E-01  0.51100000000E-03 0. -1.
         11    1    4    4    0    0  0.24690084688E-01 -0.26613247335E-01  0.57874604700E-01  0.68319808298E-01  0.51100000000E-03 0.  1.
</event>
<event>
 8    1  0.1051655E+005  0.1043930E+01  0.7957747E-01            NaN
         13   -1    0    0    0    0  0.00000000000E+00  0.00000000000E+00  0.74505805969E-08  0.10566000000E+00  0.10566000000E+00 0. -1.
     999900   -1    0    0    0    0 -0.00000000000E+00 -0.00000000000E+00 -0.74505805969E-08  0.93827000000E+00  0.93827000000E+00 0. -1.
     999902    2    1    2    0    0 -0.73354603170E-02 -0.97922325496E-02 -0.19492172810E-01  0.10209160565E+01  0.10206566282E+01 0.  0.
     999903    2    3    3    0    0  0.10087063683E-01 -0.11334556323E+00  0.61737710276E-01  0.13095811895E+00  0.19736222817E-01 0.  0.
         14    1    1    2    0    0  0.73354603170E-02  0.97922325496E-02  0.19492172810E-01  0.23013943539E-01  0.00000000000E+00 0. -1.
     999901    1    3    3    0    0 -0.17422524000E-01  0.10355333068E+00 -0.81229883086E-01  0.88995793751E+00  0.88000000000E+00 0. -1.
        -11    1    4    4    0    0  0.14117886541E-01 -0.10603084441E+00  0.55409194613E-01  0.12046698575E+00  0.51100000000E-03 0. -1.
         11    1    4    4    0    0 -0.40308228582E-02 -0.73147188144E-02  0.63285156630E-02  0.10491133196E-01  0.51100000000E-03 0.  1.
</event>
<event>
 8    1  0.1051655E+005  0.1043930E+01  0.7957747E-01            NaN
         13   -1    0    0    0    0  0.00000000000E+00  0.00000000000E+00  0.74505805969E-08  0.10566000000E+00  0.10566000000E+00 0.  1.
     999900   -1    0    0    0    0 -0.00000000000E+00 -0.00000000000E+00 -0.74505805969E-08  0.93827000000E+00  0.93827000000E+00 0. -1.
     999902    2    1    2    0    0 -0.90980407000E-02 -0.29027348960E-02  0.74516278085E-02  0.10318169091E+01  0.10317458054E+01 0.  0.
     999903    2    3    3    0    0 -0.76501419369E-01  0.11644320820E+00 -0.96106304100E-02  0.14104320593E+00  0.19731543785E-01 0.  0.
         14    1    1    2    0    0  0.90980407000E-02  0.29027348960E-02 -0.74516278085E-02  0.12113090912E-01  0.00000000000E+00 0. -1.
     999901    1    3    3    0    0  0.67403378669E-01 -0.11934594309E+00  0.17062258218E-01  0.89077370316E+00  0.88000000000E+00 0.  1.
        -11    1    4    4    0    0 -0.72118196316E-01  0.97565525434E-01 -0.85053883078E-02  0.12162511560E+00  0.51100000000E-03 0. -1.
         11    1    4    4    0    0 -0.43832230531E-02  0.18877682764E-01 -0.11052421022E-02  0.19418090327E-01  0.51100000000E-03 0.  1.
</event>
<event>
 8    1  0.1051655E+005  0.1043930E+01  0.7957747E-01            NaN
         13   -1    0    0    0    0  0.00000000000E+00  0.00000000000E+00  0.74505805969E-08  0.10566000000E+00  0.10566000000E+00 0. -1.
     999900   -1    0    0    0    0 -0.00000000000E+00 -0.00000000000E+00 -0.74505805969E-08  0.93827000000E+00  0.93827000000E+00 0. -1.
     999902    2    1    2    0    0 -0.31717574232E-02 -0.17555164007E-01 -0.16131925376E-01  0.10198783297E+01  0.10195946864E+01 0.  0.
     999903    2    3    3    0    0  0.57582234711E-01 -0.24566988406E-01 -0.11466480427E+00  0.13226977776E+00  0.20688791533E-01 0.  0.
         14    1    1    2    0    0  0.31717574232E-02  0.17555164007E-01  0.16131925376E-01  0.24051670312E-01  0.00000000000E+00 0. -1.
     999901    1    3    3    0    0 -0.60753992134E-01  0.70118243989E-02  0.98532878896E-01  0.88760855193E+00  0.88000000000E+00 0.  1.
        -11    1    4    4    0    0  0.29843383907E-01 -0.23359470246E-01 -0.71929452919E-01  0.81304364775E-01  0.51100000000E-03 0. -1.
         11    1    4    4    0    0  0.27738850804E-01 -0.12075181596E-02 -0.42735351352E-01  0.50965412980E-01  0.51100000000E-03 0.  1.
</event>
<event>
 8    1  0.1051655E+005  0.1043930E+01  0.7957747E-01            NaN
         13   -1    0    0    0    0  0.00000000000E+00  0.00000000000E+00  0.74505805969E-08  0.10566000000E+00  0.10566000000E+00 0. -1.
     999900   -1    0    0    0    0 -0.00000000000E+00 -0.00000000000E+00 -0.74505805969E-08  0.93827000000E+00  0.93827000000E+00 0. -1.
     999902    2    1    2    0    0  0.10234439411E-01 -0.27368236681E-02  0.18628509481E-01  0.10224997569E+01  0.10222751575E+01 0.  0.
     999903    2    3    3    0    0 -0.27908134739E-01 -0.11687539987E+00  0.54835445978E-01  0.13357151863E+00  0.19892244088E-01 0.  0.
         14    1    1    2    0    0 -0.10234439411E-01  0.27368236681E-02 -0.18628509481E-01  0.21430243100E-01  0.00000000000E+00 0.  1.
     999901    1    3    3    0    0  0.38142574150E-01  0.11413857620E+00 -0.36206936498E-01  0.88892823827E+00  0.88000000000E+00 0.  1.
        -11    1    4    4    0    0 -0.19872506705E-01 -0.43425814308E-01  0.24751471733E-01  0.53792326079E-01  0.51100000000E-03 0. -1.
         11    1    4    4    0    0 -0.80356280340E-02 -0.73449585561E-01  0.30083974245E-01  0.79779192553E-01  0.51100000000E-03 0.  1.
</event>
<event>
 8    1  0.1051655E+005  0.1043930E+01  0.7957747E-01            NaN
         13   -1    0    0    0    0  0.00000000000E+00  0.00000000000E+00  0.74505805969E-08  0.10566000000E+00  0.10566000000E+00 0. -1.
     999900   -1    0    0    0    0 -0.00000000000E+00 -0.00000000000E+00 -0.74505805969E-08  0.93827000000E+00  0.93827000000E+00 0. -1.
     999902    2    1    2    0    0  0.15442889604E-01  0.16033695037E-01 -0.64458313128E-02  0.10207543456E+01  0.10204912166E+01 0.  0.
     999903    2    3    3    0    0 -0.91693846007E-02 -0.11740430326E+00  0.47937156770E-01  0.12869550626E+00  0.19917687998E-01 0.  0.
         14    1    1    2    0    0 -0.15442889604E-01 -0.16033695037E-01  0.64458313128E-02  0.23175654407E-01  0.00000000000E+00 0. -1.
     999901    1    3    3    0    0  0.24612274205E-01  0.13343799830E+00 -0.54382988083E-01  0.89205883933E+00  0.88000000000E+00 0. -1.
        -11    1    4    4    0    0 -0.11318704323E-01 -0.97170447679E-01  0.46424440612E-01  0.10828526574E+00  0.51100000000E-03 0. -1.
         11    1    4    4    0    0  0.21493197219E-02 -0.20233855583E-01  0.15127161577E-02  0.20410240523E-01  0.51100000000E-03 0.  1.
</event>
<event>
 8    1  0.1051655E+005  0.1043930E+01  0.7957747E-01            NaN
         13   -1    0    0    0    0  0.00000000000E+00  0.00000000000E+00  0.74505805969E-08  0.10566000000E+00  0.10566000000E+00 0. -1.
     999900   -1    0    0    0    0 -0.00000000000E+00 -0.00000000000E+00 -0.74505805969E-08  0.93827000000E+00  0.93827000000E+00 0.  1.
     999902    2    1    2    0    0  0.15874760855E-01 -0.72638747669E-02  0.16762072651E-01  0.10197279549E+01  0.10194407109E+01 0.  0.
     999903    2    3    3    0    0 -0.14530920506E-01  0.11171691577E+00 -0.57855104012E-01  0.12807294478E+00  0.19069588448E-01 0.  0.
         14    1    1    2    0    0 -0.15874760855E-01  0.72638747669E-02 -0.16762072651E-01  0.24202045128E-01  0.00000000000E+00 0.  1.
     999901    1    3    3    0    0  0.30405681361E-01 -0.11898079054E+00  0.74617176663E-01  0.89165501010E+00  0.88000000000E+00 0. -1.
        -11    1    4    4    0    0 -0.12974811560E-01  0.35325915647E-01 -0.15434982522E-01  0.40678813378E-01  0.51100000000E-03 0.  1.
         11    1    4    4    0    0 -0.15561089458E-02  0.76391000122E-01 -0.42420121490E-01  0.87394131398E-01  0.51100000000E-03 0. -1.
</event>
<event>
 8    1  0.1051655E+005  0.1043930E+01  0.7957747E-01            NaN
         13   -1    0    0    0    0  0.00000000000E+00  0.00000000000E+00  0.74505805969E-08  0.10566000000E+00  0.10566000000E+00 0.  1.
     999900   -1    0    0    0    0 -0.00000000000E+00 -0.00000000000E+00 -0.74505805969E-08  0.93827000000E+00  0.93827000000E+00 0.  1.
     999902    2    1    2    0    0  0.18325778342E-01  0.31990579986E-01 -0.65403806512E-03  0.10070564441E+01  0.10063811517E+01 0.  0.
     999903    2    3    3    0    0 -0.13121286682E-01  0.35542807812E-01  0.11147709039E+00  0.11937692636E+00  0.19704048188E-01 0.  0.
         14    1    1    2    0    0 -0.18325778342E-01 -0.31990579986E-01  0.65403806512E-03  0.36873555910E-01  0.00000000000E+00 0. -1.
     999901    1    3    3    0    0  0.31447065024E-01 -0.35522278267E-02 -0.11213112846E+00  0.88767951773E+00  0.88000000000E+00 0.  1.
        -11    1    4    4    0    0 -0.70232149365E-02  0.17776746037E-01  0.28645329722E-01  0.34440590639E-01  0.51100000000E-03 0. -1.
         11    1    4    4    0    0 -0.60980717451E-02  0.17766061775E-01  0.82831760668E-01  0.84936335725E-01  0.51100000000E-03 0.  1.
</event>
<event>
 8    1  0.1051655E+005  0.1043930E+01  0.7957747E-01            NaN
         13   -1    0    0    0    0  0.00000000000E+00  0.00000000000E+00  0.74505805969E-08  0.10566000000E+00  0.10566000000E+00 0. -1.
     999900   -1    0    0    0    0 -0.00000000000E+00 -0.00000000000E+00 -0.74505805969E-08  0.93827000000E+00  0.93827000000E+00 0.  1.
     999902    2    1    2    0    0  0.20552744184E-01 -0.11183834933E-01 -0.10720494549E-02  0.10205068758E+01  0.10202380314E+01 0.  0.
     999903    2    3    3    0    0 -0.30847039156E-01  0.10580613500E+00  0.63609715877E-01  0.12892831978E+00  0.20732526541E-01 0.  0.
         14    1    1    2    0    0 -0.20552744184E-01  0.11183834933E-01  0.10720494549E-02  0.23423124202E-01  0.00000000000E+00 0. -1.
     999901    1    3    3    0    0  0.51399783341E-01 -0.11698996994E+00 -0.64681765332E-01  0.89157855602E+00  0.88000000000E+00 0. -1.
        -11    1    4    4    0    0 -0.14857118134E-01  0.21304086117E-01  0.11871164274E-01  0.28561927574E-01  0.51100000000E-03 0. -1.
         11    1    4    4    0    0 -0.15989921022E-01  0.84502048888E-01  0.51738551603E-01  0.10036639220E+00  0.51100000000E-03 0.  1.
</event>
<event>
 8    1  0.1051655E+005  0.1043930E+01  0.7957747E-01            NaN
         13   -1    0    0    0    0  0.00000000000E+00  0.00000000000E+00  0.74505805969E-08  0.10566000000E+00  0.10566000000E+00 0.  1.
     999900   -1    0    0    0    0 -0.00000000000E+00 -0.00000000000E+00 -0.74505805969E-08  0.93827000000E+00  0.93827000000E+00 0. -1.
     999902    2    1    2    0    0 -0.89637747355E-03  0.12537134513E-01  0.20428896055E-01  0.10199441077E+01  0.10196620322E+01 0.  0.
     999903    2    3    3    0    0  0.14444082126E-01 -0.10503923849E+00  0.73401715834E-01  0.13041296559E+00  0.19438533231E-01 0.  0.
         14    1    1    2    0    0  0.89637747355E-03 -0.12537134513E-01 -0.20428896055E-01  0.23985892278E-01  0.00000000000E+00 0. -1.
     999901    1    3    3    0    0 -0.15340459600E-01  0.11757637301E+00 -0.52972819779E-01  0.88953114213E+00  0.88000000000E+00 0.  1.
        -11    1    4    4    0    0  0.41603376655E-02 -0.83306783876E-02  0.12745619964E-01  0.15793054206E-01  0.51100000000E-03 0.  1.
         11    1    4    4    0    0  0.10283744461E-01 -0.96708560107E-01  0.60656095870E-01  0.11461991138E+00  0.51100000000E-03 0. -1.
</event>
<event>
 8    1  0.1051655E+005  0.1043930E+01  0.7957747E-01            NaN
         13   -1    0    0    0    0  0.00000000000E+00  0.00000000000E+00  0.74505805969E-08  0.10566000000E+00  0.10566000000E+00 0.  1.
     999900   -1    0    0    0    0 -0.00000000000E+00 -0.00000000000E+00 -0.74505805969E-08  0.93827000000E+00  0.93827000000E+00 0. -1.
     999902    2    1    2    0    0  0.22706042274E-01  0.61929586639E-02  0.13993355480E-03  0.10203941407E+01  0.10201226719E+01 0.  0.
     999903    2    3    3    0    0  0.11824527339E+00  0.50599672896E-01 -0.30157039851E-01  0.13359224197E+00  0.19878845191E-01 0.  0.
         14    1    1    2    0    0 -0.22706042274E-01 -0.61929586639E-02 -0.13993355480E-03  0.23535859324E-01  0.00000000000E+00 0. -1.
     999901    1    3    3    0    0 -0.95539231114E-01 -0.44406714232E-01  0.30296973406E-01  0.88680189871E+00  0.88000000000E+00 0. -1.
        -11    1    4    4    0    0  0.10803510962E+00  0.42659767934E-01 -0.32088827168E-01  0.12050474953E+00  0.51100000000E-03 0.  1.
         11    1    4    4    0    0  0.10210163772E-01  0.79399049622E-02  0.19317873162E-02  0.13087492437E-01  0.51100000000E-03 0. -1.
</event>
<event>
 8    1  0.1051655E+005  0.1043930E+01  0.7957747E-01            NaN
         13   -1    0    0    0    0  0.00000000000E+00  0.00000000000E+00  0.74505805969E-08  0.10566000000E+00  0.10566000000E+00 0. -1.
     999900   -1    0    0    0    0 -0.00000000000E+00 -0.00000000000E+00 -0.74505805969E-08  0.93827000000E+00  0.93827000000E+00 0.  1.
     999902    2    1    2    0    0 -0.17844627916E-01  0.87958120806E-02  0.12115828240E-01  0.10206364312E+01  0.10203705867E+01 0.  0.
     999903    2    3    3    0    0  0.10170038728E+00 -0.10310426661E-01  0.77777772489E-01  0.12992460910E+00  0.19538384981E-01 0.  0.
         14    1    1    2    0    0  0.17844627916E-01 -0.87958120806E-02 -0.12115828240E-01  0.23293568846E-01  0.00000000000E+00 0.  1.
     999901    1    3    3    0    0 -0.11954501519E+00  0.19106238741E-01 -0.65661944249E-01  0.89071182205E+00  0.88000000000E+00 0.  1.
        -11    1    4    4    0    0  0.67348163633E-01  0.24116587235E-02  0.52162140484E-01  0.85221718262E-01  0.51100000000E-03 0. -1.
         11    1    4    4    0    0  0.34352223643E-01 -0.12722085384E-01  0.25615632005E-01  0.44702890843E-01  0.51100000000E-03 0.  1.
</event>
<event>
 8    1  0.1051655E+005  0.1043930E+01  0.7957747E-01            NaN
         13   -1    0    0    0    0  0.00000000000E+00  0.00000000000E+00  0.74505805969E-08  0.10566000000E+00  0.10566000000E+00 0.  1.
     999900   -1    0    0    0    0 -0.00000000000E+00 -0.00000000000E+00 -0.74505805969E-08  0.93827000000E+00  0.93827000000E+00 0.  1.
     999902    2    1    2    0    0 -0.22504431125E-01  0.11061677536E-01  0.69147587384E-02  0.10179180024E+01  0.10175855913E+01 0.  0.
     999903    2    3    3    0    0 -0.89685845847E-01 -0.63067646250E-01 -0.65357505521E-01  0.12930572514E+00  0.20670947683E-01 0.  0.
         14    1    1    2    0    0  0.22504431125E-01 -0.11061677536E-01 -0.69147587384E-02  0.26011997589E-01  0.00000000000E+00 0.  1.
     999901    1    3    3    0    0  0.67181414722E-01  0.74129323786E-01  0.72272264260E-01  0.88861227727E+00  0.88000000000E+00 0. -1.
        -11    1    4    4    0    0 -0.62766883976E-01 -0.35355756078E-01 -0.50175491926E-01  0.87792666681E-01  0.51100000000E-03 0. -1.
         11    1    4    4    0    0 -0.26918961871E-01 -0.27711890172E-01 -0.15182013595E-01  0.41513058462E-01  0.51100000000E-03 0.  1.
</event>
<event>
 8    1  0.1051655E+005  0.1043930E+01  0.7957747E-01            NaN
         13   -1    0    0    0    0  0.00000000000E+00  0.00000000000E+00  0.74505805969E-08  0.10566000000E+00  0.10566000000E+00 0. -1.
     999900   -1    0    0    0    0 -0.00000000000E+00 -0.00000000000E+00 -0.74505805969E-08  0.93827000000E+00  0.93827000000E+00 0.  1.
     999902    2    1    2    0    0 -0.13868360711E-01  0.13689389596E-01 -0.13752885629E-01  0.10200789480E+01  0.10198000723E+01 0.  0.
     999903    2    3    3    0    0  0.25652049478E-01  0.12707682608E+00  0.93935543393E-02  0.13162279760E+00  0.20731006128E-01 0.  0.
         14    1    1    2    0    0  0.13868360711E-01 -0.13689389596E-01  0.13752885629E-01  0.23851051957E-01  0.00000000000E+00 0. -1.
     999901    1    3    3    0    0 -0.39520410188E-01 -0.11338743649E+00 -0.23146439968E-01  0.88845615044E+00  0.88000000000E+00 0.  1.
        -11    1    4    4    0    0  0.41044974375E-02  0.54414571491E-01  0.11635023757E-01  0.55798094847E-01  0.51100000000E-03 0.  1.
         11    1    4    4    0    0  0.21547552040E-01  0.72662254594E-01 -0.22414694178E-02  0.75824702754E-01  0.51100000000E-03 0. -1.
</event>
<event>
 8    1  0.1051655E+005  0.1043930E+01  0.7957747E-01            NaN
         13   -1    0    0    0    0  0.00000000000E+00  0.00000000000E+00  0.74505805969E-08  0.10566000000E+00  0.10566000000E+00 0.  1.
     999900   -1    0    0    0    0 -0.00000000000E+00 -0.00000000000E+00 -0.74505805969E-08  0.93827000000E+00  0.93827000000E+00 0. -1.
     999902    2    1    2    0    0 -0.68823014190E-02 -0.13594761416E-01  0.14286229943E-01  0.10230426838E+01  0.10228294349E+01 0.  0.
     999903    2    3    3    0    0 -0.13011463552E+00 -0.67177783993E-02 -0.22210946343E-01  0.13368024650E+00  0.20053310047E-01 0.  0.
         14    1    1    2    0    0  0.68823014190E-02  0.13594761416E-01 -0.14286229943E-01  0.20887316170E-01  0.00000000000E+00 0. -1.
     999901    1    3    3    0    0  0.12323233410E+00 -0.68769830165E-02  0.36497176286E-01  0.88936243733E+00  0.88000000000E+00 0. -1.
        -11    1    4    4    0    0 -0.75416934563E-01 -0.29531106141E-02 -0.22808617570E-01  0.78847504955E-01  0.51100000000E-03 0. -1.
         11    1    4    4    0    0 -0.54697700953E-01 -0.37646677853E-02  0.59767122680E-03  0.54832741542E-01  0.51100000000E-03 0.  1.
</event>
<event>
 8    1  0.1051655E+005  0.1043930E+01  0.7957747E-01            NaN
         13   -1    0    0    0    0  0.00000000000E+00  0.00000000000E+00  0.74505805969E-08  0.10566000000E+00  0.10566000000E+00 0. -1.
     999900   -1    0    0    0    0 -0.00000000000E+00 -0.00000000000E+00 -0.74505805969E-08  0.93827000000E+00  0.93827000000E+00 0. -1.
     999902    2    1    2    0    0  0.11448755701E-01  0.21919899352E-01 -0.66887250952E-02  0.10183117440E+01  0.10179894464E+01 0.  0.
     999903    2    3    3    0    0 -0.28208745495E-01 -0.11986589963E+00 -0.18036373037E-01  0.12600871295E+00  0.19731137079E-01 0.  0.
         14    1    1    2    0    0 -0.11448755701E-01 -0.21919899352E-01  0.66887250952E-02  0.25618255953E-01  0.00000000000E+00 0.  1.
     999901    1    3    3    0    0  0.39657501195E-01  0.14178579898E+00  0.11347647941E-01  0.89230303110E+00  0.88000000000E+00 0. -1.
        -11    1    4    4    0    0 -0.16027708675E-01 -0.77508724596E-01 -0.20824326194E-01  0.81843775062E-01  0.51100000000E-03 0. -1.
         11    1    4    4    0    0 -0.12181036820E-01 -0.42357175032E-01  0.27879531577E-02  0.44164937886E-01  0.51100000000E-03 0.  1.
</event>
<event>
 8    1  0.1051655E+005  0.1043930E+01  0.7957747E-01            NaN
         13   -1    0    0    0    0  0.00000000000E+00  0.00000000000E+00  0.74505805969E-08  0.10566000000E+00  0.10566000000E+00 0. -1.
     999900   -1    0    0    0    0 -0.00000000000E+00 -0.00000000000E+00 -0.74505805969E-08  0.93827000000E+00  0.93827000000E+00 0.  1.
     999902    2    1    2    0    0  0.51098406057E-02  0.21381301325E-01 -0.94711153300E-02  0.10199931551E+01  0.10197122457E+01 0.  0.
     999903    2    3    3    0    0  0.96880866393E-01 -0.66831932375E-01 -0.51400471729E-01  0.12984621966E+00  0.19121265866E-01 0.  0.
         14    1    1    2    0    0 -0.51098406057E-02 -0.21381301325E-01  0.94711153300E-02  0.23936844883E-01  0.00000000000E+00 0. -1.
     999901    1    3    3    0    0 -0.91771025787E-01  0.88213233700E-01  0.41929356399E-01  0.89014693546E+00  0.88000000000E+00 0. -1.
        -11    1    4    4    0    0  0.32092004599E-01 -0.11805390247E-01 -0.13300041977E-01  0.36693544877E-01  0.51100000000E-03 0. -1.
         11    1    4    4    0    0  0.64788861794E-01 -0.55026542128E-01 -0.38100429752E-01  0.93152674784E-01  0.51100000000E-03 0.  1.
</event>
<event>
 8    1  0.1051655E+005  0.1043930E+01  0.7957747E-01            NaN
         13   -1    0    0    0    0  0.00000000000E+00  0.00000000000E+00  0.74505805969E-08  0.10566000000E+00  0.10566000000E+00 0. -1.
     999900   -1    0    0    0    0 -0.00000000000E+00 -0.00000000000E+00 -0.74505805969E-08  0.93827000000E+00  0.93827000000E+00 0. -1.
     999902    2    1    2    0    0 -0.15932844798E-01  0.17451119754E-01 -0.15946747518E-02  0.10202458257E+01  0.10199708843E+01 0.  0.
     999903    2    3    3    0    0  0.10115748731E-03 -0.11173730147E+00  0.60492264679E-01  0.12850509801E+00  0.19209668274E-01 0.  0.
         14    1    1    2    0    0  0.15932844798E-01 -0.17451119754E-01  0.15946747518E-02  0.23684174286E-01  0.00000000000E+00 0. -1.
     999901    1    3    3    0    0 -0.16034002285E-01  0.12918842122E+00 -0.62086939431E-01  0.89174072771E+00  0.88000000000E+00 0.  1.
        -11    1    4    4    0    0 -0.94423036644E-02 -0.47934335087E-01  0.26579071084E-01  0.55619832069E-01  0.51100000000E-03 0. -1.
         11    1    4    4    0    0  0.95434611517E-02 -0.63802966381E-01  0.33913193595E-01  0.72885265936E-01  0.51100000000E-03 0.  1.
</event>
<event>
 8    1  0.1051655E+005  0.1043930E+01  0.7957747E-01            NaN
         13   -1    0    0    0    0  0.00000000000E+00  0.00000000000E+00  0.74505805969E-08  0.10566000000E+00  0.10566000000E+00 0. -1.
     999900   -1    0    0    0    0 -0.00000000000E+00 -0.00000000000E+00 -0.74505805969E-08  0.93827000000E+00  0.93827000000E+00 0.  1.
     999902    2    1    2    0    0 -0.71288271700E-02 -0.91991013565E-02 -0.22724550410E-01  0.10183986696E+01  0.10180785831E+01 0.  0.
     999903    2    3    3    0    0  0.67056117368E-01 -0.10886128726E+00 -0.18518538310E-02  0.12942643897E+00  0.20011771592E-01 0.  0.
         14    1    1    2    0    0  0.71288271700E-02  0.91991013565E-02  0.22724550410E-01  0.25531330438E-01  0.00000000000E+00 0. -1.
     999901    1    3    3    0    0 -0.74184944538E-01  0.99662185904E-01 -0.20872696579E-01  0.88897223059E+00  0.88000000000E+00 0. -1.
        -11    1    4    4    0    0  0.75198817506E-02 -0.27993787220E-01 -0.15759998444E-03  0.28991148704E-01  0.51100000000E-03 0.  1.
         11    1    4    4    0    0  0.59536235618E-01 -0.80867500041E-01 -0.16942538466E-02  0.10043529027E+00  0.51100000000E-03 0. -1.
</event>
<event>
 8    1  0.1051655E+005  0.1043930E+01  0.7957747E-01            NaN
         13   -1    0    0    0    0  0.00000000000E+00  0.00000000000E+00  0.74505805969E-08  0.10566000000E+00  0.10566000000E+00 0.  1.
     999900   -1    0    0    0    0 -0.00000000000E+00 -0.00000000000E+00 -0.74505805969E-08  0.93827000000E+00  0.93827000000E+00 0. -1.
     999902    2    1    2    0    0 -0.78782126983E-02 -0.19992288704E-01  0.53556374895E-03  0.10224347756E+01  0.10222087975E+01 0.  0.
     999903    2    3    3    0    0 -0.48648345164E-01  0.97554293341E-01 -0.69950639935E-01  0.13089245606E+00  0.18874357960E-01 0.  0.
         14    1    1    2    0    0  0.78782126983E-02  0.19992288704E-01 -0.53556374895E-03  0.21495224388E-01  0.00000000000E+00 0. -1.
     999901    1    3    3    0    0  0.40770132466E-01 -0.11754658204E+00  0.70486203684E-01  0.89154231956E+00  0.88000000000E+00 0.  1.
        -11    1    4    4    0    0 -0.41294837357E-01  0.63801117239E-01 -0.50433639493E-01  0.91212166222E-01  0.51100000000E-03 0. -1.
         11    1    4    4    0    0 -0.73535078067E-02  0.33753176102E-01 -0.19517000442E-01  0.39680289833E-01  0.51100000000E-03 0.  1.
</event>
<event>
 8    1  0.1051655E+005  0.1043930E+01  0.7957747E-01            NaN
         13   -1    0    0    0    0  0.00000000000E+00  0.00000000000E+00  0.74505805969E-08  0.10566000000E+00  0.10566000000E+00 0. -1.
     999900   -1    0    0    0    0 -0.00000000000E+00 -0.00000000000E+00 -0.74505805969E-08  0.93827000000E+00  0.93827000000E+00 0.  1.
     999902    2    1    2    0    0  0.15976905105E-01  0.90543806144E-02 -0.14694789245E-01  0.10204102182E+01  0.10201391245E+01 0.  0.
     999903    2    3    3    0    0 -0.74459716884E-01  0.44248038782E-01  0.92872415243E-01  0.12856489548E+00  0.20037676073E-01 0.  0.
         14    1    1    2    0    0 -0.15976905105E-01 -0.90543806144E-02  0.14694789245E-01  0.23519781801E-01  0.00000000000E+00 0. -1.
     999901    1    3    3    0    0  0.90436621989E-01 -0.35193658168E-01 -0.10756720449E+00  0.89184532272E+00  0.88000000000E+00 0.  1.
        -11    1    4    4    0    0 -0.33668234434E-01  0.17461588205E-01  0.54903197289E-01  0.66731396405E-01  0.51100000000E-03 0. -1.
         11    1    4    4    0    0 -0.40791482450E-01  0.26786450577E-01  0.37969217954E-01  0.61833499076E-01  0.51100000000E-03 0.  1.
</event>
<event>
 8    1  0.1051655E+005  0.1043930E+01  0.7957747E-01            NaN
         13   -1    0    0    0    0  0.00000000000E+00  0.00000000000E+00  0.74505805969E-08  0.10566000000E+00  0.10566000000E+00 0.  1.
     999900   -1    0    0    0    0 -0.00000000000E+00 -0.00000000000E+00 -0.74505805969E-08  0.93827000000E+00  0.93827000000E+00 0.  1.
     999902    2    1    2    0    0  0.11195875725E-01  0.68174541967E-02  0.20266550856E-01  0.10197937534E+01  0.10195080878E+01 0.  0.
     999903    2    3    3    0    0 -0.67953554701E-03  0.51042992193E-01 -0.11584793053E+00  0.12815252757E+00  0.19911767746E-01 0.  0.
         14    1    1    2    0    0 -0.11195875725E-01 -0.68174541967E-02 -0.20266550856E-01  0.24136246571E-01  0.00000000000E+00 0. -1.
     999901    1    3    3    0    0  0.11875411272E-01 -0.44225537996E-01  0.13611448138E+00  0.89164122586E+00  0.88000000000E+00 0. -1.
        -11    1    4    4    0    0  0.70094393387E-02  0.42511995501E-01 -0.86632891575E-01  0.96757020546E-01  0.51100000000E-03 0.  1.
         11    1    4    4    0    0 -0.76889748857E-02  0.85309966922E-02 -0.29215038954E-01  0.31395507026E-01  0.51100000000E-03 0. -1.
</event>
<event>
 8    1  0.1051655E+005  0.1043930E+01  0.7957747E-01            NaN
         13   -1    0    0    0    0  0.00000000000E+00  0.00000000000E+00  0.74505805969E-08  0.10566000000E+00  0.10566000000E+00 0. -1.
     999900   -1    0    0    0    0 -0.00000000000E+00 -0.00000000000E+00 -0.74505805969E-08  0.93827000000E+00  0.93827000000E+00 0.  1.
     999902    2    1    2    0    0  0.22265824997E-01  0.71036507064E-02  0.74920728930E-03  0.10205464560E+01  0.10202785300E+01 0.  0.
     999903    2    3    3    0    0  0.43256473558E-02  0.83607780331E-01 -0.99120995690E-01  0.13141834983E+00  0.20900687281E-01 0.  0.
         14    1    1    2    0    0 -0.22265824997E-01 -0.71036507064E-02 -0.74920728930E-03  0.23383543951E-01  0.00000000000E+00 0.  1.
     999901    1    3    3    0    0  0.17940177641E-01 -0.76504129625E-01  0.99870202980E-01  0.88912810622E+00  0.88000000000E+00 0. -1.
        -11    1    4    4    0    0  0.12472160726E-01  0.58677602806E-01 -0.71300223910E-01  0.93180464234E-01  0.51100000000E-03 0. -1.
         11    1    4    4    0    0 -0.81465133699E-02  0.24930177525E-01 -0.27820771780E-01  0.38237885598E-01  0.51100000000E-03 0.  1.
</event>
<event>
 8    1  0.1051655E+005  0.1043930E+01  0.7957747E-01            NaN
         13   -1    0    0    0    0  0.00000000000E+00  0.00000000000E+00  0.74505805969E-08  0.10566000000E+00  0.10566000000E+00 0.  1.
     999900   -1    0    0    0    0 -0.00000000000E+00 -0.00000000000E+00 -0.74505805969E-08  0.93827000000E+00  0.93827000000E+00 0. -1.
     999902    2    1    2    0    0 -0.52589089831E-02 -0.19759391162E-01 -0.13396005805E-01  0.10194853148E+01  0.10191922117E+01 0.  0.
     999903    2    3    3    0    0 -0.32041125726E-01  0.14402437977E-01 -0.12497913459E+00  0.13137771303E+00  0.20155779316E-01 0.  0.
         14    1    1    2    0    0  0.52589089831E-02  0.19759391162E-01  0.13396005805E-01  0.24444685196E-01  0.00000000000E+00 0.  1.
     999901    1    3    3    0    0  0.26782216743E-01 -0.34161829140E-01  0.11158312879E+00  0.88810760178E+00  0.88000000000E+00 0.  1.
        -11    1    4    4    0    0 -0.26191340196E-01  0.21329019071E-02 -0.92592885508E-01  0.96250917604E-01  0.51100000000E-03 0.  1.
         11    1    4    4    0    0 -0.58497855307E-02  0.12269536070E-01 -0.32386249082E-01  0.35126795424E-01  0.51100000000E-03 0. -1.
</event>
<event>
 8    1  0.1051655E+005  0.1043930E+01  0.7957747E-01            NaN
         13   -1    0    0    0    0  0.00000000000E+00  0.00000000000E+00  0.74505805969E-08  0.10566000000E+00  0.10566000000E+00 0.  1.
     999900   -1    0    0    0    0 -0.00000000000E+00 -0.00000000000E+00 -0.74505805969E-08  0.93827000000E+00  0.93827000000E+00 0.  1.
     999902    2    1    2    0    0  0.55268371018E-02 -0.19606631759E-01 -0.69586165727E-02  0.10224035446E+01  0.10221769024E+01 0.  0.
     999903    2    3    3    0    0  0.95747257011E-01  0.81373103491E-01  0.31595783809E-01  0.13121160518E+00  0.20714067283E-01 0.  0.
         14    1    1    2    0    0 -0.55268371018E-02  0.19606631759E-01  0.69586165727E-02  0.21526455396E-01  0.00000000000E+00 0. -1.
     999901    1    3    3    0    0 -0.90220419909E-01 -0.10097973525E+00 -0.38554400382E-01  0.89119193942E+00  0.88000000000E+00 0. -1.
        -11    1    4    4    0    0  0.48318996832E-01  0.49667732430E-01  0.25484900174E-01  0.73833260509E-01  0.51100000000E-03 0. -1.
         11    1    4    4    0    0  0.47428260179E-01  0.31705371062E-01  0.61108836356E-02  0.57378344674E-01  0.51100000000E-03 0.  1.
</event>
<event>
 8    1  0.1051655E+005  0.1043930E+01  0.7957747E-01            NaN
         13   -1    0    0    0    0  0.00000000000E+00  0.00000000000E+00  0.74505805969E-08  0.10566000000E+00  0.10566000000E+00 0.  1.
     999900   -1    0    0    0    0 -0.00000000000E+00 -0.00000000000E+00 -0.74505805969E-08  0.93827000000E+00  0.93827000000E+00 0.  1.
     999902    2    1    2    0    0  0.20675469050E-01 -0.10442092179E-02 -0.90728990428E-02  0.10213272813E+01  0.10210771434E+01 0.  0.
     999903    2    3    3    0    0  0.11311471703E-01  0.50063671722E-01 -0.12085787751E+00  0.13273537201E+00  0.19435323681E-01 0.  0.
         14    1    1    2    0    0 -0.20675469050E-01  0.10442092179E-02  0.90728990428E-02  0.22602718650E-01  0.00000000000E+00 0.  1.
     999901    1    3    3    0    0  0.93639973476E-02 -0.51107880940E-01  0.11178497847E+00  0.88859190934E+00  0.88000000000E+00 0. -1.
        -11    1    4    4    0    0  0.26828971110E-02  0.20205598217E-01 -0.71968627722E-01  0.74801127221E-01  0.51100000000E-03 0.  1.
         11    1    4    4    0    0  0.86285745917E-02  0.29858073505E-01 -0.48889249789E-01  0.57934244785E-01  0.51100000000E-03 0. -1.
</event>
<event>
 8    1  0.1051655E+005  0.1043930E+01  0.7957747E-01            NaN
         13   -1    0    0    0    0  0.00000000000E+00  0.00000000000E+00  0.74505805969E-08  0.10566000000E+00  0.10566000000E+00 0. -1.
     999900   -1    0    0    0    0 -0.00000000000E+00 -0.00000000000E+00 -0.74505805969E-08  0.93827000000E+00  0.93827000000E+00 0.  1.
     999902    2    1    2    0    0  0.57057208601E-02  0.39932120282E-02  0.23422635151E-01  0.10194939441E+01  0.10192010504E+01 0.  0.
     999903    2    3    3    0    0  0.21994416458E-01 -0.86944326505E-01 -0.88575562566E-01  0.12759789977E+00  0.19812205195E-01 0.  0.
         14    1    1    2    0    0 -0.57057208601E-02 -0.39932120282E-02 -0.23422635151E-01  0.24436055947E-01  0.00000000000E+00 0.  1.
     999901    1    3    3    0    0 -0.16288695598E-01  0.90937538533E-01  0.11199819772E+00  0.89189604428E+00  0.88000000000E+00 0.  1.
        -11    1    4    4    0    0  0.15243005103E-01 -0.52629769101E-01 -0.66793241607E-01  0.86393518539E-01  0.51100000000E-03 0.  1.
         11    1    4    4    0    0  0.67514113555E-02 -0.34314557404E-01 -0.21782320959E-01  0.41204381229E-01  0.51100000000E-03 0. -1.
</event>
<event>
 8    1  0.1051655E+005  0.1043930E+01  0.7957747E-01            NaN
         13   -1    0    0    0    0  0.00000000000E+00  0.00000000000E+00  0.74505805969E-08  0.10566000000E+00  0.10566000000E+00 0.  1.
     999900   -1    0    0    0    0 -0.00000000000E+00 -0.00000000000E+00 -0.74505805969E-08  0.93827000000E+00  0.93827000000E+00 0.  1.
     999902    2    1    2    0    0  0.19057180354E-01  0.10564814084E-01  0.89588354658E-02  0.10203704552E+01  0.10200984333E+01 0.  0.
     999903    2    3    3    0    0 -0.51538072567E-01  0.31199110639E-02 -0.11617689960E+00  0.12868773777E+00  0.19938783379E-01 0.  0.
         14    1    1    2    0    0 -0.19057180354E-01 -0.10564814084E-01 -0.89588354658E-02  0.23559544830E-01  0.00000000000E+00 0. -1.
     999901    1    3    3    0    0  0.70595252922E-01  0.74449030204E-02  0.12513573507E+00  0.89168271740E+00  0.88000000000E+00 0. -1.
        -11    1    4    4    0    0 -0.11819844116E-01  0.93745503254E-02 -0.29493731920E-01  0.33132042683E-01  0.51100000000E-03 0.  1.
         11    1    4    4    0    0 -0.39718228452E-01 -0.62546392615E-02 -0.86683167682E-01  0.95555695089E-01  0.51100000000E-03 0. -1.
</event>
<event>
 8    1  0.1051655E+005  0.1043930E+01  0.7957747E-01            NaN
         13   -1    0    0    0    0  0.00000000000E+00  0.00000000000E+00  0.74505805969E-08  0.10566000000E+00  0.10566000000E+00 0.  1.
     999900   -1    0    0    0    0 -0.00000000000E+00 -0.00000000000E+00 -0.74505805969E-08  0.93827000000E+00  0.93827000000E+00 0. -1.
     999902    2    1    2    0    0  0.95278302022E-02  0.21844027545E-01  0.12145287486E-02  0.10200675574E+01  0.10197884121E+01 0.  0.
     999903    2    3    3    0    0  0.51421589159E-01 -0.11142601382E-01 -0.11764461688E+00  0.13047737014E+00  0.20389969160E-01 0.  0.
         14    1    1    2    0    0 -0.95278302022E-02 -0.21844027545E-01 -0.12145287486E-02  0.23862442621E-01  0.00000000000E+00 0. -1.
     999901    1    3    3    0    0 -0.41893758957E-01  0.32986628927E-01  0.11885914562E+00  0.88959018724E+00  0.88000000000E+00 0.  1.
        -11    1    4    4    0    0  0.19673282930E-01  0.28158423542E-02 -0.59938488750E-01  0.63149430592E-01  0.51100000000E-03 0. -1.
         11    1    4    4    0    0  0.31748306229E-01 -0.13958443737E-01 -0.57706128126E-01  0.67327939552E-01  0.51100000000E-03 0.  1.
</event>
<event>
 8    1  0.1051655E+005  0.1043930E+01  0.7957747E-01            NaN
         13   -1    0    0    0    0  0.00000000000E+00  0.00000000000E+00  0.74505805969E-08  0.10566000000E+00  0.10566000000E+00 0.  1.
     999900   -1    0    0    0    0 -0.00000000000E+00 -0.00000000000E+00 -0.74505805969E-08  0.93827000000E+00  0.93827000000E+00 0.  1.
     999902    2    1    2    0    0  0.19763148425E-01  0.96434372349E-02  0.13171999364E-01  0.10182964383E+01  0.10179737505E+01 0.  0.
     999903    2    3    3    0    0 -0.54607114202E-01 -0.10809743744E+00 -0.18124488569E-01  0.12679583838E+00  0.32889126486E-01 0.  0.
         14    1    1    2    0    0 -0.19763148425E-01 -0.96434372349E-02 -0.13171999364E-01  0.25633561684E-01  0.00000000000E+00 0. -1.
     999901    1    3    3    0    0  0.74370262627E-01  0.11774087468E+00  0.31296487932E-01  0.89150059994E+00  0.88000000000E+00 0.  1.
        -11    1    4    4    0    0 -0.21813816038E-01 -0.17110036673E-01 -0.10950163912E-01  0.29812130682E-01  0.51100000000E-03 0. -1.
         11    1    4    4    0    0 -0.32793298164E-01 -0.90987400769E-01 -0.71743246564E-02  0.96983707696E-01  0.51100000000E-03 0.  1.
</event>
<event>
 8    1  0.1051655E+005  0.1043930E+01  0.7957747E-01            NaN
         13   -1    0    0    0    0  0.00000000000E+00  0.00000000000E+00  0.74505805969E-08  0.10566000000E+00  0.10566000000E+00 0.  1.
     999900   -1    0    0    0    0 -0.00000000000E+00 -0.00000000000E+00 -0.74505805969E-08  0.93827000000E+00  0.93827000000E+00 0.  1.
     999902    2    1    2    0    0 -0.22988225335E-01  0.20299228380E-02 -0.22418898046E-02  0.10207436859E+01  0.10204803120E+01 0.  0.
     999903    2    3    3    0    0 -0.11371598462E-01 -0.96426697699E-01  0.85283470610E-01  0.13086204162E+00  0.20595686353E-01 0.  0.
         14    1    1    2    0    0  0.22988225335E-01 -0.20299228380E-02  0.22418898046E-02  0.23186314082E-01  0.00000000000E+00 0.  1.
     999901    1    3    3    0    0 -0.11616626873E-01  0.98456620537E-01 -0.87525360415E-01  0.88988164430E+00  0.88000000000E+00 0. -1.
        -11    1    4    4    0    0 -0.13476759942E-01 -0.66322265678E-01  0.68640575911E-01  0.96395309873E-01  0.51100000000E-03 0.  1.
         11    1    4    4    0    0  0.21051614802E-02 -0.30104432021E-01  0.16642894699E-01  0.34466731744E-01  0.51100000000E-03 0. -1.
</event>
<event>
 8    1  0.1051655E+005  0.1043930E+01  0.7957747E-01            NaN
         13   -1    0    0    0    0  0.00000000000E+00  0.00000000000E+00  0.74505805969E-08  0.10566000000E+00  0.10566000000E+00 0.  1.
     999900   -1    0    0    0    0 -0.00000000000E+00 -0.00000000000E+00 -0.74505805969E-08  0.93827000000E+00  0.93827000000E+00 0.  1.
     999902    2    1    2    0    0  0.21673965761E-01 -0.10206943121E-01 -0.48558860470E-03  0.10199679826E+01  0.10196864750E+01 0.  0.
     999903    2    3    3    0    0 -0.68876242232E-01 -0.66502966370E-01 -0.84961229635E-01  0.12951600958E+00  0.19733345283E-01 0.  0.
         14    1    1    2    0    0 -0.21673965761E-01  0.10206943121E-01  0.48558860470E-03  0.23962017360E-01  0.00000000000E+00 0.  1.
     999901    1    3    3    0    0  0.90550207993E-01  0.56296023250E-01  0.84475641030E-01  0.89045197306E+00  0.88000000000E+00 0. -1.
        -11    1    4    4    0    0 -0.65462619148E-01 -0.60846032143E-01 -0.84295273826E-01  0.12285580346E+00  0.51100000000E-03 0. -1.
         11    1    4    4    0    0 -0.34136230841E-02 -0.56569342270E-02 -0.66595580878E-03  0.66602061191E-02  0.51100000000E-03 0.  1.
</event>
<event>
 8    1  0.1051655E+005  0.1043930E+01  0.7957747E-01            NaN
         13   -1    0    0    0    0  0.00000000000E+00  0.00000000000E+00  0.74505805969E-08  0.10566000000E+00  0.10566000000E+00 0.  1.
     999900   -1    0    0    0    0 -0.00000000000E+00 -0.00000000000E+00 -0.74505805969E-08  0.93827000000E+00  0.93827000000E+00 0. -1.
     999902    2    1    2    0    0 -0.36643570467E-02 -0.66557450144E-02  0.21744519350E-01  0.10208963165E+01  0.10206364379E+01 0.  0.
     999903    2    3    3    0    0 -0.45863042618E-01 -0.81110079568E-01  0.93188991977E-01  0.13386278293E+00  0.23511544855E-01 0.  0.
         14    1    1    2    0    0  0.36643570467E-02  0.66557450144E-02 -0.21744519350E-01  0.23033683509E-01  0.00000000000E+00 0. -1.
     999901    1    3    3    0    0  0.42198685571E-01  0.74454334554E-01 -0.71444472628E-01  0.88703353356E+00  0.88000000000E+00 0. -1.
        -11    1    4    4    0    0 -0.43951585512E-01 -0.77310554887E-01  0.78702208346E-01  0.11875589453E+00  0.51100000000E-03 0.  1.
         11    1    4    4    0    0 -0.19114571061E-02 -0.37995246807E-02  0.14486783631E-01  0.15106888397E-01  0.51100000000E-03 0. -1.
</event>
<event>
 8    1  0.1051655E+005  0.1043930E+01  0.7957747E-01            NaN
         13   -1    0    0    0    0  0.00000000000E+00  0.00000000000E+00  0.74505805969E-08  0.10566000000E+00  0.10566000000E+00 0.  1.
     999900   -1    0    0    0    0 -0.00000000000E+00 -0.00000000000E+00 -0.74505805969E-08  0.93827000000E+00  0.93827000000E+00 0.  1.
     999902    2    1    2    0    0 -0.25629148920E-02 -0.43209447717E-02  0.22012573594E-01  0.10213514152E+01  0.10211018171E+01 0.  0.
     999903    2    3    3    0    0 -0.78538474418E-01 -0.81440611223E-01 -0.62393530278E-01  0.13070888365E+00  0.19773581439E-01 0.  0.
         14    1    1    2    0    0  0.25629148920E-02  0.43209447717E-02 -0.22012573594E-01  0.22578584825E-01  0.00000000000E+00 0. -1.
     999901    1    3    3    0    0  0.75975559527E-01  0.77119666452E-01  0.84406103872E-01  0.89064253153E+00  0.88000000000E+00 0. -1.
        -11    1    4    4    0    0 -0.48565072360E-01 -0.46784920437E-01 -0.26318651806E-01  0.72390106973E-01  0.51100000000E-03 0. -1.
         11    1    4    4    0    0 -0.29973402058E-01 -0.34655690786E-01 -0.36074878472E-01  0.58318776673E-01  0.51100000000E-03 0.  1.
</event>
<event>
 8    1  0.1051655E+005  0.1043930E+01  0.7957747E-01            NaN
         13   -1    0    0    0    0  0.00000000000E+00  0.00000000000E+00  0.74505805969E-08  0.10566000000E+00  0.10566000000E+00 0. -1.
     999900   -1    0    0    0    0 -0.00000000000E+00 -0.00000000000E+00 -0.74505805969E-08  0.93827000000E+00  0.93827000000E+00 0. -1.
     999902    2    1    2    0    0 -0.21985823072E-01 -0.71593631513E-03  0.94112780300E-02  0.10200038399E+01  0.10197231842E+01 0.  0.
     999903    2    3    3    0    0  0.47927043008E-01  0.10936990590E+00  0.46229026382E-01  0.12963186818E+00  0.20211892569E-01 0.  0.
         14    1    1    2    0    0  0.21985823072E-01  0.71593631513E-03 -0.94112780300E-02  0.23926160058E-01  0.00000000000E+00 0. -1.
     999901    1    3    3    0    0 -0.69912866081E-01 -0.11008584221E+00 -0.36817748352E-01  0.89037197176E+00  0.88000000000E+00 0.  1.
        -11    1    4    4    0    0  0.36335117281E-01  0.71523093847E-01  0.21872187109E-01  0.83153156231E-01  0.51100000000E-03 0.  1.
         11    1    4    4    0    0  0.11591925727E-01  0.37846812049E-01  0.24356839273E-01  0.46478711952E-01  0.51100000000E-03 0. -1.
</event>
<event>
 8    1  0.1051655E+005  0.1043930E+01  0.7957747E-01            NaN
         13   -1    0    0    0    0  0.00000000000E+00  0.00000000000E+00  0.74505805969E-08  0.10566000000E+00  0.10566000000E+00 0. -1.
     999900   -1    0    0    0    0 -0.00000000000E+00 -0.00000000000E+00 -0.74505805969E-08  0.93827000000E+00  0.93827000000E+00 0. -1.
     999902    2    1    2    0    0 -0.27118010364E-01 -0.27817218582E-03  0.38140734637E-02  0.10165436709E+01  0.10161747014E+01 0.  0.
     999903    2    3    3    0    0 -0.88095607731E-02 -0.12532852454E+00 -0.58356639067E-02  0.12746217441E+00  0.20680993849E-01 0.  0.
         14    1    1    2    0    0  0.27118010364E-01  0.27817218582E-03 -0.38140734637E-02  0.27386329113E-01  0.00000000000E+00 0. -1.
     999901    1    3    3    0    0 -0.18308449591E-01  0.12505035236E+00  0.96497373705E-02  0.88908149648E+00  0.88000000000E+00 0.  1.
        -11    1    4    4    0    0 -0.11768593970E-01 -0.11717465380E+00 -0.92459728359E-02  0.11812767852E+00  0.51100000000E-03 0.  1.
         11    1    4    4    0    0  0.29590331970E-02 -0.81538707438E-02  0.34103089292E-02  0.93344958921E-02  0.51100000000E-03 0. -1.
</event>
<event>
 8    1  0.1051655E+005  0.1043930E+01  0.7957747E-01            NaN
         13   -1    0    0    0    0  0.00000000000E+00  0.00000000000E+00  0.74505805969E-08  0.10566000000E+00  0.10566000000E+00 0. -1.
     999900   -1    0    0    0    0 -0.00000000000E+00 -0.00000000000E+00 -0.74505805969E-08  0.93827000000E+00  0.93827000000E+00 0.  1.
     999902    2    1    2    0    0  0.16659685370E-01  0.14645948509E-01 -0.55090064659E-02  0.10210739707E+01  0.10208181305E+01 0.  0.
     999903    2    3    3    0    0 -0.14623933840E-01  0.10283800509E+00  0.79193652812E-01  0.13206832155E+00  0.19516459216E-01 0.  0.
         14    1    1    2    0    0 -0.16659685370E-01 -0.14645948509E-01  0.55090064659E-02  0.22856029327E-01  0.00000000000E+00 0.  1.
     999901    1    3    3    0    0  0.31283619210E-01 -0.88192056583E-01 -0.84702659278E-01  0.88900564912E+00  0.88000000000E+00 0.  1.
        -11    1    4    4    0    0  0.16234175934E-02  0.56707833219E-01  0.40576393746E-01  0.69750402748E-01  0.51100000000E-03 0. -1.
         11    1    4    4    0    0 -0.16247351433E-01  0.46130171873E-01  0.38617259066E-01  0.62317918807E-01  0.51100000000E-03 0.  1.
</event>
<event>
 8    1  0.1051655E+005  0.1043930E+01  0.7957747E-01            NaN
         13   -1    0    0    0    0  0.00000000000E+00  0.00000000000E+00  0.74505805969E-08  0.10566000000E+00  0.10566000000E+00 0. -1.
     999900   -1    0    0    0    0 -0.00000000000E+00 -0.00000000000E+00 -0.74505805969E-08  0.93827000000E+00  0.93827000000E+00 0. -1.
     999902    2    1    2    0    0  0.16660622093E-01 -0.16409315264E-01  0.31096617405E-02  0.10203394945E+01  0.10200667488E+01 0.  0.
     999903    2    3    3    0    0 -0.79159721476E-01  0.98899395412E-01 -0.45261465217E-02  0.12762680687E+00  0.14858126139E-01 0.  0.
         14    1    1    2    0    0 -0.16660622093E-01  0.16409315264E-01 -0.31096617405E-02  0.23590505550E-01  0.00000000000E+00 0.  1.
     999901    1    3    3    0    0  0.95820343569E-01 -0.11530871068E+00  0.76358082622E-02  0.89271268758E+00  0.88000000000E+00 0. -1.
        -11    1    4    4    0    0 -0.43705778468E-01  0.57145709533E-01  0.46087172794E-02  0.72092500202E-01  0.51100000000E-03 0.  1.
         11    1    4    4    0    0 -0.35453943008E-01  0.41753685880E-01 -0.91348638011E-02  0.55534306667E-01  0.51100000000E-03 0. -1.
</event>
<event>
 8    1  0.1051655E+005  0.1043930E+01  0.7957747E-01            NaN
         13   -1    0    0    0    0  0.00000000000E+00  0.00000000000E+00  0.74505805969E-08  0.10566000000E+00  0.10566000000E+00 0. -1.
     999900   -1    0    0    0    0 -0.00000000000E+00 -0.00000000000E+00 -0.74505805969E-08  0.93827000000E+00  0.93827000000E+00 0.  1.
     999902    2    1    2    0    0  0.13736392094E-02 -0.51884831648E-02  0.24882155957E-01  0.10184755519E+01  0.10181574146E+01 0.  0.
     999903    2    3    3    0    0  0.84734667535E-02  0.11911904985E+00  0.46393177472E-01  0.12945052732E+00  0.18546278097E-01 0.  0.
         14    1    1    2    0    0 -0.13736392094E-02  0.51884831648E-02 -0.24882155957E-01  0.25454448084E-01  0.00000000000E+00 0.  1.
     999901    1    3    3    0    0 -0.70998275441E-02 -0.12430753301E+00 -0.21511021515E-01  0.88902502460E+00  0.88000000000E+00 0.  1.
        -11    1    4    4    0    0 -0.18029318084E-02  0.69611186315E-01  0.33454696163E-01  0.77255715903E-01  0.51100000000E-03 0.  1.
         11    1    4    4    0    0  0.10276398562E-01  0.49507863533E-01  0.12938481309E-01  0.52194811415E-01  0.51100000000E-03 0. -1.
</event>
<event>
 8    1  0.1051655E+005  0.1043930E+01  0.7957747E-01            NaN
         13   -1    0    0    0    0  0.00000000000E+00  0.00000000000E+00  0.74505805969E-08  0.10566000000E+00  0.10566000000E+00 0.  1.
     999900   -1    0    0    0    0 -0.00000000000E+00 -0.00000000000E+00 -0.74505805969E-08  0.93827000000E+00  0.93827000000E+00 0. -1.
     999902    2    1    2    0    0  0.15120974695E-01  0.17418904283E-01 -0.10623916097E-01  0.10185345340E+01  0.10182178879E+01 0.  0.
     999903    2    3    3    0    0  0.11573959637E+00 -0.38532897207E-01 -0.41828552497E-01  0.13048698993E+00  0.19919548271E-01 0.  0.
         14    1    1    2    0    0 -0.15120974695E-01 -0.17418904283E-01  0.10623916097E-01  0.25395466040E-01  0.00000000000E+00 0. -1.
     999901    1    3    3    0    0 -0.10061862167E+00  0.55951801490E-01  0.31204636400E-01  0.88804754403E+00  0.88000000000E+00 0. -1.
        -11    1    4    4    0    0  0.21283484279E-01 -0.12203778671E-01 -0.19060873052E-02  0.24613272978E-01  0.51100000000E-03 0.  1.
         11    1    4    4    0    0  0.94456112090E-01 -0.26329118536E-01 -0.39922465192E-01  0.10587371696E+00  0.51100000000E-03 0. -1.
</event>
<event>
 8    1  0.1051655E+005  0.1043930E+01  0.7957747E-01            NaN
         13   -1    0    0    0    0  0.00000000000E+00  0.00000000000E+00  0.74505805969E-08  0.10566000000E+00  0.10566000000E+00 0.  1.
     999900   -1    0    0    0    0 -0.00000000000E+00 -0.00000000000E+00 -0.74505805969E-08  0.93827000000E+00  0.93827000000E+00 0. -1.
     999902    2    1    2    0    0 -0.13335120845E-01 -0.97234330164E-02  0.17698491503E-01  0.10197306777E+01  0.10194434991E+01 0.  0.
     999903    2    3    3    0    0 -0.11724874773E+00 -0.37669149290E-01  0.45303085203E-01  0.13274645096E+00  0.20075284876E-01 0.  0.
         14    1    1    2    0    0  0.13335120845E-01  0.97234330164E-02 -0.17698491503E-01  0.24199322285E-01  0.00000000000E+00 0.  1.
     999901    1    3    3    0    0  0.10391362688E+00  0.27945716274E-01 -0.27604593700E-01  0.88698422675E+00  0.88000000000E+00 0. -1.
        -11    1    4    4    0    0 -0.83587958242E-01 -0.33102119179E-01  0.39839469765E-01  0.98336877769E-01  0.51100000000E-03 0. -1.
         11    1    4    4    0    0 -0.33660789486E-01 -0.45670301113E-02  0.54636154374E-02  0.34409573196E-01  0.51100000000E-03 0.  1.
</event>
<event>
 8    1  0.1051655E+005  0.1043930E+01  0.7957747E-01            NaN
         13   -1    0    0    0    0  0.00000000000E+00  0.00000000000E+00  0.74505805969E-08  0.10566000000E+00  0.10566000000E+00 0.  1.
     999900   -1    0    0    0    0 -0.00000000000E+00 -0.00000000000E+00 -0.74505805969E-08  0.93827000000E+00  0.93827000000E+00 0.  1.
     999902    2    1    2    0    0 -0.87267777916E-02  0.20331664189E-01 -0.89525541054E-02  0.10200619996E+01  0.10197827227E+01 0.  0.
     999903    2    3    3    0    0 -0.59321591768E-01 -0.96374055888E-01 -0.59619915979E-01  0.12947385578E+00  0.20048317939E-01 0.  0.
         14    1    1    2    0    0  0.87267777916E-02 -0.20331664189E-01  0.89525541054E-02  0.23868000426E-01  0.00000000000E+00 0.  1.
     999901    1    3    3    0    0  0.50594813976E-01  0.11670572008E+00  0.50667361874E-01  0.89058814379E+00  0.88000000000E+00 0. -1.
        -11    1    4    4    0    0 -0.42411877649E-01 -0.71618221964E-01 -0.33556604945E-01  0.89745439658E-01  0.51100000000E-03 0.  1.
         11    1    4    4    0    0 -0.16909714118E-01 -0.24755833924E-01 -0.26063311034E-01  0.39728416126E-01  0.51100000000E-03 0. -1.
</event>
<event>
 8    1  0.1051655E+005  0.1043930E+01  0.7957747E-01            NaN
         13   -1    0    0    0    0  0.00000000000E+00  0.00000000000E+00  0.74505805969E-08  0.10566000000E+00  0.10566000000E+00 0. -1.
     999900   -1    0    0    0    0 -0.00000000000E+00 -0.00000000000E+00 -0.74505805969E-08  0.93827000000E+00  0.93827000000E+00 0. -1.
     999902    2    1    2    0    0 -0.19899489929E-01 -0.16061687198E-01 -0.42915218566E-02  0.10179996191E+01  0.10176693175E+01 0.  0.
     999903    2    3    3    0    0  0.83654271891E-01  0.89574964745E-01 -0.18096809189E-01  0.12554621986E+00  0.20313722027E-01 0.  0.
         14    1    1    2    0    0  0.19899489929E-01  0.16061687198E-01  0.42915218566E-02  0.25930380925E-01  0.00000000000E+00 0. -1.
     999901    1    3    3    0    0 -0.10355376182E+00 -0.10563665194E+00  0.13805287332E-01  0.89245339922E+00  0.88000000000E+00 0.  1.
        -11    1    4    4    0    0  0.81612509419E-02  0.16452387475E-01  0.21964340177E-02  0.18503310892E-01  0.51100000000E-03 0. -1.
         11    1    4    4    0    0  0.75493020949E-01  0.73122577270E-01 -0.20293243206E-01  0.10704290896E+00  0.51100000000E-03 0.  1.
</event>
<event>
 8    1  0.1051655E+005  0.1043930E+01  0.7957747E-01            NaN
         13   -1    0    0    0    0  0.00000000000E+00  0.00000000000E+00  0.74505805969E-08  0.10566000000E+00  0.10566000000E+00 0.  1.
     999900   -1    0    0    0    0 -0.00000000000E+00 -0.00000000000E+00 -0.74505805969E-08  0.93827000000E+00  0.93827000000E+00 0.  1.
     999902    2    1    2    0    0 -0.12465276245E-01  0.19500557268E-01 -0.21023923438E-02  0.10206904884E+01  0.10204258906E+01 0.  0.
     999903    2    3    3    0    0  0.22713759691E-01 -0.48431756870E-01  0.11620093150E+00  0.12948454121E+00  0.20050934598E-01 0.  0.
         14    1    1    2    0    0  0.12465276245E-01 -0.19500557268E-01  0.21023923438E-02  0.23239511595E-01  0.00000000000E+00 0. -1.
     999901    1    3    3    0    0 -0.35179035936E-01  0.67932314138E-01 -0.11830332385E+00  0.89120594719E+00  0.88000000000E+00 0.  1.
        -11    1    4    4    0    0  0.18395823909E-01 -0.16039903266E-01  0.47502161060E-01  0.53407876389E-01  0.51100000000E-03 0.  1.
         11    1    4    4    0    0  0.43179357820E-02 -0.32391853605E-01  0.68698770445E-01  0.76076664826E-01  0.51100000000E-03 0. -1.
</event>
<event>
 8    1  0.1051655E+005  0.1043930E+01  0.7957747E-01            NaN
         13   -1    0    0    0    0  0.00000000000E+00  0.00000000000E+00  0.74505805969E-08  0.10566000000E+00  0.10566000000E+00 0.  1.
     999900   -1    0    0    0    0 -0.00000000000E+00 -0.00000000000E+00 -0.74505805969E-08  0.93827000000E+00  0.93827000000E+00 0. -1.
     999902    2    1    2    0    0 -0.18276843045E-01 -0.15171948691E-01  0.16192055813E-02  0.10201213284E+01  0.10198434545E+01 0.  0.
     999903    2    3    3    0    0 -0.10044224342E+00 -0.23168096405E-01 -0.80617653490E-01  0.13244008355E+00  0.20390309508E-01 0.  0.
         14    1    1    2    0    0  0.18276843045E-01  0.15171948691E-01 -0.16192055813E-02  0.23808671645E-01  0.00000000000E+00 0. -1.
     999901    1    3    3    0    0  0.82165400371E-01  0.79961477139E-02  0.82236859071E-01  0.88768124481E+00  0.88000000000E+00 0.  1.
        -11    1    4    4    0    0 -0.74089196329E-01 -0.24666227636E-01 -0.53938526215E-01  0.94906572637E-01  0.51100000000E-03 0. -1.
         11    1    4    4    0    0 -0.26353047086E-01  0.14981312308E-02 -0.26679127276E-01  0.37533510908E-01  0.51100000000E-03 0.  1.
</event>
<event>
 8    1  0.1051655E+005  0.1043930E+01  0.7957747E-01            NaN
         13   -1    0    0    0    0  0.00000000000E+00  0.00000000000E+00  0.74505805969E-08  0.10566000000E+00  0.10566000000E+00 0.  1.
     999900   -1    0    0    0    0 -0.00000000000E+00 -0.00000000000E+00 -0.74505805969E-08  0.93827000000E+00  0.93827000000E+00 0.  1.
     999902    2    1    2    0    0 -0.94838248718E-02  0.51812127101E-02 -0.28894144219E-01  0.10130810216E+01  0.10126112269E+01 0.  0.
     999903    2    3    3    0    0  0.55885832377E-01 -0.23185537047E-01 -0.10944273475E+00  0.12653382035E+00  0.19295079999E-01 0.  0.
         14    1    1    2    0    0  0.94838248718E-02 -0.51812127101E-02  0.28894144219E-01  0.30848978419E-01  0.00000000000E+00 0.  1.
     999901    1    3    3    0    0 -0.65369657249E-01  0.28366749758E-01  0.80548590536E-01  0.88654720124E+00  0.88000000000E+00 0. -1.
        -11    1    4    4    0    0  0.45598925955E-01 -0.10811547393E-01 -0.88215596708E-01  0.99891962784E-01  0.51100000000E-03 0. -1.
         11    1    4    4    0    0  0.10286906423E-01 -0.12373989655E-01 -0.21227138046E-01  0.26641857562E-01  0.51100000000E-03 0.  1.
</event>
<event>
 8    1  0.1051655E+005  0.1043930E+01  0.7957747E-01            NaN
         13   -1    0    0    0    0  0.00000000000E+00  0.00000000000E+00  0.74505805969E-08  0.10566000000E+00  0.10566000000E+00 0. -1.
     999900   -1    0    0    0    0 -0.00000000000E+00 -0.00000000000E+00 -0.74505805969E-08  0.93827000000E+00  0.93827000000E+00 0.  1.
     999902    2    1    2    0    0 -0.16122277702E-01 -0.54914486731E-02 -0.15921814667E-01  0.10206150256E+01  0.10203486867E+01 0.  0.
     999903    2    3    3    0    0  0.55435598753E-01  0.67330479368E-01 -0.95896896173E-01  0.13110978308E+00  0.19673877688E-01 0.  0.
         14    1    1    2    0    0  0.16122277702E-01  0.54914486731E-02  0.15921814667E-01  0.23314974354E-01  0.00000000000E+00 0. -1.
     999901    1    3    3    0    0 -0.71557876455E-01 -0.72821928042E-01  0.79975081506E-01  0.88950524256E+00  0.88000000000E+00 0. -1.
        -11    1    4    4    0    0  0.25879235632E-01  0.34806244240E-01 -0.61705396643E-01  0.75425636032E-01  0.51100000000E-03 0.  1.
         11    1    4    4    0    0  0.29556363122E-01  0.32524235128E-01 -0.34191499530E-01  0.55684147051E-01  0.51100000000E-03 0. -1.
</event>
<event>
 8    1  0.1051655E+005  0.1043930E+01  0.7957747E-01            NaN
         13   -1    0    0    0    0  0.00000000000E+00  0.00000000000E+00  0.74505805969E-08  0.10566000000E+00  0.10566000000E+00 0. -1.
     999900   -1    0    0    0    0 -0.00000000000E+00 -0.00000000000E+00 -0.74505805969E-08  0.93827000000E+00  0.93827000000E+00 0. -1.
     999902    2    1    2    0    0 -0.19338220120E-02  0.13536782245E-01 -0.17572922063E-01  0.10216636188E+01  0.10214209506E+01 0.  0.
     999903    2    3    3    0    0  0.25764313670E-01 -0.91665095090E-01  0.84915824226E-01  0.12906148750E+00  0.19490531938E-01 0.  0.
         14    1    1    2    0    0  0.19338220120E-02 -0.13536782245E-01  0.17572922063E-01  0.22266381182E-01  0.00000000000E+00 0. -1.
     999901    1    3    3    0    0 -0.27698135682E-01  0.10520187733E+00 -0.10248874629E+00  0.89260213132E+00  0.88000000000E+00 0. -1.
        -11    1    4    4    0    0  0.81183754484E-02 -0.34509364087E-01  0.19679766864E-01  0.40550691417E-01  0.51100000000E-03 0. -1.
         11    1    4    4    0    0  0.17645938222E-01 -0.57155731004E-01  0.65236057362E-01  0.88510796084E-01  0.51100000000E-03 0.  1.
</event>
<event>
 8    1  0.1051655E+005  0.1043930E+01  0.7957747E-01            NaN
         13   -1    0    0    0    0  0.00000000000E+00  0.00000000000E+00  0.74505805969E-08  0.10566000000E+00  0.10566000000E+00 0. -1.
     999900   -1    0    0    0    0 -0.00000000000E+00 -0.00000000000E+00 -0.74505805969E-08  0.93827000000E+00  0.93827000000E+00 0.  1.
     999902    2    1    2    0    0  0.10211560676E-01 -0.11480174229E-01 -0.14716294400E-01  0.10226546694E+01  0.10224333392E+01 0.  0.
     999903    2    3    3    0    0 -0.61020287554E-01 -0.15536388319E-01  0.11232118278E+00  0.13067431664E+00  0.22245765331E-01 0.  0.
         14    1    1    2    0    0 -0.10211560676E-01  0.11480174229E-01  0.14716294400E-01  0.21275330612E-01  0.00000000000E+00 0. -1.
     999901    1    3    3    0    0  0.71231848230E-01  0.40562140893E-02 -0.12703747717E+00  0.89198035274E+00  0.88000000000E+00 0.  1.
        -11    1    4    4    0    0 -0.52340547290E-01 -0.17187116201E-01  0.79798713552E-01  0.96969199540E-01  0.51100000000E-03 0.  1.
         11    1    4    4    0    0 -0.86797402640E-02  0.16507278826E-02  0.32522469223E-01  0.33705117104E-01  0.51100000000E-03 0. -1.
</event>
<event>
 7    1  0.1051655E+005  0.1043930E+01  0.7957747E-01            NaN
         13   -1    0    0    0    0  0.00000000000E+00  0.00000000000E+00  0.74505805969E-08  0.10566000000E+00  0.10566000000E+00 0.  1.
     999900   -1    0    0    0    0 -0.00000000000E+00 -0.00000000000E+00 -0.74505805969E-08  0.93827000000E+00  0.93827000000E+00 0.  1.
     999902    2    1    2    0    0  0.44622187030E-03 -0.13076732558E-01 -0.19952664553E-01  0.10200698057E+01  0.10197907137E+01 0.  0.
         14    1    1    2    0    0 -0.44622187030E-03  0.13076732558E-01  0.19952664553E-01  0.23860194281E-01  0.00000000000E+00 0.  1.
     999901    1    3    3    0    0  0.86248200899E-01  0.35886862498E-01  0.59288767557E-01  0.88692828178E+00  0.88000000000E+00 0. -1.
        -11    1    3    3    0    0 -0.47650525078E-01 -0.24836286139E-01 -0.17216491776E-01  0.56427673702E-01  0.51100000000E-03 0. -1.
         11    1    3    3    0    0 -0.38151453951E-01 -0.24127308917E-01 -0.62024940334E-01  0.76713850240E-01  0.51100000000E-03 0.  1.
</event>
<event>
 8    1  0.1051655E+005  0.1043930E+01  0.7957747E-01            NaN
         13   -1    0    0    0    0  0.00000000000E+00  0.00000000000E+00  0.74505805969E-08  0.10566000000E+00  0.10566000000E+00 0.  1.
     999900   -1    0    0    0    0 -0.00000000000E+00 -0.00000000000E+00 -0.74505805969E-08  0.93827000000E+00  0.93827000000E+00 0. -1.
     999902    2    1    2    0    0 -0.14974093958E-01 -0.93763633756E-02 -0.14665913393E-01  0.10209685389E+01  0.10207103060E+01 0.  0.
     999903    2    3    3    0    0 -0.28844807330E-01  0.10552805893E+00  0.65895118925E-01  0.12974157405E+00  0.22858591563E-01 0.  0.
         14    1    1    2    0    0  0.14974093958E-01  0.93763633756E-02  0.14665913393E-01  0.22961461095E-01  0.00000000000E+00 0.  1.
     999901    1    3    3    0    0  0.13870713373E-01 -0.11490442230E+00 -0.80561032318E-01  0.89122696485E+00  0.88000000000E+00 0. -1.
        -11    1    4    4    0    0 -0.83941996272E-02  0.26350324874E-01  0.28840553068E-01  0.39960490870E-01  0.51100000000E-03 0. -1.
         11    1    4    4    0    0 -0.20450607703E-01  0.79177734053E-01  0.37054565858E-01  0.89781083181E-01  0.51100000000E-03 0.  1.
</event>
<event>
 8    1  0.1051655E+005  0.1043930E+01  0.7957747E-01            NaN
         13   -1    0    0    0    0  0.00000000000E+00  0.00000000000E+00  0.74505805969E-08  0.10566000000E+00  0.10566000000E+00 0.  1.
     999900   -1    0    0    0    0 -0.00000000000E+00 -0.00000000000E+00 -0.74505805969E-08  0.93827000000E+00  0.93827000000E+00 0. -1.
     999902    2    1    2    0    0  0.63941137835E-02  0.10730111376E-02  0.22324996749E-01  0.10206826018E+01  0.10204178223E+01 0.  0.
     999903    2    3    3    0    0 -0.34645790960E-01  0.12118921100E+00 -0.27100886642E-01  0.13020234192E+00  0.18194397273E-01 0.  0.
         14    1    1    2    0    0 -0.63941137835E-02 -0.10730111376E-02 -0.22324996749E-01  0.23247398216E-01  0.00000000000E+00 0.  1.
     999901    1    3    3    0    0  0.41039904743E-01 -0.12011619986E+00  0.49425883391E-01  0.89048025986E+00  0.88000000000E+00 0.  1.
        -11    1    4    4    0    0 -0.43560978368E-02  0.33452552250E-01 -0.13726645479E-01  0.36424315471E-01  0.51100000000E-03 0. -1.
         11    1    4    4    0    0 -0.30289693123E-01  0.87736658749E-01 -0.13374241163E-01  0.93778026454E-01  0.51100000000E-03 0.  1.
</event>
<event>
 8    1  0.1051655E+005  0.1043930E+01  0.7957747E-01            NaN
         13   -1    0    0    0    0  0.00000000000E+00  0.00000000000E+00  0.74505805969E-08  0.10566000000E+00  0.10566000000E+00 0. -1.
     999900   -1    0    0    0    0 -0.00000000000E+00 -0.00000000000E+00 -0.74505805969E-08  0.93827000000E+00  0.93827000000E+00 0.  1.
     999902    2    1    2    0    0 -0.77875877502E-02  0.21163601305E-01  0.77780139143E-02  0.10200753979E+01  0.10197964381E+01 0.  0.
     999903    2    3    3    0    0 -0.13259186223E-01  0.24090645513E-01 -0.12552616855E+00  0.13001443868E+00  0.19767904614E-01 0.  0.
         14    1    1    2    0    0  0.77875877502E-02 -0.21163601305E-01 -0.77780139143E-02  0.23854602148E-01  0.00000000000E+00 0.  1.
     999901    1    3    3    0    0  0.54715984730E-02 -0.29270442080E-02  0.13330418247E+00  0.89006095917E+00  0.88000000000E+00 0. -1.
        -11    1    4    4    0    0 -0.11536142348E-01  0.20877733004E-01 -0.62784349392E-01  0.67164707735E-01  0.51100000000E-03 0. -1.
         11    1    4    4    0    0 -0.17230438755E-02  0.32129125096E-02 -0.62741819163E-01  0.62849730945E-01  0.51100000000E-03 0.  1.
</event>
<event>
 8    1  0.1051655E+005  0.1043930E+01  0.7957747E-01            NaN
         13   -1    0    0    0    0  0.00000000000E+00  0.00000000000E+00  0.74505805969E-08  0.10566000000E+00  0.10566000000E+00 0.  1.
     999900   -1    0    0    0    0 -0.00000000000E+00 -0.00000000000E+00 -0.74505805969E-08  0.93827000000E+00  0.93827000000E+00 0.  1.
     999902    2    1    2    0    0  0.61427798765E-02  0.69684002490E-02 -0.21369458200E-01  0.10206287964E+01  0.10203627756E+01 0.  0.
     999903    2    3    3    0    0 -0.12589561890E+00  0.17713678516E-01 -0.23805799427E-01  0.13070995990E+00  0.18838690612E-01 0.  0.
         14    1    1    2    0    0 -0.61427798765E-02 -0.69684002490E-02  0.21369458200E-01  0.23301203626E-01  0.00000000000E+00 0.  1.
     999901    1    3    3    0    0  0.13203839878E+00 -0.10745278267E-01  0.24363412271E-02  0.88991883648E+00  0.88000000000E+00 0.  1.
        -11    1    4    4    0    0 -0.99303367589E-01  0.62380718995E-02 -0.20048133930E-01  0.10150005493E+00  0.51100000000E-03 0. -1.
         11    1    4    4    0    0 -0.26592251316E-01  0.11475606616E-01 -0.37576654978E-02  0.29209904968E-01  0.51100000000E-03 0.  1.
</event>
<event>
 8    1  0.1051655E+005  0.1043930E+01  0.7957747E-01            NaN
         13   -1    0    0    0    0  0.00000000000E+00  0.00000000000E+00  0.74505805969E-08  0.10566000000E+00  0.10566000000E+00 0.  1.
     999900   -1    0    0    0    0 -0.00000000000E+00 -0.00000000000E+00 -0.74505805969E-08  0.93827000000E+00  0.93827000000E+00 0. -1.
     999902    2    1    2    0    0 -0.65659262357E-03 -0.22380246467E-01 -0.89831187524E-02  0.10198052623E+01  0.10195198723E+01 0.  0.
     999903    2    3    3    0    0 -0.26833998091E-01  0.78261208079E-01  0.94959933821E-01  0.12760678826E+00  0.20523723715E-01 0.  0.
         14    1    1    2    0    0  0.65659262357E-03  0.22380246467E-01  0.89831187524E-02  0.24124737684E-01  0.00000000000E+00 0.  1.
     999901    1    3    3    0    0  0.26177405468E-01 -0.10064145455E+00 -0.10394305257E+00  0.89219847406E+00  0.88000000000E+00 0.  1.
        -11    1    4    4    0    0 -0.21853042606E-01  0.68788213532E-01  0.70465522909E-01  0.10087132810E+00  0.51100000000E-03 0. -1.
         11    1    4    4    0    0 -0.49809554853E-02  0.94729945476E-02  0.24494410912E-01  0.26735460164E-01  0.51100000000E-03 0.  1.
</event>
<event>
 8    1  0.1051655E+005  0.1043930E+01  0.7957747E-01            NaN
         13   -1    0    0    0    0  0.00000000000E+00  0.00000000000E+00  0.74505805969E-08  0.10566000000E+00  0.10566000000E+00 0.  1.
     999900   -1    0    0    0    0 -0.00000000000E+00 -0.00000000000E+00 -0.74505805969E-08  0.93827000000E+00  0.93827000000E+00 0. -1.
     999902    2    1    2    0    0 -0.50529811403E-02 -0.21301965758E-01 -0.39881979769E-02  0.10216766388E+01  0.10214342574E+01 0.  0.
     999903    2    3    3    0    0 -0.15501678671E-01  0.10343857955E+00 -0.74502911223E-01  0.13002552778E+00  0.20398831143E-01 0.  0.
         14    1    1    2    0    0  0.50529811403E-02  0.21301965758E-01  0.39881979769E-02  0.22253361244E-01  0.00000000000E+00 0.  1.
     999901    1    3    3    0    0  0.10448697531E-01 -0.12474054531E+00  0.70514713246E-01  0.89165111098E+00  0.88000000000E+00 0.  1.
        -11    1    4    4    0    0 -0.57848143840E-02  0.59489382648E-01 -0.54039298116E-01  0.80578890456E-01  0.51100000000E-03 0.  1.
         11    1    4    4    0    0 -0.97168642871E-02  0.43949196903E-01 -0.20463613107E-01  0.49446637322E-01  0.51100000000E-03 0. -1.
</event>
<event>
 8    1  0.1051655E+005  0.1043930E+01  0.7957747E-01            NaN
         13   -1    0    0    0    0  0.00000000000E+00  0.00000000000E+00  0.74505805969E-08  0.10566000000E+00  0.10566000000E+00 0.  1.
     999900   -1    0    0    0    0 -0.00000000000E+00 -0.00000000000E+00 -0.74505805969E-08  0.93827000000E+00  0.93827000000E+00 0.  1.
     999902    2    1    2    0    0 -0.19369632452E-01  0.15114259291E-01 -0.48031611524E-02  0.10188961459E+01  0.10185885638E+01 0.  0.
     999903    2    3    3    0    0 -0.72753869913E-01  0.10821948609E+00 -0.81802019942E-02  0.13236929097E+00  0.21216284526E-01 0.  0.
         14    1    1    2    0    0  0.19369632452E-01 -0.15114259291E-01  0.48031611524E-02  0.25033854124E-01  0.00000000000E+00 0.  1.
     999901    1    3    3    0    0  0.53384237461E-01 -0.93105226804E-01  0.33770408417E-02  0.88652685491E+00  0.88000000000E+00 0.  1.
        -11    1    4    4    0    0 -0.33670412041E-01  0.32649792063E-01 -0.57494132664E-02  0.47254866868E-01  0.51100000000E-03 0.  1.
         11    1    4    4    0    0 -0.39083457872E-01  0.75569694031E-01 -0.24307887278E-02  0.85114424101E-01  0.51100000000E-03 0. -1.
</event>
<event>
 8    1  0.1051655E+005  0.1043930E+01  0.7957747E-01            NaN
         13   -1    0    0    0    0  0.00000000000E+00  0.00000000000E+00  0.74505805969E-08  0.10566000000E+00  0.10566000000E+00 0. -1.
     999900   -1    0    0    0    0 -0.00000000000E+00 -0.00000000000E+00 -0.74505805969E-08  0.93827000000E+00  0.93827000000E+00 0. -1.
     999902    2    1    2    0    0 -0.21094694279E-01 -0.79883902565E-02  0.55206073420E-02  0.10207076485E+01  0.10204434458E+01 0.  0.
     999903    2    3    3    0    0 -0.10138714785E+00 -0.49022078802E-01 -0.67992903313E-01  0.13305068885E+00  0.19923176012E-01 0.  0.
         14    1    1    2    0    0  0.21094694279E-01  0.79883902565E-02 -0.55206073420E-02  0.23222351540E-01  0.00000000000E+00 0. -1.
     999901    1    3    3    0    0  0.80292453574E-01  0.41033688546E-01  0.73513510655E-01  0.88765695961E+00  0.88000000000E+00 0.  1.
        -11    1    4    4    0    0 -0.74790527204E-01 -0.43598675612E-01 -0.45534917742E-01  0.97816958291E-01  0.51100000000E-03 0. -1.
         11    1    4    4    0    0 -0.26596620649E-01 -0.54234031903E-02 -0.22457985571E-01  0.35233730558E-01  0.51100000000E-03 0.  1.
</event>
<event>
 8    1  0.1051655E+005  0.1043930E+01  0.7957747E-01            NaN
         13   -1    0    0    0    0  0.00000000000E+00  0.00000000000E+00  0.74505805969E-08  0.10566000000E+00  0.10566000000E+00 0.  1.
     999900   -1    0    0    0    0 -0.00000000000E+00 -0.00000000000E+00 -0.74505805969E-08  0.93827000000E+00  0.93827000000E+00 0. -1.
     999902    2    1    2    0    0  0.87769906924E-02 -0.35306443848E-02 -0.20970956329E-01  0.10209238698E+01  0.10206646197E+01 0.  0.
     999903    2    3    3    0    0 -0.83409524858E-02 -0.10461025174E+00 -0.80180632109E-01  0.13299600301E+00  0.15688428635E-01 0.  0.
         14    1    1    2    0    0 -0.87769906924E-02  0.35306443848E-02  0.20970956329E-01  0.23006130156E-01  0.00000000000E+00 0.  1.
     999901    1    3    3    0    0  0.17117943178E-01  0.10107960735E+00  0.59209675780E-01  0.88792786684E+00  0.88000000000E+00 0. -1.
        -11    1    4    4    0    0 -0.42856291742E-02 -0.89073684580E-01 -0.61347795946E-01  0.10824186385E+00  0.51100000000E-03 0. -1.
         11    1    4    4    0    0 -0.40553233116E-02 -0.15536567159E-01 -0.18832836164E-01  0.24754139153E-01  0.51100000000E-03 0.  1.
</event>
<event>
 8    1  0.1051655E+005  0.1043930E+01  0.7957747E-01            NaN
         13   -1    0    0    0    0  0.00000000000E+00  0.00000000000E+00  0.74505805969E-08  0.10566000000E+00  0.10566000000E+00 0.  1.
     999900   -1    0    0    0    0 -0.00000000000E+00 -0.00000000000E+00 -0.74505805969E-08  0.93827000000E+00  0.93827000000E+00 0.  1.
     999902    2    1    2    0    0 -0.18518493155E-01  0.36732679644E-02  0.10070086501E-01  0.10225329411E+01  0.10223090441E+01 0.  0.
     999903    2    3    3    0    0  0.55009588736E-01  0.96272659135E-01 -0.65604873482E-01  0.13140571921E+00  0.25864722444E-01 0.  0.
         14    1    1    2    0    0  0.18518493155E-01 -0.36732679644E-02 -0.10070086501E-01  0.21397058872E-01  0.00000000000E+00 0. -1.
     999901    1    3    3    0    0 -0.73528081891E-01 -0.92599391170E-01  0.75674959983E-01  0.89112722192E+00  0.88000000000E+00 0.  1.
        -11    1    4    4    0    0  0.43691291874E-01  0.73732740595E-01 -0.62311811047E-01  0.10596447017E+00  0.51100000000E-03 0. -1.
         11    1    4    4    0    0  0.11318296863E-01  0.22539918540E-01 -0.32930624352E-02  0.25441249043E-01  0.51100000000E-03 0.  1.
</event>
<event>
 8    1  0.1051655E+005  0.1043930E+01  0.7957747E-01            NaN
         13   -1    0    0    0    0  0.00000000000E+00  0.00000000000E+00  0.74505805969E-08  0.10566000000E+00  0.10566000000E+00 0. -1.
     999900   -1    0    0    0    0 -0.00000000000E+00 -0.00000000000E+00 -0.74505805969E-08  0.93827000000E+00  0.93827000000E+00 0. -1.
     999902    2    1    2    0    0  0.16780255176E-01  0.15063843091E-01 -0.58743385042E-02  0.10206275498E+01  0.10203615003E+01 0.  0.
     999903    2    3    3    0    0 -0.70248343855E-01 -0.88786828095E-01  0.56187774972E-01  0.12809707700E+00  0.20829412405E-01 0.  0.
         14    1    1    2    0    0 -0.16780255176E-01 -0.15063843091E-01  0.58743385042E-02  0.23302450200E-01  0.00000000000E+00 0. -1.
     999901    1    3    3    0    0  0.87028599031E-01  0.10385067119E+00 -0.62062113476E-01  0.89253047280E+00  0.88000000000E+00 0.  1.
        -11    1    4    4    0    0 -0.34796782844E-01 -0.30802792420E-01  0.16066152160E-01  0.49173270010E-01  0.51100000000E-03 0. -1.
         11    1    4    4    0    0 -0.35451561011E-01 -0.57984035674E-01  0.40121622812E-01  0.78923806986E-01  0.51100000000E-03 0.  1.
</event>
<event>
 8    1  0.1051655E+005  0.1043930E+01  0.7957747E-01            NaN
         13   -1    0    0    0    0  0.00000000000E+00  0.00000000000E+00  0.74505805969E-08  0.10566000000E+00  0.10566000000E+00 0.  1.
     999900   -1    0    0    0    0 -0.00000000000E+00 -0.00000000000E+00 -0.74505805969E-08  0.93827000000E+00  0.93827000000E+00 0.  1.
     999902    2    1    2    0    0 -0.75504442766E-02  0.15763915312E-01  0.24799679035E-02  0.10262760918E+01  0.10261242401E+01 0.  0.
     999903    2    3    3    0    0 -0.45493833450E-01 -0.12443434614E+00  0.77974005441E-02  0.13435483495E+00  0.20900402788E-01 0.  0.
         14    1    1    2    0    0  0.75504442766E-02 -0.15763915312E-01 -0.24799679035E-02  0.17653908222E-01  0.00000000000E+00 0.  1.
     999901    1    3    3    0    0  0.37943389173E-01  0.14019826145E+00 -0.53174326406E-02  0.89192125683E+00  0.88000000000E+00 0. -1.
        -11    1    4    4    0    0 -0.12259729585E-01 -0.61624951255E-01 -0.28073872925E-03  0.62835304741E-01  0.51100000000E-03 0.  1.
         11    1    4    4    0    0 -0.33234103865E-01 -0.62809394887E-01  0.80781392734E-02  0.71519530206E-01  0.51100000000E-03 0. -1.
</event>
<event>
 8    1  0.1051655E+005  0.1043930E+01  0.7957747E-01            NaN
         13   -1    0    0    0    0  0.00000000000E+00  0.00000000000E+00  0.74505805969E-08  0.10566000000E+00  0.10566000000E+00 0.  1.
     999900   -1    0    0    0    0 -0.00000000000E+00 -0.00000000000E+00 -0.74505805969E-08  0.93827000000E+00  0.93827000000E+00 0. -1.
     999902    2    1    2    0    0  0.99663913215E-04  0.20629131592E-01  0.10597647943E-01  0.10207377352E+01  0.10204742246E+01 0.  0.
     999903    2    3    3    0    0 -0.81647741452E-01 -0.83894110687E-01  0.50980636348E-01  0.12987381060E+00  0.23740385531E-01 0.  0.
         14    1    1    2    0    0 -0.99663913215E-04 -0.20629131592E-01 -0.10597647943E-01  0.23192264767E-01  0.00000000000E+00 0.  1.
     999901    1    3    3    0    0  0.81747405365E-01  0.10452324228E+00 -0.40382988404E-01  0.89086392463E+00  0.88000000000E+00 0. -1.
        -11    1    4    4    0    0 -0.21765572623E-01 -0.13083386390E-01  0.19204220944E-01  0.31843027088E-01  0.51100000000E-03 0. -1.
         11    1    4    4    0    0 -0.59882168829E-01 -0.70810724296E-01  0.31776415403E-01  0.98030783512E-01  0.51100000000E-03 0.  1.
</event>
<event>
 8    1  0.1051655E+005  0.1043930E+01  0.7957747E-01            NaN
         13   -1    0    0    0    0  0.00000000000E+00  0.00000000000E+00  0.74505805969E-08  0.10566000000E+00  0.10566000000E+00 0.  1.
     999900   -1    0    0    0    0 -0.00000000000E+00 -0.00000000000E+00 -0.74505805969E-08  0.93827000000E+00  0.93827000000E+00 0.  1.
     999902    2    1    2    0    0 -0.22666561930E-01  0.33242353583E-02 -0.63665437486E-02  0.10201527746E+01  0.10198756429E+01 0.  0.
     999903    2    3    3    0    0 -0.99086280930E-02  0.91912100663E-01  0.89626590584E-01  0.13041952431E+00  0.20743949066E-01 0.  0.
         14    1    1    2    0    0  0.22666561930E-01 -0.33242353583E-02  0.63665437486E-02  0.23777225442E-01  0.00000000000E+00 0. -1.
     999901    1    3    3    0    0 -0.12757933837E-01 -0.88587865305E-01 -0.95993134332E-01  0.88973325025E+00  0.88000000000E+00 0.  1.
        -11    1    4    4    0    0  0.46127457615E-02  0.26201450213E-01  0.17930777421E-01  0.32086871407E-01  0.51100000000E-03 0. -1.
         11    1    4    4    0    0 -0.14521373854E-01  0.65710650450E-01  0.71695813163E-01  0.98332652905E-01  0.51100000000E-03 0.  1.
</event>
<event>
 8    1  0.1051655E+005  0.1043930E+01  0.7957747E-01            NaN
         13   -1    0    0    0    0  0.00000000000E+00  0.00000000000E+00  0.74505805969E-08  0.10566000000E+00  0.10566000000E+00 0.  1.
     999900   -1    0    0    0    0 -0.00000000000E+00 -0.00000000000E+00 -0.74505805969E-08  0.93827000000E+00  0.93827000000E+00 0.  1.
     999902    2    1    2    0    0 -0.24212882954E-01  0.81352997908E-04  0.16918190668E-02  0.10196579467E+01  0.10193690184E+01 0.  0.
     999903    2    3    3    0    0 -0.33088147821E-01  0.12200449711E+00  0.26435039740E-01  0.13086311641E+00  0.21128678793E-01 0.  0.
         14    1    1    2    0    0  0.24212882954E-01 -0.81352997908E-04 -0.16918190668E-02  0.24272053292E-01  0.00000000000E+00 0.  1.
     999901    1    3    3    0    0  0.88752648669E-02 -0.12192314412E+00 -0.24743220673E-01  0.88879483030E+00  0.88000000000E+00 0. -1.
        -11    1    4    4    0    0 -0.26485863658E-01  0.63222627237E-01  0.19726708973E-01  0.71330258211E-01  0.51100000000E-03 0.  1.
         11    1    4    4    0    0 -0.66022841629E-02  0.58781869878E-01  0.67083307665E-02  0.59532858198E-01  0.51100000000E-03 0. -1.
</event>
<event>
 8    1  0.1051655E+005  0.1043930E+01  0.7957747E-01            NaN
         13   -1    0    0    0    0  0.00000000000E+00  0.00000000000E+00  0.74505805969E-08  0.10566000000E+00  0.10566000000E+00 0.  1.
     999900   -1    0    0    0    0 -0.00000000000E+00 -0.00000000000E+00 -0.74505805969E-08  0.93827000000E+00  0.93827000000E+00 0.  1.
     999902    2    1    2    0    0 -0.23088047448E-01 -0.36631690562E-02 -0.26890030054E-02  0.10203990102E+01  0.10201276550E+01 0.  0.
     999903    2    3    3    0    0 -0.10200547518E+00  0.72370737663E-01 -0.39733438134E-01  0.13282850286E+00  0.20543233216E-01 0.  0.
         14    1    1    2    0    0  0.23088047448E-01  0.36631690562E-02  0.26890030054E-02  0.23530989772E-01  0.00000000000E+00 0.  1.
     999901    1    3    3    0    0  0.78917427728E-01 -0.76033906719E-01  0.37044435129E-01  0.88757050737E+00  0.88000000000E+00 0. -1.
        -11    1    4    4    0    0 -0.77040617695E-01  0.47739052907E-01 -0.36127332571E-01  0.97569048509E-01  0.51100000000E-03 0. -1.
         11    1    4    4    0    0 -0.24964857481E-01  0.24631684757E-01 -0.36061055634E-02  0.35259454354E-01  0.51100000000E-03 0.  1.
</event>
<event>
 8    1  0.1051655E+005  0.1043930E+01  0.7957747E-01            NaN
         13   -1    0    0    0    0  0.00000000000E+00  0.00000000000E+00  0.74505805969E-08  0.10566000000E+00  0.10566000000E+00 0.  1.
     999900   -1    0    0    0    0 -0.00000000000E+00 -0.00000000000E+00 -0.74505805969E-08  0.93827000000E+00  0.93827000000E+00 0.  1.
     999902    2    1    2    0    0  0.55688726621E-02 -0.43707846414E-02  0.23344158485E-01  0.10195360287E+01  0.10192441552E+01 0.  0.
     999903    2    3    3    0    0 -0.10944413687E+00 -0.40857650440E-01  0.55009860082E-01  0.13073796366E+00  0.20468603791E-01 0.  0.
         14    1    1    2    0    0 -0.55688726621E-02  0.43707846414E-02 -0.23344158485E-01  0.24393971314E-01  0.00000000000E+00 0. -1.
     999901    1    3    3    0    0  0.11501300953E+00  0.36486865799E-01 -0.31665701597E-01  0.88879806503E+00  0.88000000000E+00 0. -1.
        -11    1    4    4    0    0 -0.55980234799E-01 -0.17073429787E-01  0.38059655873E-01  0.69814663353E-01  0.51100000000E-03 0.  1.
         11    1    4    4    0    0 -0.53463902069E-01 -0.23784220653E-01  0.16950204210E-01  0.60923300307E-01  0.51100000000E-03 0. -1.
</event>
<event>
 8    1  0.1051655E+005  0.1043930E+01  0.7957747E-01            NaN
         13   -1    0    0    0    0  0.00000000000E+00  0.00000000000E+00  0.74505805969E-08  0.10566000000E+00  0.10566000000E+00 0.  1.
     999900   -1    0    0    0    0 -0.00000000000E+00 -0.00000000000E+00 -0.74505805969E-08  0.93827000000E+00  0.93827000000E+00 0. -1.
     999902    2    1    2    0    0  0.12178001380E-01 -0.11260245931E-01  0.15021332964E-01  0.10215528398E+01  0.10213077240E+01 0.  0.
     999903    2    3    3    0    0  0.13173453857E+00 -0.49351426371E-02  0.96492010504E-04  0.13332059345E+00  0.19900428190E-01 0.  0.
         14    1    1    2    0    0 -0.12178001380E-01  0.11260245931E-01 -0.15021332964E-01  0.22377160232E-01  0.00000000000E+00 0. -1.
     999901    1    3    3    0    0 -0.11955653719E+00 -0.63251032942E-02  0.14924840954E-01  0.88823224632E+00  0.88000000000E+00 0.  1.
        -11    1    4    4    0    0  0.79910366930E-01 -0.21950451756E-02 -0.96230076378E-02  0.80519242192E-01  0.51100000000E-03 0.  1.
         11    1    4    4    0    0  0.51824171642E-01 -0.27400974615E-02  0.97194996483E-02  0.52801351260E-01  0.51100000000E-03 0. -1.
</event>
<event>
 8    1  0.1051655E+005  0.1043930E+01  0.7957747E-01            NaN
         13   -1    0    0    0    0  0.00000000000E+00  0.00000000000E+00  0.74505805969E-08  0.10566000000E+00  0.10566000000E+00 0.  1.
     999900   -1    0    0    0    0 -0.00000000000E+00 -0.00000000000E+00 -0.74505805969E-08  0.93827000000E+00  0.93827000000E+00 0. -1.
     999902    2    1    2    0    0  0.67449495438E-04 -0.16641474593E-01  0.14853390088E-01  0.10216238030E+01  0.10213802566E+01 0.  0.
     999903    2    3    3    0    0 -0.60294590964E-01  0.52885751004E-01 -0.99496805036E-01  0.12946149821E+00  0.20696012819E-01 0.  0.
         14    1    1    2    0    0 -0.67449495438E-04  0.16641474593E-01 -0.14853390088E-01  0.22306196968E-01  0.00000000000E+00 0. -1.
     999901    1    3    3    0    0  0.60362040459E-01 -0.69527225598E-01  0.11435019512E+00  0.89216230483E+00  0.88000000000E+00 0.  1.
        -11    1    4    4    0    0 -0.35782306075E-01  0.40342117321E-01 -0.54254597621E-01  0.76496289726E-01  0.51100000000E-03 0. -1.
         11    1    4    4    0    0 -0.24512284889E-01  0.12543633684E-01 -0.45242207415E-01  0.52965208479E-01  0.51100000000E-03 0.  1.
</event>
<event>
 8    1  0.1051655E+005  0.1043930E+01  0.7957747E-01            NaN
         13   -1    0    0    0    0  0.00000000000E+00  0.00000000000E+00  0.74505805969E-08  0.10566000000E+00  0.10566000000E+00 0. -1.
     999900   -1    0    0    0    0 -0.00000000000E+00 -0.00000000000E+00 -0.74505805969E-08  0.93827000000E+00  0.93827000000E+00 0.  1.
     999902    2    1    2    0    0  0.39392633761E-02  0.20493095265E-01  0.12802202286E-01  0.10194477384E+01  0.10191537226E+01 0.  0.
     999903    2    3    3    0    0  0.74118661126E-01 -0.40777222131E-01 -0.94775309411E-01  0.12801511578E+00  0.15784575425E-01 0.  0.
         14    1    1    2    0    0 -0.39392633761E-02 -0.20493095265E-01 -0.12802202286E-01  0.24482261596E-01  0.00000000000E+00 0. -1.
     999901    1    3    3    0    0 -0.70179397750E-01  0.61270317397E-01  0.10757751170E+00  0.89143262263E+00  0.88000000000E+00 0. -1.
        -11    1    4    4    0    0  0.13782950481E-01 -0.12251683773E-01 -0.28559477941E-01  0.33999682065E-01  0.51100000000E-03 0.  1.
         11    1    4    4    0    0  0.60335710645E-01 -0.28525538358E-01 -0.66215831470E-01  0.94015433711E-01  0.51100000000E-03 0. -1.
</event>
<event>
 8    1  0.1051655E+005  0.1043930E+01  0.7957747E-01            NaN
         13   -1    0    0    0    0  0.00000000000E+00  0.00000000000E+00  0.74505805969E-08  0.10566000000E+00  0.10566000000E+00 0.  1.
     999900   -1    0    0    0    0 -0.00000000000E+00 -0.00000000000E+00 -0.74505805969E-08  0.93827000000E+00  0.93827000000E+00 0.  1.
     999902    2    1    2    0    0 -0.22145562622E-01 -0.53738608972E-02 -0.71974025508E-02  0.10200321564E+01  0.10197521724E+01 0.  0.
     999903    2    3    3    0    0 -0.66670626511E-01  0.11123095714E+00 -0.50582402295E-02  0.13122186117E+00  0.19398267691E-01 0.  0.
         14    1    1    2    0    0  0.22145562622E-01  0.53738608972E-02  0.71974025508E-02  0.23897843590E-01  0.00000000000E+00 0.  1.
     999901    1    3    3    0    0  0.44525063889E-01 -0.11660481804E+00 -0.21391623214E-02  0.88881029524E+00  0.88000000000E+00 0. -1.
        -11    1    4    4    0    0 -0.40899505116E-01  0.61626882934E-01 -0.11851869975E-01  0.74909079302E-01  0.51100000000E-03 0.  1.
         11    1    4    4    0    0 -0.25771121395E-01  0.49604074207E-01  0.67936297458E-02  0.56312781871E-01  0.51100000000E-03 0. -1.
</event>
<event>
 8    1  0.1051655E+005  0.1043930E+01  0.7957747E-01            NaN
         13   -1    0    0    0    0  0.00000000000E+00  0.00000000000E+00  0.74505805969E-08  0.10566000000E+00  0.10566000000E+00 0.  1.
     999900   -1    0    0    0    0 -0.00000000000E+00 -0.00000000000E+00 -0.74505805969E-08  0.93827000000E+00  0.93827000000E+00 0. -1.
     999902    2    1    2    0    0 -0.59695157871E-03 -0.22088610844E-02  0.21775221325E-01  0.10220348936E+01  0.10218003367E+01 0.  0.
     999903    2    3    3    0    0 -0.11980146548E+00 -0.22691751555E-01  0.49664144930E-01  0.13332399746E+00  0.21010813620E-01 0.  0.
         14    1    1    2    0    0  0.59695157871E-03  0.22088610844E-02 -0.21775221325E-01  0.21895106353E-01  0.00000000000E+00 0. -1.
     999901    1    3    3    0    0  0.11920451390E+00  0.20482890471E-01 -0.27888923605E-01  0.88871089618E+00  0.88000000000E+00 0. -1.
        -11    1    4    4    0    0 -0.24156699921E-01 -0.13341228794E-01  0.12221040393E-01  0.30185252792E-01  0.51100000000E-03 0. -1.
         11    1    4    4    0    0 -0.95644765556E-01 -0.93505227614E-02  0.37443104536E-01  0.10313874467E+00  0.51100000000E-03 0.  1.
</event>
<event>
 8    1  0.1051655E+005  0.1043930E+01  0.7957747E-01            NaN
         13   -1    0    0    0    0  0.00000000000E+00  0.00000000000E+00  0.74505805969E-08  0.10566000000E+00  0.10566000000E+00 0. -1.
     999900   -1    0    0    0    0 -0.00000000000E+00 -0.00000000000E+00 -0.74505805969E-08  0.93827000000E+00  0.93827000000E+00 0.  1.
     999902    2    1    2    0    0  0.18532898896E-01  0.37969266276E-02  0.14256530550E-01  0.10202417401E+01  0.10199667027E+01 0.  0.
     999903    2    3    3    0    0  0.12082778133E+00 -0.20293075672E-01 -0.44842659183E-01  0.13202032323E+00  0.20182665824E-01 0.  0.
         14    1    1    2    0    0 -0.18532898896E-01 -0.37969266276E-02 -0.14256530550E-01  0.23688259891E-01  0.00000000000E+00 0.  1.
     999901    1    3    3    0    0 -0.10229488244E+00  0.24090002299E-01  0.59099189733E-01  0.88822141688E+00  0.88000000000E+00 0. -1.
        -11    1    4    4    0    0  0.37216135578E-01 -0.10880912413E-01 -0.56073063567E-02  0.39180837253E-01  0.51100000000E-03 0.  1.
         11    1    4    4    0    0  0.83611645756E-01 -0.94121632584E-02 -0.39235352826E-01  0.92839485973E-01  0.51100000000E-03 0. -1.
</event>
<event>
 8    1  0.1051655E+005  0.1043930E+01  0.7957747E-01            NaN
         13   -1    0    0    0    0  0.00000000000E+00  0.00000000000E+00  0.74505805969E-08  0.10566000000E+00  0.10566000000E+00 0.  1.
     999900   -1    0    0    0    0 -0.00000000000E+00 -0.00000000000E+00 -0.74505805969E-08  0.93827000000E+00  0.93827000000E+00 0. -1.
     999902    2    1    2    0    0  0.15989656345E-01 -0.22555220073E-01 -0.13777755024E-01  0.10130393283E+01  0.10125682432E+01 0.  0.
     999903    2    3    3    0    0  0.18849580738E-01 -0.58796124414E-01  0.10624795475E+00  0.12414802265E+00  0.17658219004E-01 0.  0.
         14    1    1    2    0    0 -0.15989656345E-01  0.22555220073E-01  0.13777755024E-01  0.30890671668E-01  0.00000000000E+00 0. -1.
     999901    1    3    3    0    0 -0.28599243923E-02  0.36240904341E-01 -0.12002570977E+00  0.88889130568E+00  0.88000000000E+00 0. -1.
        -11    1    4    4    0    0  0.16480217262E-01 -0.53204793623E-01  0.10333981432E+00  0.11739559604E+00  0.51100000000E-03 0.  1.
         11    1    4    4    0    0  0.23693634759E-02 -0.55913307913E-02  0.29081404324E-02  0.67524266063E-02  0.51100000000E-03 0. -1.
</event>
<event>
 8    1  0.1051655E+005  0.1043930E+01  0.7957747E-01            NaN
         13   -1    0    0    0    0  0.00000000000E+00  0.00000000000E+00  0.74505805969E-08  0.10566000000E+00  0.10566000000E+00 0.  1.
     999900   -1    0    0    0    0 -0.00000000000E+00 -0.00000000000E+00 -0.74505805969E-08  0.93827000000E+00  0.93827000000E+00 0.  1.
     999902    2    1    2    0    0 -0.12070055281E-01 -0.18437467158E-01 -0.83044409397E-02  0.10203802618E+01  0.10201084690E+01 0.  0.
     999903    2    3    3    0    0 -0.53724858804E-01 -0.10634800171E+00  0.54980671607E-01  0.13276075424E+00  0.20156529824E-01 0.  0.
         14    1    1    2    0    0  0.12070055281E-01  0.18437467158E-01  0.83044409397E-02  0.23549738194E-01  0.00000000000E+00 0.  1.
     999901    1    3    3    0    0  0.41654803523E-01  0.87910534554E-01 -0.63285112547E-01  0.88761950757E+00  0.88000000000E+00 0. -1.
        -11    1    4    4    0    0 -0.49533817899E-01 -0.98535165836E-01  0.44250919794E-01  0.11883258411E+00  0.51100000000E-03 0.  1.
         11    1    4    4    0    0 -0.41910409047E-02 -0.78128358755E-02  0.10729751813E-01  0.13928170133E-01  0.51100000000E-03 0. -1.
</event>
<event>
 8    1  0.1051655E+005  0.1043930E+01  0.7957747E-01            NaN
         13   -1    0    0    0    0  0.00000000000E+00  0.00000000000E+00  0.74505805969E-08  0.10566000000E+00  0.10566000000E+00 0. -1.
     999900   -1    0    0    0    0 -0.00000000000E+00 -0.00000000000E+00 -0.74505805969E-08  0.93827000000E+00  0.93827000000E+00 0. -1.
     999902    2    1    2    0    0 -0.43660190638E-02 -0.24644586261E-01  0.72422335497E-02  0.10178749103E+01  0.10175413826E+01 0.  0.
     999903    2    3    3    0    0  0.12505553939E+00 -0.19216486986E-01  0.15269952263E-01  0.12835602439E+00  0.15294974701E-01 0.  0.
         14    1    1    2    0    0  0.43660190638E-02  0.24644586261E-01 -0.72422335497E-02  0.26055089737E-01  0.00000000000E+00 0. -1.
     999901    1    3    3    0    0 -0.12942155845E+00 -0.54280992751E-02 -0.80277187133E-02  0.88951888587E+00  0.88000000000E+00 0.  1.
        -11    1    4    4    0    0  0.76458524330E-01 -0.69808169314E-02  0.15049285929E-01  0.78239247668E-01  0.51100000000E-03 0. -1.
         11    1    4    4    0    0  0.48597015060E-01 -0.12235670054E-01  0.22066633434E-03  0.50116776723E-01  0.51100000000E-03 0.  1.
</event>
<event>
 8    1  0.1051655E+005  0.1043930E+01  0.7957747E-01            NaN
         13   -1    0    0    0    0  0.00000000000E+00  0.00000000000E+00  0.74505805969E-08  0.10566000000E+00  0.10566000000E+00 0.  1.
     999900   -1    0    0    0    0 -0.00000000000E+00 -0.00000000000E+00 -0.74505805969E-08  0.93827000000E+00  0.93827000000E+00 0. -1.
     999902    2    1    2    0    0  0.13068376159E-01 -0.21393076558E-01  0.37526356522E-02  0.10185818550E+01  0.10182664027E+01 0.  0.
     999903    2    3    3    0    0  0.12985757175E-01  0.28824108216E-01 -0.12156016668E+00  0.12828692023E+00  0.26099821352E-01 0.  0.
         14    1    1    2    0    0 -0.13068376159E-01  0.21393076558E-01 -0.37526356522E-02  0.25348144989E-01  0.00000000000E+00 0.  1.
     999901    1    3    3    0    0  0.82618983729E-04 -0.50217184774E-01  0.12531280233E+00  0.89029493478E+00  0.88000000000E+00 0.  1.
        -11    1    4    4    0    0 -0.52154474562E-02  0.20094676606E-01 -0.64329780412E-01  0.67598658928E-01  0.51100000000E-03 0. -1.
         11    1    4    4    0    0  0.18201204631E-01  0.87294316102E-02 -0.57230386267E-01  0.60688261300E-01  0.51100000000E-03 0.  1.
</event>
<event>
 8    1  0.1218330E+005  0.1043930E+01  0.7957747E-01            NaN
         13   -1    0    0    0    0  0.00000000000E+00  0.00000000000E+00  0.74505805969E-08  0.10566000000E+00  0.10566000000E+00 0.  1.
     999900   -1    0    0    0    0 -0.00000000000E+00 -0.00000000000E+00 -0.74505805969E-08  0.93827000000E+00  0.93827000000E+00 0.  1.
     999902    2    1    2    0    0  0.17487347303E-01  0.87738974029E-02 -0.19640623105E-01  0.10162073979E+01  0.10158291849E+01 0.  0.
     999903    2    3    3    0    0  0.44493828031E-02  0.24833344246E-02 -0.12801021344E+00  0.12944162961E+00  0.18508289321E-01 0.  0.
         14    1    1    2    0    0 -0.17487347303E-01 -0.87738974029E-02  0.19640623105E-01  0.27722602102E-01  0.00000000000E+00 0.  1.
     999901    1    3    3    0    0  0.13037964500E-01  0.62905629782E-02  0.10836959033E+00  0.88676576829E+00  0.88000000000E+00 0. -1.
        -11    1    4    4    0    0  0.10894962288E-01 -0.17395510477E-02 -0.61426044484E-01  0.62411107209E-01  0.51100000000E-03 0.  1.
         11    1    4    4    0    0 -0.64455794848E-02  0.42228854724E-02 -0.66584168956E-01  0.67030522399E-01  0.51100000000E-03 0. -1.
</event>
<event>
 8    1  0.1051655E+005  0.1043930E+01  0.7957747E-01            NaN
         13   -1    0    0    0    0  0.00000000000E+00  0.00000000000E+00  0.74505805969E-08  0.10566000000E+00  0.10566000000E+00 0. -1.
     999900   -1    0    0    0    0 -0.00000000000E+00 -0.00000000000E+00 -0.74505805969E-08  0.93827000000E+00  0.93827000000E+00 0.  1.
     999902    2    1    2    0    0 -0.16734305089E-01  0.35896309990E-02  0.16243848478E-01  0.10203337073E+01  0.10200608262E+01 0.  0.
     999903    2    3    3    0    0 -0.12332271221E-01 -0.10021045132E+00  0.82327020736E-01  0.13176135757E+00  0.19725555422E-01 0.  0.
         14    1    1    2    0    0  0.16734305089E-01 -0.35896309990E-02 -0.16243848478E-01  0.23596292736E-01  0.00000000000E+00 0.  1.
     999901    1    3    3    0    0 -0.44020338679E-02  0.10380008232E+00 -0.66083172258E-01  0.88857234970E+00  0.88000000000E+00 0.  1.
        -11    1    4    4    0    0 -0.56534717672E-02 -0.17854499950E-01  0.24794506674E-01  0.31076898070E-01  0.51100000000E-03 0. -1.
         11    1    4    4    0    0 -0.66787994539E-02 -0.82355951372E-01  0.57532514063E-01  0.10068445950E+00  0.51100000000E-03 0.  1.
</event>
<event>
 8    1  0.1051655E+005  0.1043930E+01  0.7957747E-01            NaN
         13   -1    0    0    0    0  0.00000000000E+00  0.00000000000E+00  0.74505805969E-08  0.10566000000E+00  0.10566000000E+00 0.  1.
     999900   -1    0    0    0    0 -0.00000000000E+00 -0.00000000000E+00 -0.74505805969E-08  0.93827000000E+00  0.93827000000E+00 0. -1.
     999902    2    1    2    0    0  0.22462513732E-01  0.65926592179E-02  0.45841217906E-02  0.10200754019E+01  0.10197964423E+01 0.  0.
     999903    2    3    3    0    0  0.31129619767E-02  0.44146262298E-01 -0.12077051620E+00  0.13018863183E+00  0.20124096683E-01 0.  0.
         14    1    1    2    0    0 -0.22462513732E-01 -0.65926592179E-02 -0.45841217906E-02  0.23854598117E-01  0.00000000000E+00 0. -1.
     999901    1    3    3    0    0  0.19349551755E-01 -0.37553603080E-01  0.12535463799E+00  0.88988677006E+00  0.88000000000E+00 0.  1.
        -11    1    4    4    0    0  0.10987680886E-01  0.21420227053E-01 -0.69537058982E-01  0.73588171272E-01  0.51100000000E-03 0. -1.
         11    1    4    4    0    0 -0.78747189090E-02  0.22726035245E-01 -0.51233457214E-01  0.56600460555E-01  0.51100000000E-03 0.  1.
</event>
<event>
 8    1  0.1051655E+005  0.1043930E+01  0.7957747E-01            NaN
         13   -1    0    0    0    0  0.00000000000E+00  0.00000000000E+00  0.74505805969E-08  0.10566000000E+00  0.10566000000E+00 0. -1.
     999900   -1    0    0    0    0 -0.00000000000E+00 -0.00000000000E+00 -0.74505805969E-08  0.93827000000E+00  0.93827000000E+00 0.  1.
     999902    2    1    2    0    0 -0.20365175731E-02 -0.23960010273E-02  0.23580384497E-01  0.10201408689E+01  0.10198634564E+01 0.  0.
     999903    2    3    3    0    0  0.49886712099E-01  0.11068863832E+00  0.45138367075E-01  0.13112517499E+00  0.20388247480E-01 0.  0.
         14    1    1    2    0    0  0.20365175731E-02  0.23960010273E-02 -0.23580384497E-01  0.23789131085E-01  0.00000000000E+00 0.  1.
     999901    1    3    3    0    0 -0.51923229672E-01 -0.11308463935E+00 -0.21557982578E-01  0.88901569393E+00  0.88000000000E+00 0.  1.
        -11    1    4    4    0    0  0.31430650124E-01  0.90162399193E-01  0.34081765294E-01  0.10138526442E+00  0.51100000000E-03 0. -1.
         11    1    4    4    0    0  0.18456061975E-01  0.20526239131E-01  0.11056601781E-01  0.29739910565E-01  0.51100000000E-03 0.  1.
</event>
<event>
 8    1  0.1051655E+005  0.1043930E+01  0.7957747E-01            NaN
         13   -1    0    0    0    0  0.00000000000E+00  0.00000000000E+00  0.74505805969E-08  0.10566000000E+00  0.10566000000E+00 0. -1.
     999900   -1    0    0    0    0 -0.00000000000E+00 -0.00000000000E+00 -0.74505805969E-08  0.93827000000E+00  0.93827000000E+00 0. -1.
     999902    2    1    2    0    0 -0.76998140890E-02  0.73965605792E-02 -0.20300614442E-01  0.10209928861E+01  0.10207352068E+01 0.  0.
     999903    2    3    3    0    0  0.93977544349E-01 -0.39713187733E-01  0.75809320396E-01  0.12869543956E+00  0.20163010253E-01 0.  0.
         14    1    1    2    0    0  0.76998140890E-02 -0.73965605792E-02  0.20300614442E-01  0.22937113858E-01  0.00000000000E+00 0.  1.
     999901    1    3    3    0    0 -0.10167735844E+00  0.47109748312E-01 -0.96109934838E-01  0.89229744658E+00  0.88000000000E+00 0. -1.
        -11    1    4    4    0    0  0.41001949550E-01 -0.25889241691E-01  0.27933006108E-01  0.55963619016E-01  0.51100000000E-03 0.  1.
         11    1    4    4    0    0  0.52975594799E-01 -0.13823946042E-01  0.47876314289E-01  0.72731820542E-01  0.51100000000E-03 0. -1.
</event>
<event>
 8    1  0.1051655E+005  0.1043930E+01  0.7957747E-01            NaN
         13   -1    0    0    0    0  0.00000000000E+00  0.00000000000E+00  0.74505805969E-08  0.10566000000E+00  0.10566000000E+00 0. -1.
     999900   -1    0    0    0    0 -0.00000000000E+00 -0.00000000000E+00 -0.74505805969E-08  0.93827000000E+00  0.93827000000E+00 0. -1.
     999902    2    1    2    0    0 -0.20810265753E-01  0.10145984436E-01  0.48367792357E-02  0.10202783067E+01  0.10200041277E+01 0.  0.
     999903    2    3    3    0    0 -0.74669498595E-01 -0.92493932686E-01  0.45068860974E-01  0.13176584765E+00  0.34646425116E-01 0.  0.
         14    1    1    2    0    0  0.20810265753E-01 -0.10145984436E-01 -0.48367792357E-02  0.23651693264E-01  0.00000000000E+00 0.  1.
     999901    1    3    3    0    0  0.53859232841E-01  0.10263991712E+00 -0.40232081738E-01  0.88851245909E+00  0.88000000000E+00 0. -1.
        -11    1    4    4    0    0 -0.54433747603E-01 -0.49866764648E-01  0.13653704962E-01  0.75076040617E-01  0.51100000000E-03 0. -1.
         11    1    4    4    0    0 -0.20235750992E-01 -0.42627168038E-01  0.31415156012E-01  0.56689807033E-01  0.51100000000E-03 0.  1.
</event>
<event>
 8    1  0.1051655E+005  0.1043930E+01  0.7957747E-01            NaN
         13   -1    0    0    0    0  0.00000000000E+00  0.00000000000E+00  0.74505805969E-08  0.10566000000E+00  0.10566000000E+00 0.  1.
     999900   -1    0    0    0    0 -0.00000000000E+00 -0.00000000000E+00 -0.74505805969E-08  0.93827000000E+00  0.93827000000E+00 0. -1.
     999902    2    1    2    0    0 -0.14070680725E-01 -0.20540729298E-01 -0.29417005417E-02  0.10188589167E+01  0.10185504076E+01 0.  0.
     999903    2    3    3    0    0  0.90745865842E-01  0.59543388493E-01  0.62369425502E-01  0.12663387919E+00  0.19130259828E-01 0.  0.
         14    1    1    2    0    0  0.14070680725E-01  0.20540729298E-01  0.29417005417E-02  0.25071083308E-01  0.00000000000E+00 0.  1.
     999901    1    3    3    0    0 -0.10481654657E+00 -0.80084117791E-01 -0.65311126044E-01  0.89222503750E+00  0.88000000000E+00 0. -1.
        -11    1    4    4    0    0  0.56755933413E-01  0.28501606190E-01  0.29254445214E-01  0.69926112567E-01  0.51100000000E-03 0. -1.
         11    1    4    4    0    0  0.33989932429E-01  0.31041782303E-01  0.33114980288E-01  0.56707766625E-01  0.51100000000E-03 0.  1.
</event>
<event>
 8    1  0.1051655E+005  0.1043930E+01  0.7957747E-01            NaN
         13   -1    0    0    0    0  0.00000000000E+00  0.00000000000E+00  0.74505805969E-08  0.10566000000E+00  0.10566000000E+00 0. -1.
     999900   -1    0    0    0    0 -0.00000000000E+00 -0.00000000000E+00 -0.74505805969E-08  0.93827000000E+00  0.93827000000E+00 0.  1.
     999902    2    1    2    0    0  0.22913953483E-01 -0.13864240097E-02  0.14534890985E-02  0.10209281725E+01  0.10206690205E+01 0.  0.
     999903    2    3    3    0    0 -0.27730003017E-02 -0.36844727745E-01 -0.12400925262E+00  0.13095176249E+00  0.20120782014E-01 0.  0.
         14    1    1    2    0    0 -0.22913953483E-01  0.13864240097E-02 -0.14534890985E-02  0.23001827456E-01  0.00000000000E+00 0. -1.
     999901    1    3    3    0    0  0.25686953785E-01  0.35458303735E-01  0.12546274172E+00  0.88997641006E+00  0.88000000000E+00 0. -1.
        -11    1    4    4    0    0  0.63336827458E-02 -0.84832332689E-02 -0.51154254231E-01  0.52240785127E-01  0.51100000000E-03 0. -1.
         11    1    4    4    0    0 -0.91066830475E-02 -0.28361494476E-01 -0.72854998393E-01  0.78710977359E-01  0.51100000000E-03 0.  1.
</event>
<event>
 8    1  0.1051655E+005  0.1043930E+01  0.7957747E-01            NaN
         13   -1    0    0    0    0  0.00000000000E+00  0.00000000000E+00  0.74505805969E-08  0.10566000000E+00  0.10566000000E+00 0. -1.
     999900   -1    0    0    0    0 -0.00000000000E+00 -0.00000000000E+00 -0.74505805969E-08  0.93827000000E+00  0.93827000000E+00 0.  1.
     999902    2    1    2    0    0 -0.63128481011E-02 -0.55409258056E-02 -0.24969660986E-01  0.10175854013E+01  0.10172443222E+01 0.  0.
     999903    2    3    3    0    0  0.43237440196E-02  0.46337049348E-01 -0.12066817609E+00  0.13081447983E+00  0.19641856072E-01 0.  0.
         14    1    1    2    0    0  0.63128481011E-02  0.55409258056E-02  0.24969660986E-01  0.26344598681E-01  0.00000000000E+00 0. -1.
     999901    1    3    3    0    0 -0.10636592121E-01 -0.51877975154E-01  0.95698515099E-01  0.88677092148E+00  0.88000000000E+00 0. -1.
        -11    1    4    4    0    0 -0.36115787290E-02  0.18603829072E-02 -0.20829591026E-01  0.21228224343E-01  0.51100000000E-03 0. -1.
         11    1    4    4    0    0  0.79353227486E-02  0.44476666441E-01 -0.99838585060E-01  0.10958625549E+00  0.51100000000E-03 0.  1.
</event>
<event>
 8    1  0.1051655E+005  0.1043930E+01  0.7957747E-01            NaN
         13   -1    0    0    0    0  0.00000000000E+00  0.00000000000E+00  0.74505805969E-08  0.10566000000E+00  0.10566000000E+00 0.  1.
     999900   -1    0    0    0    0 -0.00000000000E+00 -0.00000000000E+00 -0.74505805969E-08  0.93827000000E+00  0.93827000000E+00 0. -1.
     999902    2    1    2    0    0 -0.14427030456E-01  0.13948965980E-01  0.11368980844E-01  0.10208655992E+01  0.10206050191E+01 0.  0.
     999903    2    3    3    0    0 -0.11765140517E+00 -0.48951904880E-01 -0.27394730594E-01  0.13175682270E+00  0.19267769334E-01 0.  0.
         14    1    1    2    0    0  0.14427030456E-01 -0.13948965980E-01 -0.11368980844E-01  0.23064400819E-01  0.00000000000E+00 0. -1.
     999901    1    3    3    0    0  0.10322437471E+00  0.62900870860E-01  0.38763711438E-01  0.88910877648E+00  0.88000000000E+00 0.  1.
        -11    1    4    4    0    0 -0.20564862197E-01 -0.19259842766E-02 -0.79679199430E-02  0.22144341079E-01  0.51100000000E-03 0. -1.
         11    1    4    4    0    0 -0.97086542969E-01 -0.47025920604E-01 -0.19426810651E-01  0.10961248162E+00  0.51100000000E-03 0.  1.
</event>
<event>
 8    1  0.1051655E+005  0.1043930E+01  0.7957747E-01            NaN
         13   -1    0    0    0    0  0.00000000000E+00  0.00000000000E+00  0.74505805969E-08  0.10566000000E+00  0.10566000000E+00 0. -1.
     999900   -1    0    0    0    0 -0.00000000000E+00 -0.00000000000E+00 -0.74505805969E-08  0.93827000000E+00  0.93827000000E+00 0. -1.
     999902    2    1    2    0    0 -0.18240947087E-01 -0.41394335397E-02 -0.18012490893E-01  0.10179623877E+01  0.10176311247E+01 0.  0.
     999903    2    3    3    0    0  0.27114269476E-01  0.11751107342E+00 -0.38497679991E-01  0.12820085532E+00  0.20232448111E-01 0.  0.
         14    1    1    2    0    0  0.18240947087E-01  0.41394335397E-02  0.18012490893E-01  0.25967612306E-01  0.00000000000E+00 0. -1.
     999901    1    3    3    0    0 -0.45355216563E-01 -0.12165050696E+00  0.20485189097E-01  0.88976153237E+00  0.88000000000E+00 0.  1.
        -11    1    4    4    0    0  0.25464831031E-01  0.10741132020E+00 -0.40818894472E-01  0.11769491320E+00  0.51100000000E-03 0.  1.
         11    1    4    4    0    0  0.16494384450E-02  0.10099753221E-01  0.23212144817E-02  0.10505942127E-01  0.51100000000E-03 0. -1.
</event>
<event>
 8    1  0.1051655E+005  0.1043930E+01  0.7957747E-01            NaN
         13   -1    0    0    0    0  0.00000000000E+00  0.00000000000E+00  0.74505805969E-08  0.10566000000E+00  0.10566000000E+00 0.  1.
     999900   -1    0    0    0    0 -0.00000000000E+00 -0.00000000000E+00 -0.74505805969E-08  0.93827000000E+00  0.93827000000E+00 0.  1.
     999902    2    1    2    0    0  0.66157961559E-02 -0.19905362648E-01  0.84863906547E-02  0.10213023389E+01  0.10210516424E+01 0.  0.
     999903    2    3    3    0    0 -0.63045594091E-01  0.11035915824E+00 -0.64869917319E-02  0.12886424195E+00  0.20248976477E-01 0.  0.
         14    1    1    2    0    0 -0.66157961559E-02  0.19905362648E-01 -0.84863906547E-02  0.22627661109E-01  0.00000000000E+00 0. -1.
     999901    1    3    3    0    0  0.69661390247E-01 -0.13026452089E+00  0.14973382387E-01  0.89243809694E+00  0.88000000000E+00 0. -1.
        -11    1    4    4    0    0 -0.59137311164E-02  0.26959032332E-01 -0.10539096548E-02  0.27624870797E-01  0.51100000000E-03 0.  1.
         11    1    4    4    0    0 -0.57131862975E-01  0.83400125913E-01 -0.54330820771E-02  0.10123937115E+00  0.51100000000E-03 0. -1.
</event>
<event>
 8    1  0.1051655E+005  0.1043930E+01  0.7957747E-01            NaN
         13   -1    0    0    0    0  0.00000000000E+00  0.00000000000E+00  0.74505805969E-08  0.10566000000E+00  0.10566000000E+00 0.  1.
     999900   -1    0    0    0    0 -0.00000000000E+00 -0.00000000000E+00 -0.74505805969E-08  0.93827000000E+00  0.93827000000E+00 0.  1.
     999902    2    1    2    0    0  0.18296068465E-01 -0.17578439536E-01 -0.71660002296E-02  0.10175652657E+01  0.10172236581E+01 0.  0.
     999903    2    3    3    0    0  0.12846413173E+00 -0.15233865092E-01 -0.36939975243E-04  0.13066430010E+00  0.18386249480E-01 0.  0.
         14    1    1    2    0    0 -0.18296068465E-01  0.17578439536E-01  0.71660002296E-02  0.26364734345E-01  0.00000000000E+00 0.  1.
     999901    1    3    3    0    0 -0.11016806327E+00 -0.23445744444E-02 -0.71290602544E-02  0.88690096555E+00  0.88000000000E+00 0.  1.
        -11    1    4    4    0    0  0.73046563367E-01 -0.53624630640E-02 -0.85113550261E-02  0.73737783498E-01  0.51100000000E-03 0. -1.
         11    1    4    4    0    0  0.55417568365E-01 -0.98714020275E-02  0.84744150509E-02  0.56926516607E-01  0.51100000000E-03 0.  1.
</event>
<event>
 8    1  0.1051655E+005  0.1043930E+01  0.7957747E-01            NaN
         13   -1    0    0    0    0  0.00000000000E+00  0.00000000000E+00  0.74505805969E-08  0.10566000000E+00  0.10566000000E+00 0. -1.
     999900   -1    0    0    0    0 -0.00000000000E+00 -0.00000000000E+00 -0.74505805969E-08  0.93827000000E+00  0.93827000000E+00 0. -1.
     999902    2    1    2    0    0  0.10514893785E-03  0.14748184123E-01 -0.17923547856E-01  0.10207185037E+01  0.10204545508E+01 0.  0.
     999903    2    3    3    0    0 -0.73799138198E-01 -0.29285206274E-01 -0.10401114495E+00  0.13234253743E+00  0.19806383665E-01 0.  0.
         14    1    1    2    0    0 -0.10514893785E-03 -0.14748184123E-01  0.17923547856E-01  0.23211496267E-01  0.00000000000E+00 0. -1.
     999901    1    3    3    0    0  0.73904287135E-01  0.44033390397E-01  0.86087597099E-01  0.88837596630E+00  0.88000000000E+00 0.  1.
        -11    1    4    4    0    0 -0.29073985347E-01 -0.21325639264E-01 -0.40093446967E-01  0.53924253584E-01  0.51100000000E-03 0.  1.
         11    1    4    4    0    0 -0.44725152851E-01 -0.79595670103E-02 -0.63917697988E-01  0.78418283847E-01  0.51100000000E-03 0. -1.
</event>
<event>
 8    1  0.1051655E+005  0.1043930E+01  0.7957747E-01            NaN
         13   -1    0    0    0    0  0.00000000000E+00  0.00000000000E+00  0.74505805969E-08  0.10566000000E+00  0.10566000000E+00 0. -1.
     999900   -1    0    0    0    0 -0.00000000000E+00 -0.00000000000E+00 -0.74505805969E-08  0.93827000000E+00  0.93827000000E+00 0. -1.
     999902    2    1    2    0    0  0.14856349459E-01  0.35236115297E-02 -0.17748981772E-01  0.10205173258E+01  0.10202487241E+01 0.  0.
     999903    2    3    3    0    0 -0.81126447368E-01  0.90441403144E-01 -0.43249306986E-01  0.13067595437E+00  0.21084464213E-01 0.  0.
         14    1    1    2    0    0 -0.14856349459E-01 -0.35236115297E-02  0.17748981772E-01  0.23412674162E-01  0.00000000000E+00 0. -1.
     999901    1    3    3    0    0  0.95982796827E-01 -0.86917791614E-01  0.25500325214E-01  0.88984137147E+00  0.88000000000E+00 0. -1.
        -11    1    4    4    0    0 -0.56430476513E-01  0.50499972365E-01 -0.20281792954E-01  0.78398074816E-01  0.51100000000E-03 0. -1.
         11    1    4    4    0    0 -0.24695970854E-01  0.39941430778E-01 -0.22967514032E-01  0.52277879556E-01  0.51100000000E-03 0.  1.
</event>
<event>
 8    1  0.1051655E+005  0.1043930E+01  0.7957747E-01            NaN
         13   -1    0    0    0    0  0.00000000000E+00  0.00000000000E+00  0.74505805969E-08  0.10566000000E+00  0.10566000000E+00 0. -1.
     999900   -1    0    0    0    0 -0.00000000000E+00 -0.00000000000E+00 -0.74505805969E-08  0.93827000000E+00  0.93827000000E+00 0. -1.
     999902    2    1    2    0    0 -0.21527401384E-01 -0.84669200799E-02  0.57120326811E-02  0.10201025985E+01  0.10198242821E+01 0.  0.
     999903    2    3    3    0    0  0.26505700526E-02  0.12755941706E+00  0.96602785868E-02  0.12931456121E+00  0.18721761560E-01 0.  0.
         14    1    1    2    0    0  0.21527401384E-01  0.84669200799E-02 -0.57120326811E-02  0.23827401523E-01  0.00000000000E+00 0.  1.
     999901    1    3    3    0    0 -0.24177971437E-01 -0.13602633714E+00 -0.39482459058E-02  0.89078803727E+00  0.88000000000E+00 0.  1.
        -11    1    4    4    0    0  0.58738576308E-02  0.11864602889E+00  0.54133027205E-02  0.11891571529E+00  0.51100000000E-03 0. -1.
         11    1    4    4    0    0 -0.32232875783E-02  0.89133881644E-02  0.42469758663E-02  0.10398845916E-01  0.51100000000E-03 0.  1.
</event>
<event>
 8    1  0.1051655E+005  0.1043930E+01  0.7957747E-01            NaN
         13   -1    0    0    0    0  0.00000000000E+00  0.00000000000E+00  0.74505805969E-08  0.10566000000E+00  0.10566000000E+00 0.  1.
     999900   -1    0    0    0    0 -0.00000000000E+00 -0.00000000000E+00 -0.74505805969E-08  0.93827000000E+00  0.93827000000E+00 0.  1.
     999902    2    1    2    0    0  0.17269431705E-01 -0.14033249595E-01  0.84582408224E-02  0.10201243871E+01  0.10198465855E+01 0.  0.
     999903    2    3    3    0    0  0.32298218884E-01 -0.11272589883E+00  0.59509063642E-01  0.13300980043E+00  0.19999378580E-01 0.  0.
         14    1    1    2    0    0 -0.17269431705E-01  0.14033249595E-01 -0.84582408224E-02  0.23805612855E-01  0.00000000000E+00 0. -1.
     999901    1    3    3    0    0 -0.15028787179E-01  0.98692649237E-01 -0.51050822819E-01  0.88711458672E+00  0.88000000000E+00 0.  1.
        -11    1    4    4    0    0  0.82378274848E-02 -0.80657822931E-02  0.50053747664E-02  0.12579091510E-01  0.51100000000E-03 0. -1.
         11    1    4    4    0    0  0.24060391399E-01 -0.10466011654E+00  0.54503688875E-01  0.12043070892E+00  0.51100000000E-03 0.  1.
</event>
<event>
 8    1  0.1051655E+005  0.1043930E+01  0.7957747E-01            NaN
         13   -1    0    0    0    0  0.00000000000E+00  0.00000000000E+00  0.74505805969E-08  0.10566000000E+00  0.10566000000E+00 0. -1.
     999900   -1    0    0    0    0 -0.00000000000E+00 -0.00000000000E+00 -0.74505805969E-08  0.93827000000E+00  0.93827000000E+00 0. -1.
     999902    2    1    2    0    0 -0.88312709281E-02 -0.54062631730E-02  0.18525678369E-01  0.10227069044E+01  0.10224866711E+01 0.  0.
     999903    2    3    3    0    0 -0.18336761829E-01 -0.10431792000E-01 -0.12736810029E+00  0.13063033541E+00  0.19914628785E-01 0.  0.
         14    1    1    2    0    0  0.88312709281E-02  0.54062631730E-02 -0.18525678369E-01  0.21223095597E-01  0.00000000000E+00 0.  1.
     999901    1    3    3    0    0  0.95054909007E-02  0.50255288274E-02  0.14589377866E+00  0.89207656899E+00  0.88000000000E+00 0.  1.
        -11    1    4    4    0    0 -0.91769208582E-02 -0.61916084901E-02 -0.20659051563E-01  0.23443750225E-01  0.51100000000E-03 0. -1.
         11    1    4    4    0    0 -0.91598409706E-02 -0.42401835103E-02 -0.10670904872E+00  0.10718658518E+00  0.51100000000E-03 0.  1.
</event>
<event>
 8    1  0.1051655E+005  0.1043930E+01  0.7957747E-01            NaN
         13   -1    0    0    0    0  0.00000000000E+00  0.00000000000E+00  0.74505805969E-08  0.10566000000E+00  0.10566000000E+00 0.  1.
     999900   -1    0    0    0    0 -0.00000000000E+00 -0.00000000000E+00 -0.74505805969E-08  0.93827000000E+00  0.93827000000E+00 0.  1.
     999902    2    1    2    0    0  0.52533956955E-03 -0.21828720434E-01  0.27114291372E-02  0.10219272532E+01  0.10216903592E+01 0.  0.
     999903    2    3    3    0    0  0.32525139667E-01  0.11269507653E+00  0.48036806559E-01  0.12997712626E+00  0.28782869622E-01 0.  0.
         14    1    1    2    0    0 -0.52533956955E-03  0.21828720434E-01 -0.27114291372E-02  0.22002746770E-01  0.00000000000E+00 0. -1.
     999901    1    3    3    0    0 -0.31999800097E-01 -0.13452379696E+00 -0.45325377422E-01  0.89195012697E+00  0.88000000000E+00 0. -1.
        -11    1    4    4    0    0  0.12637116768E-01  0.88392864719E-01  0.37528705002E-01  0.96858970022E-01  0.51100000000E-03 0. -1.
         11    1    4    4    0    0  0.19888022899E-01  0.24302211808E-01  0.10508101557E-01  0.33118156243E-01  0.51100000000E-03 0.  1.
</event>
<event>
 8    1  0.1051655E+005  0.1043930E+01  0.7957747E-01            NaN
         13   -1    0    0    0    0  0.00000000000E+00  0.00000000000E+00  0.74505805969E-08  0.10566000000E+00  0.10566000000E+00 0. -1.
     999900   -1    0    0    0    0 -0.00000000000E+00 -0.00000000000E+00 -0.74505805969E-08  0.93827000000E+00  0.93827000000E+00 0.  1.
     999902    2    1    2    0    0  0.49105442364E-02  0.24746547323E-01 -0.48468522335E-02  0.10182395927E+01  0.10179154538E+01 0.  0.
     999903    2    3    3    0    0  0.62431066958E-01 -0.52491408302E-02  0.10967778284E+00  0.12845071671E+00  0.23349067952E-01 0.  0.
         14    1    1    2    0    0 -0.49105442364E-02 -0.24746547323E-01  0.48468522335E-02  0.25690407270E-01  0.00000000000E+00 0.  1.
     999901    1    3    3    0    0 -0.57520522722E-01  0.29995688154E-01 -0.11452463508E+00  0.88978887602E+00  0.88000000000E+00 0.  1.
        -11    1    4    4    0    0  0.51180042139E-02 -0.72148295279E-02  0.92991972574E-02  0.12844606762E-01  0.51100000000E-03 0. -1.
         11    1    4    4    0    0  0.57313062745E-01  0.19656886977E-02  0.10037858558E+00  0.11560610995E+00  0.51100000000E-03 0.  1.
</event>
<event>
 8    1  0.1051655E+005  0.1043930E+01  0.7957747E-01            NaN
         13   -1    0    0    0    0  0.00000000000E+00  0.00000000000E+00  0.74505805969E-08  0.10566000000E+00  0.10566000000E+00 0. -1.
     999900   -1    0    0    0    0 -0.00000000000E+00 -0.00000000000E+00 -0.74505805969E-08  0.93827000000E+00  0.93827000000E+00 0.  1.
     999902    2    1    2    0    0 -0.89336951057E-02  0.16636553664E-01  0.15246791724E-01  0.10196596377E+01  0.10193707502E+01 0.  0.
     999903    2    3    3    0    0 -0.27047296273E-01  0.12088073659E+00 -0.39217321105E-01  0.13164990142E+00  0.21212957233E-01 0.  0.
         14    1    1    2    0    0  0.89336951057E-02 -0.16636553664E-01 -0.15246791724E-01  0.24270362253E-01  0.00000000000E+00 0.  1.
     999901    1    3    3    0    0  0.18113601167E-01 -0.10424418293E+00  0.54464112829E-01  0.88800973633E+00  0.88000000000E+00 0.  1.
        -11    1    4    4    0    0 -0.65025315394E-02  0.25717948458E-01  0.41531669871E-03  0.26535436651E-01  0.51100000000E-03 0.  1.
         11    1    4    4    0    0 -0.20544764734E-01  0.95162788136E-01 -0.39632637804E-01  0.10511446477E+00  0.51100000000E-03 0. -1.
</event>
<event>
 8    1  0.1051655E+005  0.1043930E+01  0.7957747E-01            NaN
         13   -1    0    0    0    0  0.00000000000E+00  0.00000000000E+00  0.74505805969E-08  0.10566000000E+00  0.10566000000E+00 0.  1.
     999900   -1    0    0    0    0 -0.00000000000E+00 -0.00000000000E+00 -0.74505805969E-08  0.93827000000E+00  0.93827000000E+00 0. -1.
     999902    2    1    2    0    0  0.66362585860E-02 -0.71097278552E-02  0.23765832502E-01  0.10182511575E+01  0.10179273141E+01 0.  0.
     999903    2    3    3    0    0  0.44401577663E-01 -0.36145271867E-01  0.11723912867E+00  0.13201950649E+00  0.20153313018E-01 0.  0.
         14    1    1    2    0    0 -0.66362585860E-02  0.71097278552E-02 -0.23765832502E-01  0.25678842511E-01  0.00000000000E+00 0. -1.
     999901    1    3    3    0    0 -0.37765319077E-01  0.29035544012E-01 -0.93473296164E-01  0.88623165100E+00  0.88000000000E+00 0. -1.
        -11    1    4    4    0    0  0.71534572237E-02 -0.13622254265E-01  0.46264979318E-01  0.48759072938E-01  0.51100000000E-03 0. -1.
         11    1    4    4    0    0  0.37248120439E-01 -0.22523017602E-01  0.70974149348E-01  0.83260433549E-01  0.51100000000E-03 0.  1.
</event>
<event>
 8    1  0.1051655E+005  0.1043930E+01  0.7957747E-01            NaN
         13   -1    0    0    0    0  0.00000000000E+00  0.00000000000E+00  0.74505805969E-08  0.10566000000E+00  0.10566000000E+00 0.  1.
     999900   -1    0    0    0    0 -0.00000000000E+00 -0.00000000000E+00 -0.74505805969E-08  0.93827000000E+00  0.93827000000E+00 0. -1.
     999902    2    1    2    0    0  0.15310047335E-01 -0.12539315021E-01  0.14003645886E-01  0.10196867727E+01  0.10193985386E+01 0.  0.
     999903    2    3    3    0    0  0.83421066374E-01 -0.35145436160E-01 -0.91713549010E-01  0.13045886441E+00  0.20343653401E-01 0.  0.
         14    1    1    2    0    0 -0.15310047335E-01  0.12539315021E-01 -0.14003645886E-01  0.24243227275E-01  0.00000000000E+00 0.  1.
     999901    1    3    3    0    0 -0.68111019039E-01  0.22606121139E-01  0.10571719490E+00  0.88922790831E+00  0.88000000000E+00 0.  1.
        -11    1    4    4    0    0  0.38525079490E-01 -0.11219901709E-01 -0.28032567021E-01  0.48950524807E-01  0.51100000000E-03 0.  1.
         11    1    4    4    0    0  0.44895986884E-01 -0.23925534451E-01 -0.63680981989E-01  0.81508339605E-01  0.51100000000E-03 0. -1.
</event>
<event>
 8    1  0.1051655E+005  0.1043930E+01  0.7957747E-01            NaN
         13   -1    0    0    0    0  0.00000000000E+00  0.00000000000E+00  0.74505805969E-08  0.10566000000E+00  0.10566000000E+00 0.  1.
     999900   -1    0    0    0    0 -0.00000000000E+00 -0.00000000000E+00 -0.74505805969E-08  0.93827000000E+00  0.93827000000E+00 0. -1.
     999902    2    1    2    0    0  0.73692949834E-02 -0.10275112264E-01 -0.19854268994E-01  0.10203911717E+01  0.10201196336E+01 0.  0.
     999903    2    3    3    0    0  0.70540228044E-01  0.10018367608E+00 -0.41572129531E-01  0.13097373530E+00  0.20326944129E-01 0.  0.
         14    1    1    2    0    0 -0.73692949834E-02  0.10275112264E-01  0.19854268994E-01  0.23538828303E-01  0.00000000000E+00 0.  1.
     999901    1    3    3    0    0 -0.63170933061E-01 -0.11045878835E+00  0.21717860537E-01  0.88941743640E+00  0.88000000000E+00 0.  1.
        -11    1    4    4    0    0  0.38352453587E-01  0.40655030755E-01 -0.25395881045E-01  0.61391808223E-01  0.51100000000E-03 0.  1.
         11    1    4    4    0    0  0.32187774458E-01  0.59528645329E-01 -0.16176248486E-01  0.69581927074E-01  0.51100000000E-03 0. -1.
</event>
<event>
 8    1  0.1051655E+005  0.1043930E+01  0.7957747E-01            NaN
         13   -1    0    0    0    0  0.00000000000E+00  0.00000000000E+00  0.74505805969E-08  0.10566000000E+00  0.10566000000E+00 0.  1.
     999900   -1    0    0    0    0 -0.00000000000E+00 -0.00000000000E+00 -0.74505805969E-08  0.93827000000E+00  0.93827000000E+00 0. -1.
     999902    2    1    2    0    0 -0.10529771374E-01 -0.72532881565E-02 -0.18888097455E-01  0.10211210873E+01  0.10208663127E+01 0.  0.
     999903    2    3    3    0    0 -0.10687340508E+00  0.66439878185E-01  0.32135889197E-01  0.13133671692E+00  0.19504761210E-01 0.  0.
         14    1    1    2    0    0  0.10529771374E-01  0.72532881565E-02  0.18888097455E-01  0.22808912726E-01  0.00000000000E+00 0.  1.
     999901    1    3    3    0    0  0.96343633702E-01 -0.73693166341E-01 -0.51023986652E-01  0.88978437036E+00  0.88000000000E+00 0.  1.
        -11    1    4    4    0    0 -0.36271711979E-01  0.26096827251E-01  0.23931597495E-02  0.44751199057E-01  0.51100000000E-03 0.  1.
         11    1    4    4    0    0 -0.70601693098E-01  0.40343050934E-01  0.29742729448E-01  0.86585517859E-01  0.51100000000E-03 0. -1.
</event>
<event>
 8    1  0.1051655E+005  0.1043930E+01  0.7957747E-01            NaN
         13   -1    0    0    0    0  0.00000000000E+00  0.00000000000E+00  0.74505805969E-08  0.10566000000E+00  0.10566000000E+00 0.  1.
     999900   -1    0    0    0    0 -0.00000000000E+00 -0.00000000000E+00 -0.74505805969E-08  0.93827000000E+00  0.93827000000E+00 0. -1.
     999902    2    1    2    0    0  0.13046066455E-01 -0.15295844280E-01 -0.13363671286E-01  0.10197897760E+01  0.10195040152E+01 0.  0.
     999903    2    3    3    0    0 -0.57362259752E-01  0.10641710324E+00  0.34339324063E-01  0.12735101078E+00  0.20592767271E-01 0.  0.
         14    1    1    2    0    0 -0.13046066455E-01  0.15295844280E-01  0.13363671286E-01  0.24140223952E-01  0.00000000000E+00 0. -1.
     999901    1    3    3    0    0  0.70408326207E-01 -0.12171294752E+00 -0.47702995349E-01  0.89243876527E+00  0.88000000000E+00 0. -1.
        -11    1    4    4    0    0 -0.30920674658E-02  0.22259529838E-01  0.70670081274E-02  0.23563770384E-01  0.51100000000E-03 0.  1.
         11    1    4    4    0    0 -0.54270192286E-01  0.84157573399E-01  0.27272315935E-01  0.10378724039E+00  0.51100000000E-03 0. -1.
</event>
<event>
 8    1  0.1051655E+005  0.1043930E+01  0.7957747E-01            NaN
         13   -1    0    0    0    0  0.00000000000E+00  0.00000000000E+00  0.74505805969E-08  0.10566000000E+00  0.10566000000E+00 0.  1.
     999900   -1    0    0    0    0 -0.00000000000E+00 -0.00000000000E+00 -0.74505805969E-08  0.93827000000E+00  0.93827000000E+00 0. -1.
     999902    2    1    2    0    0  0.13545053493E-01 -0.19823254608E-01 -0.45316011271E-02  0.10194971265E+01  0.10192043101E+01 0.  0.
     999903    2    3    3    0    0 -0.15136100774E-01 -0.55422425734E-01  0.11505867254E+00  0.13023240601E+00  0.20524001262E-01 0.  0.
         14    1    1    2    0    0 -0.13545053493E-01  0.19823254608E-01  0.45316011271E-02  0.24432873473E-01  0.00000000000E+00 0. -1.
     999901    1    3    3    0    0  0.28681154267E-01  0.35599171126E-01 -0.11959027367E+00  0.88926472051E+00  0.88000000000E+00 0. -1.
        -11    1    4    4    0    0  0.24281994948E-02 -0.13448179450E-01  0.41915685240E-01  0.44090083618E-01  0.51100000000E-03 0. -1.
         11    1    4    4    0    0 -0.17564300269E-01 -0.41974246285E-01  0.73142987302E-01  0.86142322395E-01  0.51100000000E-03 0.  1.
</event>
<event>
 8    1  0.1051655E+005  0.1043930E+01  0.7957747E-01            NaN
         13   -1    0    0    0    0  0.00000000000E+00  0.00000000000E+00  0.74505805969E-08  0.10566000000E+00  0.10566000000E+00 0. -1.
     999900   -1    0    0    0    0 -0.00000000000E+00 -0.00000000000E+00 -0.74505805969E-08  0.93827000000E+00  0.93827000000E+00 0.  1.
     999902    2    1    2    0    0 -0.11861201504E-02 -0.17121504149E-02  0.23051331155E-01  0.10207847584E+01  0.10205223274E+01 0.  0.
     999903    2    3    3    0    0 -0.37050900583E-01  0.62479120811E-01  0.10981390539E+00  0.13346601858E+00  0.21855766430E-01 0.  0.
         14    1    1    2    0    0  0.11861201504E-02  0.17121504149E-02 -0.23051331155E-01  0.23145241586E-01  0.00000000000E+00 0.  1.
     999901    1    3    3    0    0  0.35864780432E-01 -0.64191271226E-01 -0.86762574237E-01  0.88731873984E+00  0.88000000000E+00 0.  1.
        -11    1    4    4    0    0 -0.15599684390E-01  0.30672395902E-01  0.70937296639E-01  0.78844829880E-01  0.51100000000E-03 0.  1.
         11    1    4    4    0    0 -0.21451216192E-01  0.31806724909E-01  0.38876608753E-01  0.54621188697E-01  0.51100000000E-03 0. -1.
</event>
<event>
 8    1  0.1051655E+005  0.1043930E+01  0.7957747E-01            NaN
         13   -1    0    0    0    0  0.00000000000E+00  0.00000000000E+00  0.74505805969E-08  0.10566000000E+00  0.10566000000E+00 0.  1.
     999900   -1    0    0    0    0 -0.00000000000E+00 -0.00000000000E+00 -0.74505805969E-08  0.93827000000E+00  0.93827000000E+00 0. -1.
     999902    2    1    2    0    0 -0.97095857537E-02  0.14525259662E-01 -0.14467684120E-01  0.10212457961E+01  0.10209938310E+01 0.  0.
     999903    2    3    3    0    0  0.47484198500E-01  0.12010784837E+00  0.21458217107E-01  0.13236476783E+00  0.19476455878E-01 0.  0.
         14    1    1    2    0    0  0.97095857537E-02 -0.14525259662E-01  0.14467684120E-01  0.22684203921E-01  0.00000000000E+00 0.  1.
     999901    1    3    3    0    0 -0.57193784254E-01 -0.10558258871E+00 -0.35925901226E-01  0.88888102825E+00  0.88000000000E+00 0. -1.
        -11    1    4    4    0    0  0.38566488414E-01  0.80191361222E-01  0.21132933974E-01  0.91459775106E-01  0.51100000000E-03 0.  1.
         11    1    4    4    0    0  0.89177100867E-02  0.39916487153E-01  0.32528313323E-03  0.40904992726E-01  0.51100000000E-03 0. -1.
</event>
<event>
 8    1  0.1051655E+005  0.1043930E+01  0.7957747E-01            NaN
         13   -1    0    0    0    0  0.00000000000E+00  0.00000000000E+00  0.74505805969E-08  0.10566000000E+00  0.10566000000E+00 0. -1.
     999900   -1    0    0    0    0 -0.00000000000E+00 -0.00000000000E+00 -0.74505805969E-08  0.93827000000E+00  0.93827000000E+00 0. -1.
     999902    2    1    2    0    0 -0.89559576985E-02  0.14612828062E-01 -0.16465351476E-01  0.10201633906E+01  0.10198865093E+01 0.  0.
     999903    2    3    3    0    0 -0.38157881384E-01 -0.11571353344E+00  0.35557662489E-01  0.12856700950E+00  0.20481280148E-01 0.  0.
         14    1    1    2    0    0  0.89559576985E-02 -0.14612828062E-01  0.16465351476E-01  0.23766609382E-01  0.00000000000E+00 0. -1.
     999901    1    3    3    0    0  0.29201923685E-01  0.13032636150E+00 -0.52023013965E-01  0.89159638112E+00  0.88000000000E+00 0. -1.
        -11    1    4    4    0    0 -0.29658726880E-01 -0.69578779115E-01  0.13939152099E-01  0.76911687444E-01  0.51100000000E-03 0. -1.
         11    1    4    4    0    0 -0.84991545034E-02 -0.46134754324E-01  0.21618510390E-01  0.51655322052E-01  0.51100000000E-03 0.  1.
</event>
<event>
 8    1  0.1051655E+005  0.1043930E+01  0.7957747E-01            NaN
         13   -1    0    0    0    0  0.00000000000E+00  0.00000000000E+00  0.74505805969E-08  0.10566000000E+00  0.10566000000E+00 0.  1.
     999900   -1    0    0    0    0 -0.00000000000E+00 -0.00000000000E+00 -0.74505805969E-08  0.93827000000E+00  0.93827000000E+00 0. -1.
     999902    2    1    2    0    0  0.62279557037E-02  0.23303397473E-01  0.36018530558E-03  0.10198060389E+01  0.10195206675E+01 0.  0.
     999903    2    3    3    0    0  0.23870746475E-01 -0.40056021302E-01 -0.11923136752E+00  0.12928494228E+00  0.18004997042E-01 0.  0.
         14    1    1    2    0    0 -0.62279557037E-02 -0.23303397473E-01 -0.36018530558E-03  0.24123961107E-01  0.00000000000E+00 0. -1.
     999901    1    3    3    0    0 -0.17642790771E-01  0.63359418775E-01  0.11959155283E+00  0.89052109662E+00  0.88000000000E+00 0.  1.
        -11    1    4    4    0    0  0.72167805219E-03 -0.14148348935E-01 -0.23523109169E-01  0.27464420307E-01  0.51100000000E-03 0.  1.
         11    1    4    4    0    0  0.23149068422E-01 -0.25907672367E-01 -0.95708258352E-01  0.10182052197E+00  0.51100000000E-03 0. -1.
</event>
<event>
 8    1  0.1051655E+005  0.1043930E+01  0.7957747E-01            NaN
         13   -1    0    0    0    0  0.00000000000E+00  0.00000000000E+00  0.74505805969E-08  0.10566000000E+00  0.10566000000E+00 0. -1.
     999900   -1    0    0    0    0 -0.00000000000E+00 -0.00000000000E+00 -0.74505805969E-08  0.93827000000E+00  0.93827000000E+00 0. -1.
     999902    2    1    2    0    0 -0.96096407726E-02  0.19743974320E-01  0.11916881094E-01  0.10189463699E+01  0.10186400360E+01 0.  0.
     999903    2    3    3    0    0  0.11846733277E+00 -0.24121728517E-01 -0.34463843906E-01  0.12738645454E+00  0.20571473995E-01 0.  0.
         14    1    1    2    0    0  0.96096407726E-02 -0.19743974320E-01 -0.11916881094E-01  0.24983630095E-01  0.00000000000E+00 0. -1.
     999901    1    3    3    0    0 -0.12807697354E+00  0.43865702836E-01  0.46380725000E-01  0.89155991537E+00  0.88000000000E+00 0. -1.
        -11    1    4    4    0    0  0.10687302582E+00 -0.15881640052E-01 -0.27258294539E-01  0.11143314534E+00  0.51100000000E-03 0.  1.
         11    1    4    4    0    0  0.11594306949E-01 -0.82400884652E-02 -0.72055493666E-02  0.15953309193E-01  0.51100000000E-03 0. -1.
</event>
<event>
 8    1  0.1051655E+005  0.1043930E+01  0.7957747E-01            NaN
         13   -1    0    0    0    0  0.00000000000E+00  0.00000000000E+00  0.74505805969E-08  0.10566000000E+00  0.10566000000E+00 0.  1.
     999900   -1    0    0    0    0 -0.00000000000E+00 -0.00000000000E+00 -0.74505805969E-08  0.93827000000E+00  0.93827000000E+00 0.  1.
     999902    2    1    2    0    0  0.83487667950E-02 -0.22250535123E-01 -0.10074478270E-02  0.10201433825E+01  0.10198660293E+01 0.  0.
     999903    2    3    3    0    0  0.29456718163E-01 -0.77572928558E-01 -0.10128927784E+00  0.13247083126E+00  0.20093427737E-01 0.  0.
         14    1    1    2    0    0 -0.83487667950E-02  0.22250535123E-01  0.10074478270E-02  0.23786617485E-01  0.00000000000E+00 0.  1.
     999901    1    3    3    0    0 -0.21107951368E-01  0.55322393435E-01  0.10028183001E+00  0.88767255126E+00  0.88000000000E+00 0. -1.
        -11    1    4    4    0    0  0.13705612722E-01 -0.55253313408E-01 -0.78019892910E-01  0.96582282399E-01  0.51100000000E-03 0.  1.
         11    1    4    4    0    0  0.15751105441E-01 -0.22319615150E-01 -0.23269384932E-01  0.35888548858E-01  0.51100000000E-03 0. -1.
</event>
<event>
 8    1  0.1051655E+005  0.1043930E+01  0.7957747E-01            NaN
         13   -1    0    0    0    0  0.00000000000E+00  0.00000000000E+00  0.74505805969E-08  0.10566000000E+00  0.10566000000E+00 0. -1.
     999900   -1    0    0    0    0 -0.00000000000E+00 -0.00000000000E+00 -0.74505805969E-08  0.93827000000E+00  0.93827000000E+00 0. -1.
     999902    2    1    2    0    0  0.10131345364E-01  0.16597847572E-01 -0.14333057367E-01  0.10197728223E+01  0.10194866550E+01 0.  0.
     999903    2    3    3    0    0  0.73570764868E-01  0.66842951176E-01 -0.85614136204E-01  0.13318942371E+00  0.23000102281E-01 0.  0.
         14    1    1    2    0    0 -0.10131345364E-01 -0.16597847572E-01  0.14333057367E-01  0.24157177741E-01  0.00000000000E+00 0. -1.
     999901    1    3    3    0    0 -0.63439419504E-01 -0.50245103603E-01  0.71281078837E-01  0.88658339855E+00  0.88000000000E+00 0.  1.
        -11    1    4    4    0    0  0.23879790888E-01  0.15161416636E-01 -0.36950961804E-01  0.46537594120E-01  0.51100000000E-03 0.  1.
         11    1    4    4    0    0  0.49690973980E-01  0.51681534540E-01 -0.48663174401E-01  0.86651829590E-01  0.51100000000E-03 0. -1.
</event>
<event>
 8    1  0.1051655E+005  0.1043930E+01  0.7957747E-01            NaN
         13   -1    0    0    0    0  0.00000000000E+00  0.00000000000E+00  0.74505805969E-08  0.10566000000E+00  0.10566000000E+00 0. -1.
     999900   -1    0    0    0    0 -0.00000000000E+00 -0.00000000000E+00 -0.74505805969E-08  0.93827000000E+00  0.93827000000E+00 0.  1.
     999902    2    1    2    0    0  0.51169151484E-02 -0.22339520140E-01  0.47351568718E-02  0.10205278913E+01  0.10202595347E+01 0.  0.
     999903    2    3    3    0    0 -0.88082505234E-01 -0.76235918745E-01 -0.58925566544E-01  0.13168389968E+00  0.17262213288E-01 0.  0.
         14    1    1    2    0    0 -0.51169151484E-02  0.22339520140E-01 -0.47351568718E-02  0.23402108693E-01  0.00000000000E+00 0.  1.
     999901    1    3    3    0    0  0.93199420382E-01  0.53896398606E-01  0.63660723415E-01  0.88884399163E+00  0.88000000000E+00 0. -1.
        -11    1    4    4    0    0 -0.54440106709E-01 -0.37115814886E-01 -0.37491441994E-01  0.75810146266E-01  0.51100000000E-03 0. -1.
         11    1    4    4    0    0 -0.33642398525E-01 -0.39120103859E-01 -0.21434124550E-01  0.55873753415E-01  0.51100000000E-03 0.  1.
</event>
<event>
 8    1  0.1051655E+005  0.1043930E+01  0.7957747E-01            NaN
         13   -1    0    0    0    0  0.00000000000E+00  0.00000000000E+00  0.74505805969E-08  0.10566000000E+00  0.10566000000E+00 0. -1.
     999900   -1    0    0    0    0 -0.00000000000E+00 -0.00000000000E+00 -0.74505805969E-08  0.93827000000E+00  0.93827000000E+00 0.  1.
     999902    2    1    2    0    0 -0.10571505520E-01 -0.18124776562E-01  0.92043952165E-02  0.10210174457E+01  0.10207603241E+01 0.  0.
     999903    2    3    3    0    0  0.12227685643E+00  0.28160185200E-01  0.26098379913E-01  0.12968339400E+00  0.19799787798E-01 0.  0.
         14    1    1    2    0    0  0.10571505520E-01  0.18124776562E-01 -0.92043952165E-02  0.22912554324E-01  0.00000000000E+00 0.  1.
     999901    1    3    3    0    0 -0.13284836195E+00 -0.46284961761E-01 -0.16893984697E-01  0.89133405168E+00  0.88000000000E+00 0. -1.
        -11    1    4    4    0    0  0.53434543359E-01  0.39057340016E-02  0.56209135896E-02  0.53873564693E-01  0.51100000000E-03 0.  1.
         11    1    4    4    0    0  0.68842313069E-01  0.24254451198E-01  0.20477466324E-01  0.75809829307E-01  0.51100000000E-03 0. -1.
</event>
<event>
 8    1  0.1051655E+005  0.1043930E+01  0.7957747E-01            NaN
         13   -1    0    0    0    0  0.00000000000E+00  0.00000000000E+00  0.74505805969E-08  0.10566000000E+00  0.10566000000E+00 0. -1.
     999900   -1    0    0    0    0 -0.00000000000E+00 -0.00000000000E+00 -0.74505805969E-08  0.93827000000E+00  0.93827000000E+00 0. -1.
     999902    2    1    2    0    0 -0.93014688799E-02  0.11936447562E-03  0.23073392897E-01  0.10190520372E+01  0.10187483210E+01 0.  0.
     999903    2    3    3    0    0 -0.94942051463E-01  0.86028469429E-01  0.15380070480E-01  0.13069745099E+00  0.20745757152E-01 0.  0.
         14    1    1    2    0    0  0.93014688799E-02 -0.11936447562E-03 -0.23073392897E-01  0.24877962758E-01  0.00000000000E+00 0.  1.
     999901    1    3    3    0    0  0.85640582584E-01 -0.85909104953E-01  0.76933224169E-02  0.88835458625E+00  0.88000000000E+00 0.  1.
        -11    1    4    4    0    0 -0.36906426567E-01  0.22084313819E-01  0.10091325597E-01  0.44180280806E-01  0.51100000000E-03 0.  1.
         11    1    4    4    0    0 -0.58035624896E-01  0.63944155610E-01  0.52887448838E-02  0.86517170187E-01  0.51100000000E-03 0. -1.
</event>
<event>
 8    1  0.1051655E+005  0.1043930E+01  0.7957747E-01            NaN
         13   -1    0    0    0    0  0.00000000000E+00  0.00000000000E+00  0.74505805969E-08  0.10566000000E+00  0.10566000000E+00 0. -1.
     999900   -1    0    0    0    0 -0.00000000000E+00 -0.00000000000E+00 -0.74505805969E-08  0.93827000000E+00  0.93827000000E+00 0.  1.
     999902    2    1    2    0    0 -0.11909056933E-01  0.15186000640E-01  0.14192176821E-01  0.10199746637E+01  0.10196933149E+01 0.  0.
     999903    2    3    3    0    0 -0.70208309164E-01  0.10849888463E+00  0.23470870619E-01  0.13307433603E+00  0.21370131044E-01 0.  0.
         14    1    1    2    0    0  0.11909056933E-01 -0.15186000640E-01 -0.14192176821E-01  0.23955336262E-01  0.00000000000E+00 0.  1.
     999901    1    3    3    0    0  0.58299252231E-01 -0.93312883989E-01 -0.92786937973E-02  0.88690032771E+00  0.88000000000E+00 0. -1.
        -11    1    4    4    0    0 -0.46746133469E-01  0.52863179453E-01  0.11081225672E-01  0.71433685468E-01  0.51100000000E-03 0.  1.
         11    1    4    4    0    0 -0.23462175695E-01  0.55635705177E-01  0.12389644947E-01  0.61640650562E-01  0.51100000000E-03 0. -1.
</event>
<event>
 8    1  0.1051655E+005  0.1043930E+01  0.7957747E-01            NaN
         13   -1    0    0    0    0  0.00000000000E+00  0.00000000000E+00  0.74505805969E-08  0.10566000000E+00  0.10566000000E+00 0. -1.
     999900   -1    0    0    0    0 -0.00000000000E+00 -0.00000000000E+00 -0.74505805969E-08  0.93827000000E+00  0.93827000000E+00 0. -1.
     999902    2    1    2    0    0 -0.40707582910E-02 -0.44841599817E-02  0.22185370780E-01  0.10209328384E+01  0.10206737927E+01 0.  0.
     999903    2    3    3    0    0 -0.12725526852E+00 -0.13733461368E-01  0.26767154859E-01  0.13229288553E+00  0.20060300473E-01 0.  0.
         14    1    1    2    0    0  0.40707582910E-02  0.44841599817E-02 -0.22185370780E-01  0.22997161574E-01  0.00000000000E+00 0.  1.
     999901    1    3    3    0    0  0.12318451023E+00  0.92493013864E-02 -0.45817840792E-02  0.88863995290E+00  0.88000000000E+00 0.  1.
        -11    1    4    4    0    0 -0.77608315755E-01 -0.61590635576E-02  0.64694850665E-02  0.78122340571E-01  0.51100000000E-03 0. -1.
         11    1    4    4    0    0 -0.49646952766E-01 -0.75743978106E-02  0.20297669793E-01  0.54170544959E-01  0.51100000000E-03 0.  1.
</event>
<event>
 8    1  0.1051655E+005  0.1043930E+01  0.7957747E-01            NaN
         13   -1    0    0    0    0  0.00000000000E+00  0.00000000000E+00  0.74505805969E-08  0.10566000000E+00  0.10566000000E+00 0.  1.
     999900   -1    0    0    0    0 -0.00000000000E+00 -0.00000000000E+00 -0.74505805969E-08  0.93827000000E+00  0.93827000000E+00 0.  1.
     999902    2    1    2    0    0  0.22249900681E-01 -0.58927626407E-03 -0.63122666756E-02  0.10207945286E+01  0.10205323217E+01 0.  0.
     999903    2    3    3    0    0  0.11013716954E+00 -0.29187729494E-01 -0.67231618891E-01  0.13385980099E+00  0.20401864458E-01 0.  0.
         14    1    1    2    0    0 -0.22249900681E-01  0.58927626407E-03  0.63122666756E-02  0.23135471411E-01  0.00000000000E+00 0.  1.
     999901    1    3    3    0    0 -0.87887268861E-01  0.28598453230E-01  0.60919352215E-01  0.88693472760E+00  0.88000000000E+00 0. -1.
        -11    1    4    4    0    0  0.88258817685E-01 -0.14749850589E-01 -0.53614224875E-01  0.10431645710E+00  0.51100000000E-03 0. -1.
         11    1    4    4    0    0  0.21878351857E-01 -0.14437878905E-01 -0.13617394015E-01  0.29543343887E-01  0.51100000000E-03 0.  1.
</event>
<event>
 8    1  0.1051655E+005  0.1043930E+01  0.7957747E-01            NaN
         13   -1    0    0    0    0  0.00000000000E+00  0.00000000000E+00  0.74505805969E-08  0.10566000000E+00  0.10566000000E+00 0.  1.
     999900   -1    0    0    0    0 -0.00000000000E+00 -0.00000000000E+00 -0.74505805969E-08  0.93827000000E+00  0.93827000000E+00 0.  1.
     999902    2    1    2    0    0 -0.16353239191E-01  0.40142988663E-02  0.16100998338E-01  0.10206322496E+01  0.10203663086E+01 0.  0.
     999903    2    3    3    0    0  0.74776986584E-01 -0.10433270234E+00 -0.98766298553E-02  0.12893800383E+00  0.71098885406E-02 0.  0.
         14    1    1    2    0    0  0.16353239191E-01 -0.40142988663E-02 -0.16100998338E-01  0.23297750426E-01  0.00000000000E+00 0. -1.
     999901    1    3    3    0    0 -0.91130225775E-01  0.10834700121E+00  0.25977628193E-01  0.89169424574E+00  0.88000000000E+00 0. -1.
        -11    1    4    4    0    0  0.32954768814E-01 -0.40072385315E-01 -0.42335920484E-02  0.52057634167E-01  0.51100000000E-03 0. -1.
         11    1    4    4    0    0  0.41822217770E-01 -0.64260317026E-01 -0.56430378070E-02  0.76880369667E-01  0.51100000000E-03 0.  1.
</event>
<event>
 8    1  0.1051655E+005  0.1043930E+01  0.7957747E-01            NaN
         13   -1    0    0    0    0  0.00000000000E+00  0.00000000000E+00  0.74505805969E-08  0.10566000000E+00  0.10566000000E+00 0. -1.
     999900   -1    0    0    0    0 -0.00000000000E+00 -0.00000000000E+00 -0.74505805969E-08  0.93827000000E+00  0.93827000000E+00 0. -1.
     999902    2    1    2    0    0 -0.14395609985E-01 -0.77166847208E-02  0.18016483549E-01  0.10196118074E+01  0.10193217664E+01 0.  0.
     999903    2    3    3    0    0  0.11700673087E+00 -0.24164363075E-01 -0.41330174147E-01  0.12772665391E+00  0.18205035331E-01 0.  0.
         14    1    1    2    0    0  0.14395609985E-01  0.77166847208E-02 -0.18016483549E-01  0.24318192560E-01  0.00000000000E+00 0.  1.
     999901    1    3    3    0    0 -0.13140234086E+00  0.16447678354E-01  0.59346657696E-01  0.89188515353E+00  0.88000000000E+00 0.  1.
        -11    1    4    4    0    0  0.83522865064E-01 -0.15027829627E-01 -0.37576588016E-01  0.92812530079E-01  0.51100000000E-03 0. -1.
         11    1    4    4    0    0  0.33483865811E-01 -0.91365334476E-02 -0.37535861312E-02  0.34914123831E-01  0.51100000000E-03 0.  1.
</event>
<event>
 8    1  0.1051655E+005  0.1043930E+01  0.7957747E-01            NaN
         13   -1    0    0    0    0  0.00000000000E+00  0.00000000000E+00  0.74505805969E-08  0.10566000000E+00  0.10566000000E+00 0. -1.
     999900   -1    0    0    0    0 -0.00000000000E+00 -0.00000000000E+00 -0.74505805969E-08  0.93827000000E+00  0.93827000000E+00 0. -1.
     999902    2    1    2    0    0 -0.22562423860E-01  0.68936161964E-02 -0.33621988700E-02  0.10200995721E+01  0.10198211841E+01 0.  0.
     999903    2    3    3    0    0  0.64605652873E-02  0.73643797904E-01 -0.10673717849E+00  0.13106396699E+00  0.17882681507E-01 0.  0.
         14    1    1    2    0    0  0.22562423860E-01 -0.68936161964E-02  0.33621988700E-02  0.23830427943E-01  0.00000000000E+00 0.  1.
     999901    1    3    3    0    0 -0.29022989148E-01 -0.66750181708E-01  0.10337497962E+00  0.88903560506E+00  0.88000000000E+00 0.  1.
        -11    1    4    4    0    0  0.73338373403E-02  0.22298116360E-01 -0.45019006014E-01  0.50773646578E-01  0.51100000000E-03 0. -1.
         11    1    4    4    0    0 -0.87327205308E-03  0.51345681544E-01 -0.61718172480E-01  0.80290320416E-01  0.51100000000E-03 0.  1.
</event>
<event>
 8    1  0.1051655E+005  0.1043930E+01  0.7957747E-01            NaN
         13   -1    0    0    0    0  0.00000000000E+00  0.00000000000E+00  0.74505805969E-08  0.10566000000E+00  0.10566000000E+00 0. -1.
     999900   -1    0    0    0    0 -0.00000000000E+00 -0.00000000000E+00 -0.74505805969E-08  0.93827000000E+00  0.93827000000E+00 0.  1.
     999902    2    1    2    0    0 -0.87627365555E-02 -0.61333495343E-02  0.20212093631E-01  0.10210622879E+01  0.10208061831E+01 0.  0.
     999903    2    3    3    0    0 -0.37368455413E-01  0.53722452281E-01 -0.10946142713E+00  0.12908906735E+00  0.19991996924E-01 0.  0.
         14    1    1    2    0    0  0.87627365555E-02  0.61333495343E-02 -0.20212093631E-01  0.22867712115E-01  0.00000000000E+00 0.  1.
     999901    1    3    3    0    0  0.28605718858E-01 -0.59855801815E-01  0.12967352076E+00  0.89197322053E+00  0.88000000000E+00 0. -1.
        -11    1    4    4    0    0 -0.23514601232E-01  0.46771801242E-01 -0.90936338578E-01  0.10492957952E+00  0.51100000000E-03 0.  1.
         11    1    4    4    0    0 -0.13853854182E-01  0.69506510392E-02 -0.18525088553E-01  0.24159487835E-01  0.51100000000E-03 0. -1.
</event>
<event>
 8    1  0.1051655E+005  0.1043930E+01  0.7957747E-01            NaN
         13   -1    0    0    0    0  0.00000000000E+00  0.00000000000E+00  0.74505805969E-08  0.10566000000E+00  0.10566000000E+00 0. -1.
     999900   -1    0    0    0    0 -0.00000000000E+00 -0.00000000000E+00 -0.74505805969E-08  0.93827000000E+00  0.93827000000E+00 0. -1.
     999902    2    1    2    0    0  0.25403662661E-02  0.41857289874E-02  0.22940211483E-01  0.10204730801E+01  0.10202034504E+01 0.  0.
     999903    2    3    3    0    0  0.47201569322E-01 -0.11311233365E+00 -0.37229329727E-01  0.12953322117E+00  0.19246927666E-01 0.  0.
         14    1    1    2    0    0 -0.25403662661E-02 -0.41857289874E-02 -0.22940211483E-01  0.23456919891E-01  0.00000000000E+00 0.  1.
     999901    1    3    3    0    0 -0.44661203056E-01  0.11729806264E+00  0.60169541210E-01  0.89093985894E+00  0.88000000000E+00 0.  1.
        -11    1    4    4    0    0  0.11655273256E-01 -0.36818638034E-01 -0.32350938132E-02  0.38758024387E-01  0.51100000000E-03 0. -1.
         11    1    4    4    0    0  0.35546296066E-01 -0.76293695615E-01 -0.33994235914E-01  0.90775196783E-01  0.51100000000E-03 0.  1.
</event>
<event>
 8    1  0.1051655E+005  0.1043930E+01  0.7957747E-01            NaN
         13   -1    0    0    0    0  0.00000000000E+00  0.00000000000E+00  0.74505805969E-08  0.10566000000E+00  0.10566000000E+00 0.  1.
     999900   -1    0    0    0    0 -0.00000000000E+00 -0.00000000000E+00 -0.74505805969E-08  0.93827000000E+00  0.93827000000E+00 0. -1.
     999902    2    1    2    0    0 -0.20922432113E-01 -0.77856678295E-02 -0.73375925654E-02  0.10204309563E+01  0.10201603460E+01 0.  0.
     999903    2    3    3    0    0  0.84051993572E-01 -0.91643520035E-01 -0.32181504587E-01  0.12988674665E+00  0.19278104915E-01 0.  0.
         14    1    1    2    0    0  0.20922432113E-01  0.77856678295E-02  0.73375925654E-02  0.23499043677E-01  0.00000000000E+00 0.  1.
     999901    1    3    3    0    0 -0.10497442568E+00  0.83857852205E-01  0.24843912021E-01  0.89054420968E+00  0.88000000000E+00 0. -1.
        -11    1    4    4    0    0  0.46227926649E-01 -0.63714790692E-01 -0.17684397398E-01  0.80682059886E-01  0.51100000000E-03 0.  1.
         11    1    4    4    0    0  0.37824066923E-01 -0.27928729343E-01 -0.14497107189E-01  0.49204686759E-01  0.51100000000E-03 0. -1.
</event>
<event>
 8    1  0.1051655E+005  0.1043930E+01  0.7957747E-01            NaN
         13   -1    0    0    0    0  0.00000000000E+00  0.00000000000E+00  0.74505805969E-08  0.10566000000E+00  0.10566000000E+00 0.  1.
     999900   -1    0    0    0    0 -0.00000000000E+00 -0.00000000000E+00 -0.74505805969E-08  0.93827000000E+00  0.93827000000E+00 0. -1.
     999902    2    1    2    0    0  0.12727957081E-01  0.15408464167E-01  0.11949689335E-01  0.10206444522E+01  0.10203787930E+01 0.  0.
     999903    2    3    3    0    0 -0.82713398633E-01  0.48098105497E-01  0.88168666222E-01  0.13160733408E+00  0.19795014859E-01 0.  0.
         14    1    1    2    0    0 -0.12727957081E-01 -0.15408464167E-01 -0.11949689335E-01  0.23285547764E-01  0.00000000000E+00 0.  1.
     999901    1    3    3    0    0  0.95441355714E-01 -0.32689641329E-01 -0.76218976887E-01  0.88903711816E+00  0.88000000000E+00 0. -1.
        -11    1    4    4    0    0 -0.78261914750E-01  0.44427764903E-01  0.87915111251E-01  0.12580970353E+00  0.51100000000E-03 0.  1.
         11    1    4    4    0    0 -0.44514838824E-02  0.36703405935E-02  0.25355497045E-03  0.57976305462E-02  0.51100000000E-03 0. -1.
</event>
<event>
 8    1  0.1214661E+005  0.1043930E+01  0.7957747E-01            NaN
         13   -1    0    0    0    0  0.00000000000E+00  0.00000000000E+00  0.74505805969E-08  0.10566000000E+00  0.10566000000E+00 0. -1.
     999900   -1    0    0    0    0 -0.00000000000E+00 -0.00000000000E+00 -0.74505805969E-08  0.93827000000E+00  0.93827000000E+00 0. -1.
     999902    2    1    2    0    0  0.12453854724E-02 -0.21572672413E-01 -0.10752668702E-01  0.10197939054E+01  0.10195082434E+01 0.  0.
     999903    2    3    3    0    0  0.14369307933E-01  0.29066573313E-01  0.12248814746E+00  0.12822804373E+00  0.19691171517E-01 0.  0.
         14    1    1    2    0    0 -0.12453854724E-02  0.21572672413E-01  0.10752668702E-01  0.24136094635E-01  0.00000000000E+00 0. -1.
     999901    1    3    3    0    0 -0.13123922460E-01 -0.50639245726E-01 -0.13324081616E+00  0.89156586164E+00  0.88000000000E+00 0. -1.
        -11    1    4    4    0    0  0.16370003916E-01  0.13529467693E-01  0.55400760501E-01  0.59334045112E-01  0.51100000000E-03 0. -1.
         11    1    4    4    0    0 -0.20006959827E-02  0.15537105620E-01  0.67087386956E-01  0.68893998614E-01  0.51100000000E-03 0.  1.
</event>
<event>
 8    1  0.1051655E+005  0.1043930E+01  0.7957747E-01            NaN
         13   -1    0    0    0    0  0.00000000000E+00  0.00000000000E+00  0.74505805969E-08  0.10566000000E+00  0.10566000000E+00 0.  1.
     999900   -1    0    0    0    0 -0.00000000000E+00 -0.00000000000E+00 -0.74505805969E-08  0.93827000000E+00  0.93827000000E+00 0.  1.
     999902    2    1    2    0    0 -0.16965088825E-01  0.68401311663E-02  0.13890752873E-01  0.10209614422E+01  0.10207030478E+01 0.  0.
     999903    2    3    3    0    0  0.98523901816E-01  0.77082712225E-01  0.32001176788E-01  0.13045612798E+00  0.18601673547E-01 0.  0.
         14    1    1    2    0    0  0.16965088825E-01 -0.68401311663E-02 -0.13890752873E-01  0.22968557826E-01  0.00000000000E+00 0. -1.
     999901    1    3    3    0    0 -0.11548899064E+00 -0.70242581059E-01 -0.18110423915E-01  0.89050531419E+00  0.88000000000E+00 0. -1.
        -11    1    4    4    0    0  0.44441355209E-01  0.27978677731E-01  0.21094797481E-01  0.56595866122E-01  0.51100000000E-03 0. -1.
         11    1    4    4    0    0  0.54082546607E-01  0.49104034495E-01  0.10906379307E-01  0.73860261858E-01  0.51100000000E-03 0.  1.
</event>
<event>
 8    1  0.1051655E+005  0.1043930E+01  0.7957747E-01            NaN
         13   -1    0    0    0    0  0.00000000000E+00  0.00000000000E+00  0.74505805969E-08  0.10566000000E+00  0.10566000000E+00 0. -1.
     999900   -1    0    0    0    0 -0.00000000000E+00 -0.00000000000E+00 -0.74505805969E-08  0.93827000000E+00  0.93827000000E+00 0. -1.
     999902    2    1    2    0    0  0.23065952042E-01 -0.73388978634E-02  0.27599803693E-02  0.10195678355E+01  0.10192767319E+01 0.  0.
     999903    2    3    3    0    0  0.13202587025E-02 -0.11635574479E+00 -0.51640807212E-01  0.13090761151E+00  0.30489790936E-01 0.  0.
         14    1    1    2    0    0 -0.23065952042E-01  0.73388978634E-02 -0.27599803693E-02  0.24362164458E-01  0.00000000000E+00 0. -1.
     999901    1    3    3    0    0  0.21745693339E-01  0.10901684693E+00  0.54400787582E-01  0.88866022404E+00  0.88000000000E+00 0.  1.
        -11    1    4    4    0    0  0.11272686904E-01 -0.85948607259E-01 -0.27905651713E-01  0.91067135007E-01  0.51100000000E-03 0.  1.
         11    1    4    4    0    0 -0.99524282012E-02 -0.30407137534E-01 -0.23735155500E-01  0.39840476500E-01  0.51100000000E-03 0. -1.
</event>
<event>
 8    1  0.1051655E+005  0.1043930E+01  0.7957747E-01            NaN
         13   -1    0    0    0    0  0.00000000000E+00  0.00000000000E+00  0.74505805969E-08  0.10566000000E+00  0.10566000000E+00 0.  1.
     999900   -1    0    0    0    0 -0.00000000000E+00 -0.00000000000E+00 -0.74505805969E-08  0.93827000000E+00  0.93827000000E+00 0. -1.
     999902    2    1    2    0    0 -0.88133217991E-02  0.70645017852E-02 -0.21033569025E-01  0.10200554769E+01  0.10197760456E+01 0.  0.
     999903    2    3    3    0    0 -0.48602150233E-01  0.92977467838E-01 -0.79260359417E-01  0.13306362367E+00  0.20414329189E-01 0.  0.
         14    1    1    2    0    0  0.88133217991E-02 -0.70645017852E-02  0.21033569025E-01  0.23874523085E-01  0.00000000000E+00 0.  1.
     999901    1    3    3    0    0  0.39788828434E-01 -0.85912966053E-01  0.58226790392E-01  0.88699185325E+00  0.88000000000E+00 0.  1.
        -11    1    4    4    0    0 -0.26360213672E-01  0.58960484377E-01 -0.59715033905E-01  0.87962184933E-01  0.51100000000E-03 0. -1.
         11    1    4    4    0    0 -0.22241936561E-01  0.34016983461E-01 -0.19545325512E-01  0.45101438737E-01  0.51100000000E-03 0.  1.
</event>
<event>
 8    1  0.1051655E+005  0.1043930E+01  0.7957747E-01            NaN
         13   -1    0    0    0    0  0.00000000000E+00  0.00000000000E+00  0.74505805969E-08  0.10566000000E+00  0.10566000000E+00 0. -1.
     999900   -1    0    0    0    0 -0.00000000000E+00 -0.00000000000E+00 -0.74505805969E-08  0.93827000000E+00  0.93827000000E+00 0. -1.
     999902    2    1    2    0    0  0.11098424149E-01 -0.11452589847E-01 -0.18160695427E-01  0.10197608525E+01  0.10194743982E+01 0.  0.
     999903    2    3    3    0    0  0.61693796772E-02 -0.12585392852E+00  0.29787052519E-01  0.13104776701E+00  0.20223159285E-01 0.  0.
         14    1    1    2    0    0 -0.11098424149E-01  0.11452589847E-01  0.18160695427E-01  0.24169147506E-01  0.00000000000E+00 0. -1.
     999901    1    3    3    0    0  0.49290444718E-02  0.11440133868E+00 -0.47947747946E-01  0.88871308548E+00  0.88000000000E+00 0. -1.
        -11    1    4    4    0    0 -0.56790848150E-02 -0.80581548367E-01  0.20328980374E-01  0.83301659681E-01  0.51100000000E-03 0.  1.
         11    1    4    4    0    0  0.11848464492E-01 -0.45272380156E-01  0.94580721444E-02  0.47746107333E-01  0.51100000000E-03 0. -1.
</event>
<event>
 8    1  0.1051655E+005  0.1043930E+01  0.7957747E-01            NaN
         13   -1    0    0    0    0  0.00000000000E+00  0.00000000000E+00  0.74505805969E-08  0.10566000000E+00  0.10566000000E+00 0. -1.
     999900   -1    0    0    0    0 -0.00000000000E+00 -0.00000000000E+00 -0.74505805969E-08  0.93827000000E+00  0.93827000000E+00 0.  1.
     999902    2    1    2    0    0 -0.15930910329E-01 -0.15091098593E-01  0.69061760509E-02  0.10209249912E+01  0.10206657667E+01 0.  0.
     999903    2    3    3    0    0 -0.43495635428E-01  0.11156405465E+00 -0.45728153522E-01  0.12987408665E+00  0.20923808624E-01 0.  0.
         14    1    1    2    0    0  0.15930910329E-01  0.15091098593E-01 -0.69061760509E-02  0.23005008766E-01  0.00000000000E+00 0. -1.
     999901    1    3    3    0    0  0.27564725098E-01 -0.12665515324E+00  0.52634329573E-01  0.89105090459E+00  0.88000000000E+00 0. -1.
        -11    1    4    4    0    0 -0.13425977206E-01  0.54097493071E-01 -0.13056114134E-01  0.57249618844E-01  0.51100000000E-03 0. -1.
         11    1    4    4    0    0 -0.30069658222E-01  0.57466561578E-01 -0.32672039387E-01  0.72624467805E-01  0.51100000000E-03 0.  1.
</event>
<event>
 8    1  0.1051655E+005  0.1043930E+01  0.7957747E-01            NaN
         13   -1    0    0    0    0  0.00000000000E+00  0.00000000000E+00  0.74505805969E-08  0.10566000000E+00  0.10566000000E+00 0. -1.
     999900   -1    0    0    0    0 -0.00000000000E+00 -0.00000000000E+00 -0.74505805969E-08  0.93827000000E+00  0.93827000000E+00 0.  1.
     999902    2    1    2    0    0  0.18348662373E-01  0.50675669739E-02  0.11967233882E-01  0.10214451533E+01  0.10211976463E+01 0.  0.
     999903    2    3    3    0    0  0.11900473834E-02 -0.27479691918E-02 -0.12859278966E+00  0.13009077879E+00  0.19456043468E-01 0.  0.
         14    1    1    2    0    0 -0.18348662373E-01 -0.50675669739E-02 -0.11967233882E-01  0.22484846735E-01  0.00000000000E+00 0. -1.
     999901    1    3    3    0    0  0.17158614990E-01  0.78155361657E-02  0.14056002354E+00  0.89135437447E+00  0.88000000000E+00 0. -1.
        -11    1    4    4    0    0 -0.42380864552E-02 -0.92314022369E-02 -0.48735609417E-01  0.49785549212E-01  0.51100000000E-03 0.  1.
         11    1    4    4    0    0  0.54281338386E-02  0.64834330451E-02 -0.79857180240E-01  0.80305229580E-01  0.51100000000E-03 0. -1.
</event>
<event>
 8    1  0.1051655E+005  0.1043930E+01  0.7957747E-01            NaN
         13   -1    0    0    0    0  0.00000000000E+00  0.00000000000E+00  0.74505805969E-08  0.10566000000E+00  0.10566000000E+00 0. -1.
     999900   -1    0    0    0    0 -0.00000000000E+00 -0.00000000000E+00 -0.74505805969E-08  0.93827000000E+00  0.93827000000E+00 0. -1.
     999902    2    1    2    0    0  0.12878797224E-01 -0.17247549867E-01  0.10261583745E-01  0.10200837949E+01  0.10198050339E+01 0.  0.
     999903    2    3    3    0    0 -0.72677515079E-01  0.16164249602E-01 -0.10232894248E+00  0.12816852010E+00  0.20313860093E-01 0.  0.
         14    1    1    2    0    0 -0.12878797224E-01  0.17247549867E-01 -0.10261583745E-01  0.23846205051E-01  0.00000000000E+00 0. -1.
     999901    1    3    3    0    0  0.85556312303E-01 -0.33411799469E-01  0.11259052622E+00  0.89191527485E+00  0.88000000000E+00 0.  1.
        -11    1    4    4    0    0 -0.54053023910E-01  0.20829468898E-01 -0.75075554935E-01  0.94827191449E-01  0.51100000000E-03 0.  1.
         11    1    4    4    0    0 -0.18624491169E-01 -0.46652192966E-02 -0.27253387544E-01  0.33341328648E-01  0.51100000000E-03 0. -1.
</event>
<event>
 8    1  0.1051655E+005  0.1043930E+01  0.7957747E-01            NaN
         13   -1    0    0    0    0  0.00000000000E+00  0.00000000000E+00  0.74505805969E-08  0.10566000000E+00  0.10566000000E+00 0. -1.
     999900   -1    0    0    0    0 -0.00000000000E+00 -0.00000000000E+00 -0.74505805969E-08  0.93827000000E+00  0.93827000000E+00 0.  1.
     999902    2    1    2    0    0  0.29415745143E-02  0.23322435548E-01 -0.48970596832E-02  0.10199181268E+01  0.10196354326E+01 0.  0.
     999903    2    3    3    0    0 -0.17298203192E-01  0.61150343972E-01 -0.11478067449E+00  0.13204707308E+00  0.14941013041E-01 0.  0.
         14    1    1    2    0    0 -0.29415745143E-02 -0.23322435548E-01  0.48970596832E-02  0.24011873190E-01  0.00000000000E+00 0.  1.
     999901    1    3    3    0    0  0.20239777706E-01 -0.37827908424E-01  0.10988361480E+00  0.88787105373E+00  0.88000000000E+00 0. -1.
        -11    1    4    4    0    0 -0.36630949176E-02  0.15228808035E-01 -0.16755985129E-01  0.22942515494E-01  0.51100000000E-03 0. -1.
         11    1    4    4    0    0 -0.13635108274E-01  0.45921535937E-01 -0.98024689358E-01  0.10910455758E+00  0.51100000000E-03 0.  1.
</event>
<event>
 8    1  0.1051655E+005  0.1043930E+01  0.7957747E-01            NaN
         13   -1    0    0    0    0  0.00000000000E+00  0.00000000000E+00  0.74505805969E-08  0.10566000000E+00  0.10566000000E+00 0.  1.
     999900   -1    0    0    0    0 -0.00000000000E+00 -0.00000000000E+00 -0.74505805969E-08  0.93827000000E+00  0.93827000000E+00 0. -1.
     999902    2    1    2    0    0  0.42556452647E-02 -0.11750722000E-01  0.20399486887E-01  0.10200066004E+01  0.10197260101E+01 0.  0.
     999903    2    3    3    0    0  0.37362096179E-01 -0.25638964317E-01  0.12367094138E+00  0.13324061452E+00  0.20131490099E-01 0.  0.
         14    1    1    2    0    0 -0.42556452647E-02  0.11750722000E-01 -0.20399486887E-01  0.23923399621E-01  0.00000000000E+00 0.  1.
     999901    1    3    3    0    0 -0.33106450915E-01  0.13888242317E-01 -0.10327145449E+00  0.88676598586E+00  0.88000000000E+00 0. -1.
        -11    1    4    4    0    0  0.21755045491E-01 -0.23411319670E-01  0.64244909006E-01  0.71756820910E-01  0.51100000000E-03 0. -1.
         11    1    4    4    0    0  0.15607050688E-01 -0.22276446474E-02  0.59426032373E-01  0.61483793608E-01  0.51100000000E-03 0.  1.
</event>
<event>
 8    1  0.1051655E+005  0.1043930E+01  0.7957747E-01            NaN
         13   -1    0    0    0    0  0.00000000000E+00  0.00000000000E+00  0.74505805969E-08  0.10566000000E+00  0.10566000000E+00 0.  1.
     999900   -1    0    0    0    0 -0.00000000000E+00 -0.00000000000E+00 -0.74505805969E-08  0.93827000000E+00  0.93827000000E+00 0.  1.
     999902    2    1    2    0    0 -0.14443984322E-01  0.72831866159E-02  0.21695864805E-01  0.10168674051E+01  0.10165072236E+01 0.  0.
     999903    2    3    3    0    0  0.80369637354E-01 -0.40351169116E-01  0.88430732976E-01  0.12798484973E+00  0.21740095863E-01 0.  0.
         14    1    1    2    0    0  0.14443984322E-01 -0.72831866159E-02 -0.21695864805E-01  0.27062594850E-01  0.00000000000E+00 0. -1.
     999901    1    3    3    0    0 -0.94813621676E-01  0.47634355732E-01 -0.66734868171E-01  0.88888255542E+00  0.88000000000E+00 0.  1.
        -11    1    4    4    0    0  0.67796786945E-01 -0.40688345386E-01  0.69629377622E-01  0.10535870690E+00  0.51100000000E-03 0. -1.
         11    1    4    4    0    0  0.12572850409E-01  0.33717626992E-03  0.18801355354E-01  0.22626142831E-01  0.51100000000E-03 0.  1.
</event>
<event>
 8    1  0.1051655E+005  0.1043930E+01  0.7957747E-01            NaN
         13   -1    0    0    0    0  0.00000000000E+00  0.00000000000E+00  0.74505805969E-08  0.10566000000E+00  0.10566000000E+00 0.  1.
     999900   -1    0    0    0    0 -0.00000000000E+00 -0.00000000000E+00 -0.74505805969E-08  0.93827000000E+00  0.93827000000E+00 0.  1.
     999902    2    1    2    0    0  0.83152969052E-02 -0.81656523323E-02 -0.21455407385E-01  0.10195136828E+01  0.10192212678E+01 0.  0.
     999903    2    3    3    0    0 -0.63903850424E-01  0.10562352496E+00 -0.32732303106E-01  0.12918186234E+00  0.19404091520E-01 0.  0.
         14    1    1    2    0    0 -0.83152969052E-02  0.81656523323E-02  0.21455407385E-01  0.24416317222E-01  0.00000000000E+00 0.  1.
     999901    1    3    3    0    0  0.72219147329E-01 -0.11378917729E+00  0.11276895722E-01  0.89033182044E+00  0.88000000000E+00 0. -1.
        -11    1    4    4    0    0 -0.31906503579E-01  0.69777424936E-01 -0.23543482977E-01  0.80258773433E-01  0.51100000000E-03 0. -1.
         11    1    4    4    0    0 -0.31997346844E-01  0.35846100020E-01 -0.91888201293E-02  0.48923088906E-01  0.51100000000E-03 0.  1.
</event>
<event>
 8    1  0.1051655E+005  0.1043930E+01  0.7957747E-01            NaN
         13   -1    0    0    0    0  0.00000000000E+00  0.00000000000E+00  0.74505805969E-08  0.10566000000E+00  0.10566000000E+00 0. -1.
     999900   -1    0    0    0    0 -0.00000000000E+00 -0.00000000000E+00 -0.74505805969E-08  0.93827000000E+00  0.93827000000E+00 0. -1.
     999902    2    1    2    0    0 -0.37915126860E-02 -0.21040937758E-01  0.11364514479E-01  0.10197174244E+01  0.10194299273E+01 0.  0.
     999903    2    3    3    0    0 -0.39072020323E-01 -0.41804651886E-01  0.11760778294E+00  0.13238238158E+00  0.20475659981E-01 0.  0.
         14    1    1    2    0    0  0.37915126860E-02  0.21040937758E-01 -0.11364514479E-01  0.24212575648E-01  0.00000000000E+00 0.  1.
     999901    1    3    3    0    0  0.35280507637E-01  0.20763714128E-01 -0.10624326846E+00  0.88733504278E+00  0.88000000000E+00 0. -1.
        -11    1    4    4    0    0 -0.16689420261E-01 -0.29939380769E-01  0.79996930207E-01  0.87032598680E-01  0.51100000000E-03 0. -1.
         11    1    4    4    0    0 -0.22382600062E-01 -0.11865271118E-01  0.37610852735E-01  0.45349782896E-01  0.51100000000E-03 0.  1.
</event>
<event>
 8    1  0.1051655E+005  0.1043930E+01  0.7957747E-01            NaN
         13   -1    0    0    0    0  0.00000000000E+00  0.00000000000E+00  0.74505805969E-08  0.10566000000E+00  0.10566000000E+00 0.  1.
     999900   -1    0    0    0    0 -0.00000000000E+00 -0.00000000000E+00 -0.74505805969E-08  0.93827000000E+00  0.93827000000E+00 0.  1.
     999902    2    1    2    0    0 -0.16608668694E-01 -0.18139225772E-02  0.16789031194E-01  0.10202443554E+01  0.10199693794E+01 0.  0.
     999903    2    3    3    0    0 -0.75944965588E-01 -0.13513402926E-01  0.10722634082E+00  0.13354452969E+00  0.19657145958E-01 0.  0.
         14    1    1    2    0    0  0.16608668694E-01  0.18139225772E-02 -0.16789031194E-01  0.23685644584E-01  0.00000000000E+00 0.  1.
     999901    1    3    3    0    0  0.59336296894E-01  0.11699480349E-01 -0.90437309629E-01  0.88669982573E+00  0.88000000000E+00 0. -1.
        -11    1    4    4    0    0 -0.30710380304E-01 -0.42836231973E-02  0.59760908799E-01  0.67328331538E-01  0.51100000000E-03 0. -1.
         11    1    4    4    0    0 -0.45234585284E-01 -0.92297797288E-02  0.47465432023E-01  0.66216198153E-01  0.51100000000E-03 0.  1.
</event>
<event>
 8    1  0.1051655E+005  0.1043930E+01  0.7957747E-01            NaN
         13   -1    0    0    0    0  0.00000000000E+00  0.00000000000E+00  0.74505805969E-08  0.10566000000E+00  0.10566000000E+00 0. -1.
     999900   -1    0    0    0    0 -0.00000000000E+00 -0.00000000000E+00 -0.74505805969E-08  0.93827000000E+00  0.93827000000E+00 0.  1.
     999902    2    1    2    0    0  0.16773014694E-01  0.14271315031E-01 -0.10494537502E-01  0.10195345133E+01  0.10192426031E+01 0.  0.
     999903    2    3    3    0    0 -0.11821159672E-01  0.15338814000E-01  0.12610662300E+00  0.12853583573E+00  0.15606462506E-01 0.  0.
         14    1    1    2    0    0 -0.16773014694E-01 -0.14271315031E-01  0.10494537502E-01  0.24395486714E-01  0.00000000000E+00 0.  1.
     999901    1    3    3    0    0  0.28594174366E-01 -0.10674989695E-02 -0.13660116050E+00  0.89099867756E+00  0.88000000000E+00 0.  1.
        -11    1    4    4    0    0  0.30685886591E-02  0.14737297407E-02  0.35758269213E-01  0.35923572397E-01  0.51100000000E-03 0. -1.
         11    1    4    4    0    0 -0.14889748331E-01  0.13865084259E-01  0.90348353783E-01  0.92612263330E-01  0.51100000000E-03 0.  1.
</event>
<event>
 8    1  0.1051655E+005  0.1043930E+01  0.7957747E-01            NaN
         13   -1    0    0    0    0  0.00000000000E+00  0.00000000000E+00  0.74505805969E-08  0.10566000000E+00  0.10566000000E+00 0. -1.
     999900   -1    0    0    0    0 -0.00000000000E+00 -0.00000000000E+00 -0.74505805969E-08  0.93827000000E+00  0.93827000000E+00 0.  1.
     999902    2    1    2    0    0 -0.23339584609E-01 -0.57110621513E-02 -0.53428347034E-02  0.10193149980E+01  0.10190177461E+01 0.  0.
     999903    2    3    3    0    0 -0.11395965682E+00 -0.21662547112E-01 -0.61814038188E-01  0.13271731913E+00  0.18353259963E-01 0.  0.
         14    1    1    2    0    0  0.23339584609E-01  0.57110621513E-02  0.53428347034E-02  0.24615001997E-01  0.00000000000E+00 0. -1.
     999901    1    3    3    0    0  0.90620072206E-01  0.15951484961E-01  0.56471203485E-01  0.88659767887E+00  0.88000000000E+00 0. -1.
        -11    1    4    4    0    0 -0.21702222999E-01 -0.94147121321E-02 -0.68626145050E-02  0.24636961795E-01  0.51100000000E-03 0. -1.
         11    1    4    4    0    0 -0.92257433816E-01 -0.12247834980E-01 -0.54951423683E-01  0.10808035734E+00  0.51100000000E-03 0.  1.
</event>
<event>
 8    1  0.1051655E+005  0.1043930E+01  0.7957747E-01            NaN
         13   -1    0    0    0    0  0.00000000000E+00  0.00000000000E+00  0.74505805969E-08  0.10566000000E+00  0.10566000000E+00 0. -1.
     999900   -1    0    0    0    0 -0.00000000000E+00 -0.00000000000E+00 -0.74505805969E-08  0.93827000000E+00  0.93827000000E+00 0. -1.
     999902    2    1    2    0    0 -0.15778328611E-01  0.89367518548E-02 -0.14737571481E-01  0.10205629891E+01  0.10202954461E+01 0.  0.
     999903    2    3    3    0    0  0.34428935502E-01  0.40060195127E-01 -0.11993199779E+00  0.13233142836E+00  0.18378030439E-01 0.  0.
         14    1    1    2    0    0  0.15778328611E-01 -0.89367518548E-02  0.14737571481E-01  0.23367010948E-01  0.00000000000E+00 0. -1.
     999901    1    3    3    0    0 -0.50207264113E-01 -0.31123443272E-01  0.10519442631E+00  0.88823156070E+00  0.88000000000E+00 0.  1.
        -11    1    4    4    0    0  0.27677460049E-01  0.20026328820E-01 -0.64262385692E-01  0.72780567301E-01  0.51100000000E-03 0.  1.
         11    1    4    4    0    0  0.67514754529E-02  0.20033866307E-01 -0.55669612100E-01  0.59550861055E-01  0.51100000000E-03 0. -1.
</event>
<event>
 8    1  0.1051655E+005  0.1043930E+01  0.7957747E-01            NaN
         13   -1    0    0    0    0  0.00000000000E+00  0.00000000000E+00  0.74505805969E-08  0.10566000000E+00  0.10566000000E+00 0. -1.
     999900   -1    0    0    0    0 -0.00000000000E+00 -0.00000000000E+00 -0.74505805969E-08  0.93827000000E+00  0.93827000000E+00 0. -1.
     999902    2    1    2    0    0 -0.76270926842E-02  0.19382815855E-01  0.64559839145E-02  0.10221229869E+01  0.10218903339E+01 0.  0.
     999903    2    3    3    0    0 -0.41759585357E-01 -0.79515901312E-01 -0.92551157511E-01  0.13041204864E+00  0.19363474441E-01 0.  0.
         14    1    1    2    0    0  0.76270926842E-02 -0.19382815855E-01 -0.64559839145E-02  0.21807013128E-01  0.00000000000E+00 0. -1.
     999901    1    3    3    0    0  0.34132492673E-01  0.98898717167E-01  0.99007141425E-01  0.89171093823E+00  0.88000000000E+00 0.  1.
        -11    1    4    4    0    0 -0.19872935448E-01 -0.23010722236E-01 -0.39676286507E-01  0.49988956112E-01  0.51100000000E-03 0.  1.
         11    1    4    4    0    0 -0.21886649909E-01 -0.56505179076E-01 -0.52874871004E-01  0.80423092525E-01  0.51100000000E-03 0. -1.
</event>
<event>
 8    1  0.1051655E+005  0.1043930E+01  0.7957747E-01            NaN
         13   -1    0    0    0    0  0.00000000000E+00  0.00000000000E+00  0.74505805969E-08  0.10566000000E+00  0.10566000000E+00 0. -1.
     999900   -1    0    0    0    0 -0.00000000000E+00 -0.00000000000E+00 -0.74505805969E-08  0.93827000000E+00  0.93827000000E+00 0. -1.
     999902    2    1    2    0    0 -0.17420820915E-01  0.94611431002E-02  0.98052391939E-02  0.10218134689E+01  0.10215740915E+01 0.  0.
     999903    2    3    3    0    0  0.53794060000E-01 -0.10805729945E+00 -0.42531700140E-01  0.12961321182E+00  0.20505079983E-01 0.  0.
         14    1    1    2    0    0  0.17420820915E-01 -0.94611431002E-02 -0.98052391939E-02  0.22116531052E-01  0.00000000000E+00 0.  1.
     999901    1    3    3    0    0 -0.71214880915E-01  0.11751844255E+00  0.52336939334E-01  0.89220025713E+00  0.88000000000E+00 0. -1.
        -11    1    4    4    0    0  0.37598074588E-02 -0.23848582047E-01 -0.12302628709E-01  0.27101786139E-01  0.51100000000E-03 0.  1.
         11    1    4    4    0    0  0.50034252541E-01 -0.84208717404E-01 -0.30229071431E-01  0.10251142568E+00  0.51100000000E-03 0. -1.
</event>
<event>
 8    1  0.1051655E+005  0.1043930E+01  0.7957747E-01            NaN
         13   -1    0    0    0    0  0.00000000000E+00  0.00000000000E+00  0.74505805969E-08  0.10566000000E+00  0.10566000000E+00 0. -1.
     999900   -1    0    0    0    0 -0.00000000000E+00 -0.00000000000E+00 -0.74505805969E-08  0.93827000000E+00  0.93827000000E+00 0. -1.
     999902    2    1    2    0    0  0.53812373125E-02 -0.21433190810E-01  0.89179906460E-03  0.10218136104E+01  0.10215742360E+01 0.  0.
     999903    2    3    3    0    0  0.12864390254E+00 -0.13099678065E-01  0.23213557875E-01  0.13290338266E+00  0.20089415785E-01 0.  0.
         14    1    1    2    0    0 -0.53812373125E-02  0.21433190810E-01 -0.89179906460E-03  0.22116389599E-01  0.00000000000E+00 0.  1.
     999901    1    3    3    0    0 -0.12326266523E+00 -0.83335127458E-02 -0.22321758811E-01  0.88891022774E+00  0.88000000000E+00 0.  1.
        -11    1    4    4    0    0  0.53590296019E-01 -0.14456073305E-01  0.14206696439E-01  0.57297375399E-01  0.51100000000E-03 0. -1.
         11    1    4    4    0    0  0.75053606519E-01  0.13563952402E-02  0.90068614360E-02  0.75606007257E-01  0.51100000000E-03 0.  1.
</event>
<event>
 8    1  0.1051655E+005  0.1043930E+01  0.7957747E-01            NaN
         13   -1    0    0    0    0  0.00000000000E+00  0.00000000000E+00  0.74505805969E-08  0.10566000000E+00  0.10566000000E+00 0. -1.
     999900   -1    0    0    0    0 -0.00000000000E+00 -0.00000000000E+00 -0.74505805969E-08  0.93827000000E+00  0.93827000000E+00 0.  1.
     999902    2    1    2    0    0  0.76289868835E-02 -0.20517324947E-01 -0.94049541248E-02  0.10201053232E+01  0.10198270712E+01 0.  0.
     999903    2    3    3    0    0 -0.11292296685E+00 -0.51273298856E-01 -0.36835349450E-01  0.13093091392E+00  0.20137369100E-01 0.  0.
         14    1    1    2    0    0 -0.76289868835E-02  0.20517324947E-01  0.94049541248E-02  0.23824676828E-01  0.00000000000E+00 0. -1.
     999901    1    3    3    0    0  0.12055195373E+00  0.30755973909E-01  0.27430395326E-01  0.88917440925E+00  0.88000000000E+00 0. -1.
        -11    1    4    4    0    0 -0.60109418593E-01 -0.31202971292E-01 -0.10289728652E-01  0.68504797334E-01  0.51100000000E-03 0. -1.
         11    1    4    4    0    0 -0.52813548252E-01 -0.20070327564E-01 -0.26545620798E-01  0.62426116587E-01  0.51100000000E-03 0.  1.
</event>
<event>
 8    1  0.1051655E+005  0.1043930E+01  0.7957747E-01            NaN
         13   -1    0    0    0    0  0.00000000000E+00  0.00000000000E+00  0.74505805969E-08  0.10566000000E+00  0.10566000000E+00 0. -1.
     999900   -1    0    0    0    0 -0.00000000000E+00 -0.00000000000E+00 -0.74505805969E-08  0.93827000000E+00  0.93827000000E+00 0. -1.
     999902    2    1    2    0    0 -0.64756568505E-03 -0.15607915028E-01 -0.17364159388E-01  0.10205731941E+01  0.10203058875E+01 0.  0.
     999903    2    3    3    0    0 -0.65526293487E-01  0.81920920298E-01 -0.75554083361E-01  0.13090629555E+00  0.20574410830E-01 0.  0.
         14    1    1    2    0    0  0.64756568505E-03  0.15607915028E-01  0.17364159388E-01  0.23356805948E-01  0.00000000000E+00 0. -1.
     999901    1    3    3    0    0  0.64878727802E-01 -0.97528835326E-01  0.58189923973E-01  0.88966689850E+00  0.88000000000E+00 0.  1.
        -11    1    4    4    0    0 -0.36329424421E-01  0.29656410087E-01 -0.29957323529E-01  0.55650984646E-01  0.51100000000E-03 0.  1.
         11    1    4    4    0    0 -0.29196869066E-01  0.52264510211E-01 -0.45596759832E-01  0.75255310903E-01  0.51100000000E-03 0. -1.
</event>
<event>
 8    1  0.1705060E+005  0.1043930E+01  0.7957747E-01            NaN
         13   -1    0    0    0    0  0.00000000000E+00  0.00000000000E+00  0.74505805969E-08  0.10566000000E+00  0.10566000000E+00 0.  1.
     999900   -1    0    0    0    0 -0.00000000000E+00 -0.00000000000E+00 -0.74505805969E-08  0.93827000000E+00  0.93827000000E+00 0.  1.
     999902    2    1    2    0    0  0.22452691751E-01  0.58023760354E-02  0.39676396385E-02  0.10204027159E+01  0.10201314471E+01 0.  0.
     999903    2    3    3    0    0  0.90329148850E-01  0.33227031891E-01 -0.88826701904E-01  0.13250062948E+00  0.20070950703E-01 0.  0.
         14    1    1    2    0    0 -0.22452691751E-01 -0.58023760354E-02 -0.39676396385E-02  0.23527284136E-01  0.00000000000E+00 0. -1.
     999901    1    3    3    0    0 -0.67876457099E-01 -0.27424655856E-01  0.92794341542E-01  0.88790208638E+00  0.88000000000E+00 0. -1.
        -11    1    4    4    0    0  0.40559273240E-01  0.24175151043E-01 -0.36178544124E-01  0.59486475351E-01  0.51100000000E-03 0.  1.
         11    1    4    4    0    0  0.49769875609E-01  0.90518808485E-02 -0.52648157779E-01  0.73014154132E-01  0.51100000000E-03 0. -1.
</event>
<event>
 8    1  0.1051655E+005  0.1043930E+01  0.7957747E-01            NaN
         13   -1    0    0    0    0  0.00000000000E+00  0.00000000000E+00  0.74505805969E-08  0.10566000000E+00  0.10566000000E+00 0.  1.
     999900   -1    0    0    0    0 -0.00000000000E+00 -0.00000000000E+00 -0.74505805969E-08  0.93827000000E+00  0.93827000000E+00 0. -1.
     999902    2    1    2    0    0  0.43163087538E-02  0.23258317953E-01 -0.20553838042E-02  0.10201854327E+01  0.10199090707E+01 0.  0.
     999903    2    3    3    0    0  0.43011576215E-01 -0.90593221129E-01  0.77714646885E-01  0.12843280190E+00  0.19957225795E-01 0.  0.
         14    1    1    2    0    0 -0.43163087538E-02 -0.23258317953E-01  0.20553838042E-02  0.23744567333E-01  0.00000000000E+00 0. -1.
     999901    1    3    3    0    0 -0.38695267461E-01  0.11385153908E+00 -0.79770030689E-01  0.89175263076E+00  0.88000000000E+00 0. -1.
        -11    1    4    4    0    0  0.46456928334E-02 -0.10443050592E-01  0.18448355641E-02  0.11588973502E-01  0.51100000000E-03 0.  1.
         11    1    4    4    0    0  0.38365883381E-01 -0.80150170537E-01  0.75869811321E-01  0.11684382840E+00  0.51100000000E-03 0. -1.
</event>
<event>
 8    1  0.1051655E+005  0.1043930E+01  0.7957747E-01            NaN
         13   -1    0    0    0    0  0.00000000000E+00  0.00000000000E+00  0.74505805969E-08  0.10566000000E+00  0.10566000000E+00 0. -1.
     999900   -1    0    0    0    0 -0.00000000000E+00 -0.00000000000E+00 -0.74505805969E-08  0.93827000000E+00  0.93827000000E+00 0.  1.
     999902    2    1    2    0    0 -0.16265617183E-02  0.22169200518E-01  0.97383377464E-02  0.10196616178E+01  0.10193727779E+01 0.  0.
     999903    2    3    3    0    0 -0.11042960751E+00 -0.43341883122E-01  0.49056146803E-01  0.12967527238E+00  0.18329039259E-01 0.  0.
         14    1    1    2    0    0  0.16265617183E-02 -0.22169200518E-01 -0.97383377464E-02  0.24268382243E-01  0.00000000000E+00 0.  1.
     999901    1    3    3    0    0  0.10880304579E+00  0.65511083640E-01 -0.39317809057E-01  0.88998634538E+00  0.88000000000E+00 0.  1.
        -11    1    4    4    0    0 -0.43651854221E-01 -0.20072889583E-01  0.29189813645E-01  0.56220206464E-01  0.51100000000E-03 0. -1.
         11    1    4    4    0    0 -0.66777753286E-01 -0.23268993539E-01  0.19866333158E-01  0.73455065914E-01  0.51100000000E-03 0.  1.
</event>
<event>
 8    1  0.1051655E+005  0.1043930E+01  0.7957747E-01            NaN
         13   -1    0    0    0    0  0.00000000000E+00  0.00000000000E+00  0.74505805969E-08  0.10566000000E+00  0.10566000000E+00 0. -1.
     999900   -1    0    0    0    0 -0.00000000000E+00 -0.00000000000E+00 -0.74505805969E-08  0.93827000000E+00  0.93827000000E+00 0.  1.
     999902    2    1    2    0    0  0.13271934376E-01 -0.17220410853E-01  0.98973253199E-02  0.10200418473E+01  0.10197620930E+01 0.  0.
     999903    2    3    3    0    0  0.11891871685E+00 -0.49208111654E-01  0.27173239007E-01  0.13297763718E+00  0.19533755427E-01 0.  0.
         14    1    1    2    0    0 -0.13271934376E-01  0.17220410853E-01 -0.98973253199E-02  0.23888152723E-01  0.00000000000E+00 0. -1.
     999901    1    3    3    0    0 -0.10564678247E+00  0.31987700801E-01 -0.17275913688E-01  0.88706421010E+00  0.88000000000E+00 0. -1.
        -11    1    4    4    0    0  0.80960068247E-01 -0.25221196492E-01  0.23092481433E-01  0.87887230146E-01  0.51100000000E-03 0.  1.
         11    1    4    4    0    0  0.37958648602E-01 -0.23986915162E-01  0.40807575745E-02  0.45090407029E-01  0.51100000000E-03 0. -1.
</event>
<event>
 8    1  0.1051655E+005  0.1043930E+01  0.7957747E-01            NaN
         13   -1    0    0    0    0  0.00000000000E+00  0.00000000000E+00  0.74505805969E-08  0.10566000000E+00  0.10566000000E+00 0. -1.
     999900   -1    0    0    0    0 -0.00000000000E+00 -0.00000000000E+00 -0.74505805969E-08  0.93827000000E+00  0.93827000000E+00 0. -1.
     999902    2    1    2    0    0  0.18143930704E-01 -0.20504323996E-02  0.16052455947E-01  0.10196177020E+01  0.10193278032E+01 0.  0.
     999903    2    3    3    0    0  0.18252298220E-01 -0.94748880142E-01 -0.83537397822E-01  0.12916211467E+00  0.19845864845E-01 0.  0.
         14    1    1    2    0    0 -0.18143930704E-01  0.20504323996E-02 -0.16052455947E-01  0.24312298047E-01  0.00000000000E+00 0.  1.
     999901    1    3    3    0    0 -0.10836751534E-03  0.92698447743E-01  0.99589853769E-01  0.89045558729E+00  0.88000000000E+00 0.  1.
        -11    1    4    4    0    0  0.49775489452E-02 -0.53352459843E-01 -0.35017567738E-01  0.64013687100E-01  0.51100000000E-03 0. -1.
         11    1    4    4    0    0  0.13274749275E-01 -0.41396420299E-01 -0.48519830084E-01  0.65148427566E-01  0.51100000000E-03 0.  1.
</event>
<event>
 8    1  0.1051655E+005  0.1043930E+01  0.7957747E-01            NaN
         13   -1    0    0    0    0  0.00000000000E+00  0.00000000000E+00  0.74505805969E-08  0.10566000000E+00  0.10566000000E+00 0. -1.
     999900   -1    0    0    0    0 -0.00000000000E+00 -0.00000000000E+00 -0.74505805969E-08  0.93827000000E+00  0.93827000000E+00 0. -1.
     999902    2    1    2    0    0  0.59540710637E-02 -0.10481011187E-01 -0.20200282526E-01  0.10204065230E+01  0.10201353430E+01 0.  0.
     999903    2    3    3    0    0 -0.77862294407E-01 -0.10054109596E+00  0.17901875630E-01  0.13103158715E+00  0.26033647730E-01 0.  0.
         14    1    1    2    0    0 -0.59540710637E-02  0.10481011187E-01  0.20200282526E-01  0.23523477036E-01  0.00000000000E+00 0.  1.
     999901    1    3    3    0    0  0.83816365470E-01  0.90060084773E-01 -0.38102158156E-01  0.88937493581E+00  0.88000000000E+00 0.  1.
        -11    1    4    4    0    0 -0.11671200341E-01 -0.37359496946E-02  0.41870084340E-02  0.12960185113E-01  0.51100000000E-03 0.  1.
         11    1    4    4    0    0 -0.66191094066E-01 -0.96805146265E-01  0.13714867196E-01  0.11807140204E+00  0.51100000000E-03 0. -1.
</event>
<event>
 8    1  0.1051655E+005  0.1043930E+01  0.7957747E-01            NaN
         13   -1    0    0    0    0  0.00000000000E+00  0.00000000000E+00  0.74505805969E-08  0.10566000000E+00  0.10566000000E+00 0. -1.
     999900   -1    0    0    0    0 -0.00000000000E+00 -0.00000000000E+00 -0.74505805969E-08  0.93827000000E+00  0.93827000000E+00 0.  1.
     999902    2    1    2    0    0  0.17618612889E-01 -0.10450669699E-01 -0.12807148184E-01  0.10197710459E+01  0.10194848361E+01 0.  0.
     999903    2    3    3    0    0 -0.27263706881E-01  0.11489695850E+00 -0.48467339412E-01  0.12904207494E+00  0.18924939329E-01 0.  0.
         14    1    1    2    0    0 -0.17618612889E-01  0.10450669699E-01  0.12807148184E-01  0.24158954073E-01  0.00000000000E+00 0. -1.
     999901    1    3    3    0    0  0.44882319770E-01 -0.12534762820E+00  0.35660191228E-01  0.89072897099E+00  0.88000000000E+00 0. -1.
        -11    1    4    4    0    0 -0.27983786491E-01  0.11079565424E+00 -0.42882674573E-01  0.12205717596E+00  0.51100000000E-03 0.  1.
         11    1    4    4    0    0  0.72007961032E-03  0.41013042605E-02 -0.55846648390E-02  0.69848989718E-02  0.51100000000E-03 0. -1.
</event>
<event>
 8    1  0.1051655E+005  0.1043930E+01  0.7957747E-01            NaN
         13   -1    0    0    0    0  0.00000000000E+00  0.00000000000E+00  0.74505805969E-08  0.10566000000E+00  0.10566000000E+00 0.  1.
     999900   -1    0    0    0    0 -0.00000000000E+00 -0.00000000000E+00 -0.74505805969E-08  0.93827000000E+00  0.93827000000E+00 0. -1.
     999902    2    1    2    0    0 -0.18507902420E-02  0.18579559529E-01  0.14902576394E-01  0.10200404157E+01  0.10197606275E+01 0.  0.
     999903    2    3    3    0    0  0.94261807565E-01 -0.15167262711E-01 -0.84076420699E-01  0.12865199228E+00  0.19161325018E-01 0.  0.
         14    1    1    2    0    0  0.18507902420E-02 -0.18579559529E-01 -0.14902576394E-01  0.23889584341E-01  0.00000000000E+00 0. -1.
     999901    1    3    3    0    0 -0.96112597807E-01  0.33746822240E-01  0.98978997093E-01  0.89138842338E+00  0.88000000000E+00 0.  1.
        -11    1    4    4    0    0  0.91904777060E-01 -0.11009410726E-01 -0.80279595908E-01  0.12252660858E+00  0.51100000000E-03 0. -1.
         11    1    4    4    0    0  0.23570305052E-02 -0.41578519844E-02 -0.37968247917E-02  0.61253836962E-02  0.51100000000E-03 0.  1.
</event>
<event>
 8    1  0.1367687E+005  0.1043930E+01  0.7957747E-01            NaN
         13   -1    0    0    0    0  0.00000000000E+00  0.00000000000E+00  0.74505805969E-08  0.10566000000E+00  0.10566000000E+00 0.  1.
     999900   -1    0    0    0    0 -0.00000000000E+00 -0.00000000000E+00 -0.74505805969E-08  0.93827000000E+00  0.93827000000E+00 0. -1.
     999902    2    1    2    0    0  0.35881085501E-02 -0.14463974246E-01 -0.17232047974E-01  0.10211478897E+01  0.10208937202E+01 0.  0.
     999903    2    3    3    0    0  0.98585598589E-01 -0.66443118084E-01 -0.57561399831E-01  0.13359349070E+00  0.20002445243E-01 0.  0.
         14    1    1    2    0    0 -0.35881085501E-02  0.14463974246E-01  0.17232047974E-01  0.22782110336E-01  0.00000000000E+00 0.  1.
     999901    1    3    3    0    0 -0.94997490039E-01  0.51979143838E-01  0.40329351856E-01  0.88755439897E+00  0.88000000000E+00 0. -1.
        -11    1    4    4    0    0  0.57000096843E-01 -0.26405440432E-01 -0.30682897335E-01  0.69913944492E-01  0.51100000000E-03 0.  1.
         11    1    4    4    0    0  0.41585501746E-01 -0.40037677653E-01 -0.26878502496E-01  0.63679546204E-01  0.51100000000E-03 0. -1.
</event>
<event>
 8    1  0.1051655E+005  0.1043930E+01  0.7957747E-01            NaN
         13   -1    0    0    0    0  0.00000000000E+00  0.00000000000E+00  0.74505805969E-08  0.10566000000E+00  0.10566000000E+00 0.  1.
     999900   -1    0    0    0    0 -0.00000000000E+00 -0.00000000000E+00 -0.74505805969E-08  0.93827000000E+00  0.93827000000E+00 0. -1.
     999902    2    1    2    0    0  0.13506181388E-01 -0.17142735987E-01 -0.75666966831E-02  0.10208314020E+01  0.10205700397E+01 0.  0.
     999903    2    3    3    0    0  0.60131615298E-01 -0.83449166137E-01  0.81623344749E-01  0.13261671099E+00  0.18580827156E-01 0.  0.
         14    1    1    2    0    0 -0.13506181388E-01  0.17142735987E-01  0.75666966831E-02  0.23098598042E-01  0.00000000000E+00 0. -1.
     999901    1    3    3    0    0 -0.46625433910E-01  0.66306430150E-01 -0.89190041432E-01  0.88821469097E+00  0.88000000000E+00 0. -1.
        -11    1    4    4    0    0  0.27090201446E-01 -0.38997046925E-01  0.49464076207E-01  0.68568248039E-01  0.51100000000E-03 0. -1.
         11    1    4    4    0    0  0.33041413852E-01 -0.44452119212E-01  0.32159268542E-01  0.64048462947E-01  0.51100000000E-03 0.  1.
</event>
<event>
 8    1  0.1132276E+005  0.1043930E+01  0.7957747E-01            NaN
         13   -1    0    0    0    0  0.00000000000E+00  0.00000000000E+00  0.74505805969E-08  0.10566000000E+00  0.10566000000E+00 0. -1.
     999900   -1    0    0    0    0 -0.00000000000E+00 -0.00000000000E+00 -0.74505805969E-08  0.93827000000E+00  0.93827000000E+00 0. -1.
     999902    2    1    2    0    0  0.18871301251E-02 -0.92188693272E-02 -0.24359544463E-01  0.10178160915E+01  0.10174810366E+01 0.  0.
     999903    2    3    3    0    0 -0.93557260413E-01 -0.84110568833E-01 -0.23080729319E-01  0.12949180739E+00  0.20195527948E-01 0.  0.
         14    1    1    2    0    0 -0.18871301251E-02  0.92188693272E-02  0.24359544463E-01  0.26113908521E-01  0.00000000000E+00 0. -1.
     999901    1    3    3    0    0  0.95444390538E-01  0.74891699506E-01 -0.12788151442E-02  0.88832428409E+00  0.88000000000E+00 0.  1.
        -11    1    4    4    0    0 -0.31793430469E-01 -0.37342454848E-01 -0.15060175783E-02  0.49069444311E-01  0.51100000000E-03 0. -1.
         11    1    4    4    0    0 -0.61763829944E-01 -0.46768113986E-01 -0.21574711740E-01  0.80422363076E-01  0.51100000000E-03 0.  1.
</event>
<event>
 8    1  0.1051655E+005  0.1043930E+01  0.7957747E-01            NaN
         13   -1    0    0    0    0  0.00000000000E+00  0.00000000000E+00  0.74505805969E-08  0.10566000000E+00  0.10566000000E+00 0. -1.
     999900   -1    0    0    0    0 -0.00000000000E+00 -0.00000000000E+00 -0.74505805969E-08  0.93827000000E+00  0.93827000000E+00 0. -1.
     999902    2    1    2    0    0 -0.60792670635E-02  0.20960722409E-01  0.13812158942E-01  0.10181020092E+01  0.10177743444E+01 0.  0.
     999903    2    3    3    0    0 -0.12502696999E+00 -0.21990142182E-01 -0.84165098912E-02  0.12878347996E+00  0.19975922897E-01 0.  0.
         14    1    1    2    0    0  0.60792670635E-02 -0.20960722409E-01 -0.13812158942E-01  0.25827990758E-01  0.00000000000E+00 0.  1.
     999901    1    3    3    0    0  0.11894770292E+00  0.42950864591E-01  0.22228668833E-01  0.88931852928E+00  0.88000000000E+00 0. -1.
        -11    1    4    4    0    0 -0.10050443997E+00 -0.25593950911E-01 -0.71754058685E-02  0.10396124444E+00  0.51100000000E-03 0. -1.
         11    1    4    4    0    0 -0.24522530021E-01  0.36038087289E-02 -0.12411040228E-02  0.24822235519E-01  0.51100000000E-03 0.  1.
</event>
<event>
 8    1  0.1051655E+005  0.1043930E+01  0.7957747E-01            NaN
         13   -1    0    0    0    0  0.00000000000E+00  0.00000000000E+00  0.74505805969E-08  0.10566000000E+00  0.10566000000E+00 0. -1.
     999900   -1    0    0    0    0 -0.00000000000E+00 -0.00000000000E+00 -0.74505805969E-08  0.93827000000E+00  0.93827000000E+00 0. -1.
     999902    2    1    2    0    0 -0.24386208782E-02  0.14054983743E-01  0.18781933205E-01  0.10203450375E+01  0.10200724215E+01 0.  0.
     999903    2    3    3    0    0 -0.10396887265E+00 -0.59743886323E-01  0.47518788173E-01  0.13097420819E+00  0.22745319281E-01 0.  0.
         14    1    1    2    0    0  0.24386208782E-02 -0.14054983743E-01 -0.18781933205E-01  0.23584962470E-01  0.00000000000E+00 0.  1.
     999901    1    3    3    0    0  0.10153025177E+00  0.73798870065E-01 -0.28736854968E-01  0.88937082934E+00  0.88000000000E+00 0. -1.
        -11    1    4    4    0    0 -0.68961775641E-01 -0.40573979489E-01  0.42909501727E-01  0.90793506213E-01  0.51100000000E-03 0. -1.
         11    1    4    4    0    0 -0.35007097006E-01 -0.19169906834E-01  0.46092864468E-02  0.40180701977E-01  0.51100000000E-03 0.  1.
</event>
<event>
 8    1  0.1051655E+005  0.1043930E+01  0.7957747E-01            NaN
         13   -1    0    0    0    0  0.00000000000E+00  0.00000000000E+00  0.74505805969E-08  0.10566000000E+00  0.10566000000E+00 0. -1.
     999900   -1    0    0    0    0 -0.00000000000E+00 -0.00000000000E+00 -0.74505805969E-08  0.93827000000E+00  0.93827000000E+00 0. -1.
     999902    2    1    2    0    0  0.10165181822E-01 -0.17566054058E-01  0.10566669039E-01  0.10210487485E+01  0.10207923369E+01 0.  0.
     999903    2    3    3    0    0 -0.41633913421E-01 -0.12173476815E+00 -0.25465280860E-01  0.13266112549E+00  0.19943850247E-01 0.  0.
         14    1    1    2    0    0 -0.10165181822E-01  0.17566054058E-01 -0.10566669039E-01  0.22881251522E-01  0.00000000000E+00 0.  1.
     999901    1    3    3    0    0  0.51799095243E-01  0.10416871410E+00  0.36031949898E-01  0.88838762299E+00  0.88000000000E+00 0.  1.
        -11    1    4    4    0    0 -0.39930972119E-01 -0.91014372340E-01 -0.20697645057E-01  0.10152217560E+00  0.51100000000E-03 0.  1.
         11    1    4    4    0    0 -0.17029413025E-02 -0.30720395814E-01 -0.47676358030E-02  0.31138949889E-01  0.51100000000E-03 0. -1.
</event>
<event>
 8    1  0.1344320E+005  0.1043930E+01  0.7957747E-01            NaN
         13   -1    0    0    0    0  0.00000000000E+00  0.00000000000E+00  0.74505805969E-08  0.10566000000E+00  0.10566000000E+00 0. -1.
     999900   -1    0    0    0    0 -0.00000000000E+00 -0.00000000000E+00 -0.74505805969E-08  0.93827000000E+00  0.93827000000E+00 0. -1.
     999902    2    1    2    0    0  0.10435625621E-01 -0.44768254809E-02 -0.20784525348E-01  0.10202458124E+01  0.10199708706E+01 0.  0.
     999903    2    3    3    0    0  0.51621783706E-01  0.11141759895E+00 -0.42512209704E-01  0.13142642157E+00  0.19670444939E-01 0.  0.
         14    1    1    2    0    0 -0.10435625621E-01  0.44768254809E-02  0.20784525348E-01  0.23684187604E-01  0.00000000000E+00 0. -1.
     999901    1    3    3    0    0 -0.41186158085E-01 -0.11589442444E+00  0.21727684356E-01  0.88881939082E+00  0.88000000000E+00 0.  1.
        -11    1    4    4    0    0  0.36360003352E-01  0.56307937431E-01 -0.26105493806E-01  0.71933243979E-01  0.51100000000E-03 0.  1.
         11    1    4    4    0    0  0.15261780354E-01  0.55109661523E-01 -0.16406715898E-01  0.59493177595E-01  0.51100000000E-03 0. -1.
</event>
<event>
 8    1  0.1051655E+005  0.1043930E+01  0.7957747E-01            NaN
         13   -1    0    0    0    0  0.00000000000E+00  0.00000000000E+00  0.74505805969E-08  0.10566000000E+00  0.10566000000E+00 0. -1.
     999900   -1    0    0    0    0 -0.00000000000E+00 -0.00000000000E+00 -0.74505805969E-08  0.93827000000E+00  0.93827000000E+00 0.  1.
     999902    2    1    2    0    0  0.16059668310E-02  0.98624767375E-03 -0.23597255122E-01  0.10202576055E+01  0.10199829407E+01 0.  0.
     999903    2    3    3    0    0  0.10759593722E+00  0.71565832009E-01  0.55649471852E-02  0.13061397704E+00  0.18179338345E-01 0.  0.
         14    1    1    2    0    0 -0.16059668310E-02 -0.98624767375E-03  0.23597255122E-01  0.23672394539E-01  0.00000000000E+00 0. -1.
     999901    1    3    3    0    0 -0.10598997039E+00 -0.70579584335E-01 -0.29162202307E-01  0.88964362842E+00  0.88000000000E+00 0.  1.
        -11    1    4    4    0    0  0.76624171518E-01  0.44268422722E-01  0.10142356404E-01  0.89073483291E-01  0.51100000000E-03 0.  1.
         11    1    4    4    0    0  0.30971765705E-01  0.27297409288E-01 -0.45774092187E-02  0.41540493748E-01  0.51100000000E-03 0. -1.
</event>
<event>
 8    1  0.1051655E+005  0.1043930E+01  0.7957747E-01            NaN
         13   -1    0    0    0    0  0.00000000000E+00  0.00000000000E+00  0.74505805969E-08  0.10566000000E+00  0.10566000000E+00 0. -1.
     999900   -1    0    0    0    0 -0.00000000000E+00 -0.00000000000E+00 -0.74505805969E-08  0.93827000000E+00  0.93827000000E+00 0. -1.
     999902    2    1    2    0    0  0.23979330916E-01  0.12624407249E-02 -0.41625044386E-02  0.10195593514E+01  0.10192680426E+01 0.  0.
     999903    2    3    3    0    0 -0.31009151280E-01  0.92898400368E-01  0.81528034248E-01  0.12896193920E+00  0.19816183806E-01 0.  0.
         14    1    1    2    0    0 -0.23979330916E-01 -0.12624407249E-02  0.41625044386E-02  0.24370648554E-01  0.00000000000E+00 0.  1.
     999901    1    3    3    0    0  0.54988482196E-01 -0.91635959643E-01 -0.85690538686E-01  0.89059741224E+00  0.88000000000E+00 0.  1.
        -11    1    4    4    0    0 -0.12552360045E-01  0.21520973843E-01  0.12145212225E-01  0.27721496332E-01  0.51100000000E-03 0. -1.
         11    1    4    4    0    0 -0.18456791235E-01  0.71377426524E-01  0.69382822023E-01  0.10124044287E+00  0.51100000000E-03 0.  1.
</event>
<event>
 8    1  0.1051655E+005  0.1043930E+01  0.7957747E-01            NaN
         13   -1    0    0    0    0  0.00000000000E+00  0.00000000000E+00  0.74505805969E-08  0.10566000000E+00  0.10566000000E+00 0. -1.
     999900   -1    0    0    0    0 -0.00000000000E+00 -0.00000000000E+00 -0.74505805969E-08  0.93827000000E+00  0.93827000000E+00 0. -1.
     999902    2    1    2    0    0  0.18547338485E-01  0.69395647098E-02  0.10683145987E-01  0.10214290904E+01  0.10211812258E+01 0.  0.
     999903    2    3    3    0    0 -0.73861595624E-01  0.89057260853E-01  0.59286013769E-01  0.13146000901E+00  0.19497987652E-01 0.  0.
         14    1    1    2    0    0 -0.18547338485E-01 -0.69395647098E-02 -0.10683145987E-01  0.22500909568E-01  0.00000000000E+00 0.  1.
     999901    1    3    3    0    0  0.92408934109E-01 -0.82117696144E-01 -0.48602867781E-01  0.88996908142E+00  0.88000000000E+00 0. -1.
        -11    1    4    4    0    0 -0.35913136693E-01  0.50764076496E-01  0.22229449120E-01  0.66039036780E-01  0.51100000000E-03 0. -1.
         11    1    4    4    0    0 -0.37948458931E-01  0.38293184358E-01  0.37056564649E-01  0.65420972234E-01  0.51100000000E-03 0.  1.
</event>
<event>
 8    1  0.1051655E+005  0.1043930E+01  0.7957747E-01            NaN
         13   -1    0    0    0    0  0.00000000000E+00  0.00000000000E+00  0.74505805969E-08  0.10566000000E+00  0.10566000000E+00 0.  1.
     999900   -1    0    0    0    0 -0.00000000000E+00 -0.00000000000E+00 -0.74505805969E-08  0.93827000000E+00  0.93827000000E+00 0. -1.
     999902    2    1    2    0    0  0.15037103472E-01  0.17565110830E-01  0.28448154749E-02  0.10206332068E+01  0.10203672879E+01 0.  0.
     999903    2    3    3    0    0  0.30198981404E-01  0.12379231193E+00  0.34347121523E-01  0.13355570392E+00  0.20515514136E-01 0.  0.
         14    1    1    2    0    0 -0.15037103472E-01 -0.17565110830E-01 -0.28448154749E-02  0.23296793221E-01  0.00000000000E+00 0. -1.
     999901    1    3    3    0    0 -0.15161877932E-01 -0.10622720110E+00 -0.31502306049E-01  0.88707750286E+00  0.88000000000E+00 0. -1.
        -11    1    4    4    0    0  0.65432001663E-02  0.23906920144E-01 -0.14745029245E-02  0.24835248722E-01  0.51100000000E-03 0.  1.
         11    1    4    4    0    0  0.23655781238E-01  0.99885391789E-01  0.35821624448E-01  0.10872045520E+00  0.51100000000E-03 0. -1.
</event>
<event>
 8    1  0.1051655E+005  0.1043930E+01  0.7957747E-01            NaN
         13   -1    0    0    0    0  0.00000000000E+00  0.00000000000E+00  0.74505805969E-08  0.10566000000E+00  0.10566000000E+00 0.  1.
     999900   -1    0    0    0    0 -0.00000000000E+00 -0.00000000000E+00 -0.74505805969E-08  0.93827000000E+00  0.93827000000E+00 0.  1.
     999902    2    1    2    0    0  0.14763576613E-01  0.12039906733E-01 -0.17363845694E-01  0.10181535440E+01  0.10178272021E+01 0.  0.
     999903    2    3    3    0    0  0.50414723191E-01 -0.11537717184E+00  0.95322468449E-02  0.12785611279E+00  0.20069522909E-01 0.  0.
         14    1    1    2    0    0 -0.14763576613E-01 -0.12039906733E-01  0.17363845694E-01  0.25776456037E-01  0.00000000000E+00 0.  1.
     999901    1    3    3    0    0 -0.35651146579E-01  0.12741707858E+00 -0.26896092539E-01  0.89029743118E+00  0.88000000000E+00 0. -1.
        -11    1    4    4    0    0  0.47733142958E-01 -0.10059571093E+00  0.27909305899E-02  0.11138222662E+00  0.51100000000E-03 0. -1.
         11    1    4    4    0    0  0.26815802335E-02 -0.14781460918E-01  0.67413162550E-02  0.16473886162E-01  0.51100000000E-03 0.  1.
</event>
<event>
 8    1  0.1051655E+005  0.1043930E+01  0.7957747E-01            NaN
         13   -1    0    0    0    0  0.00000000000E+00  0.00000000000E+00  0.74505805969E-08  0.10566000000E+00  0.10566000000E+00 0. -1.
     999900   -1    0    0    0    0 -0.00000000000E+00 -0.00000000000E+00 -0.74505805969E-08  0.93827000000E+00  0.93827000000E+00 0. -1.
     999902    2    1    2    0    0  0.19672785852E-01  0.11139829927E-01  0.86368585926E-02  0.10197285612E+01  0.10194413317E+01 0.  0.
     999903    2    3    3    0    0  0.10498589666E+00 -0.74715481259E-01 -0.13753212701E-01  0.13116186329E+00  0.20244551937E-01 0.  0.
         14    1    1    2    0    0 -0.19672785852E-01 -0.11139829927E-01 -0.86368585926E-02  0.24201438807E-01  0.00000000000E+00 0.  1.
     999901    1    3    3    0    0 -0.85313110812E-01  0.85855311186E-01  0.22390071294E-01  0.88856669791E+00  0.88000000000E+00 0.  1.
        -11    1    4    4    0    0  0.49978171933E-01 -0.42634686098E-01  0.13723638314E-02  0.65709045283E-01  0.51100000000E-03 0. -1.
         11    1    4    4    0    0  0.55007724731E-01 -0.32080795161E-01 -0.15125576533E-01  0.65452818004E-01  0.51100000000E-03 0.  1.
</event>
<event>
 8    1  0.1051655E+005  0.1043930E+01  0.7957747E-01            NaN
         13   -1    0    0    0    0  0.00000000000E+00  0.00000000000E+00  0.74505805969E-08  0.10566000000E+00  0.10566000000E+00 0.  1.
     999900   -1    0    0    0    0 -0.00000000000E+00 -0.00000000000E+00 -0.74505805969E-08  0.93827000000E+00  0.93827000000E+00 0. -1.
     999902    2    1    2    0    0 -0.14151378280E-01 -0.13170259909E-01 -0.14075381909E-01  0.10200169569E+01  0.10197366125E+01 0.  0.
     999903    2    3    3    0    0 -0.20460443171E-01  0.52496743606E-01 -0.11712725657E+00  0.13155106083E+00  0.20306391813E-01 0.  0.
         14    1    1    2    0    0  0.14151378280E-01  0.13170259909E-01  0.14075381909E-01  0.23913043077E-01  0.00000000000E+00 0.  1.
     999901    1    3    3    0    0  0.63090648906E-02 -0.65667003515E-01  0.10305187467E+00  0.88846589609E+00  0.88000000000E+00 0.  1.
        -11    1    4    4    0    0 -0.75028250179E-02  0.27539349155E-01 -0.80223410749E-01  0.85151423290E-01  0.51100000000E-03 0.  1.
         11    1    4    4    0    0 -0.12957618153E-01  0.24957394451E-01 -0.36903845826E-01  0.46399637539E-01  0.51100000000E-03 0. -1.
</event>
<event>
 8    1  0.1051655E+005  0.1043930E+01  0.7957747E-01            NaN
         13   -1    0    0    0    0  0.00000000000E+00  0.00000000000E+00  0.74505805969E-08  0.10566000000E+00  0.10566000000E+00 0. -1.
     999900   -1    0    0    0    0 -0.00000000000E+00 -0.00000000000E+00 -0.74505805969E-08  0.93827000000E+00  0.93827000000E+00 0.  1.
     999902    2    1    2    0    0  0.15294120577E-01 -0.10579384702E-01  0.13894035384E-01  0.10207162600E+01  0.10204522555E+01 0.  0.
     999903    2    3    3    0    0  0.63260527199E-01  0.90945933473E-01  0.68695333393E-01  0.13189043419E+00  0.20074378769E-01 0.  0.
         14    1    1    2    0    0 -0.15294120577E-01  0.10579384702E-01 -0.13894035384E-01  0.23213739986E-01  0.00000000000E+00 0.  1.
     999901    1    3    3    0    0 -0.47966406622E-01 -0.10152531818E+00 -0.54801298009E-01  0.88882582583E+00  0.88000000000E+00 0. -1.
        -11    1    4    4    0    0  0.40944214201E-01  0.45899266084E-01  0.45579645517E-01  0.76556753523E-01  0.51100000000E-03 0. -1.
         11    1    4    4    0    0  0.22316312998E-01  0.45046667389E-01  0.23115687876E-01  0.55333680663E-01  0.51100000000E-03 0.  1.
</event>
<event>
 8    1  0.1051655E+005  0.1043930E+01  0.7957747E-01            NaN
         13   -1    0    0    0    0  0.00000000000E+00  0.00000000000E+00  0.74505805969E-08  0.10566000000E+00  0.10566000000E+00 0.  1.
     999900   -1    0    0    0    0 -0.00000000000E+00 -0.00000000000E+00 -0.74505805969E-08  0.93827000000E+00  0.93827000000E+00 0. -1.
     999902    2    1    2    0    0  0.11284863628E-01 -0.18265457652E-01  0.10458628142E-01  0.10200478311E+01  0.10197682186E+01 0.  0.
     999903    2    3    3    0    0  0.61242984460E-01  0.10139652974E+00 -0.46241766845E-01  0.12873994944E+00  0.20092640197E-01 0.  0.
         14    1    1    2    0    0 -0.11284863628E-01  0.18265457652E-01 -0.10458628142E-01  0.23882168933E-01  0.00000000000E+00 0. -1.
     999901    1    3    3    0    0 -0.49958120832E-01 -0.11966198740E+00  0.56700394987E-01  0.89130788163E+00  0.88000000000E+00 0.  1.
        -11    1    4    4    0    0  0.16473753883E-01  0.32307457329E-01 -0.48464365875E-02  0.36591056758E-01  0.51100000000E-03 0.  1.
         11    1    4    4    0    0  0.44769230577E-01  0.69089072415E-01 -0.41395330257E-01  0.92148892678E-01  0.51100000000E-03 0. -1.
</event>
<event>
 8    1  0.1051655E+005  0.1043930E+01  0.7957747E-01            NaN
         13   -1    0    0    0    0  0.00000000000E+00  0.00000000000E+00  0.74505805969E-08  0.10566000000E+00  0.10566000000E+00 0.  1.
     999900   -1    0    0    0    0 -0.00000000000E+00 -0.00000000000E+00 -0.74505805969E-08  0.93827000000E+00  0.93827000000E+00 0.  1.
     999902    2    1    2    0    0 -0.39004581544E-02 -0.19215770489E-01  0.15578967178E-01  0.10188867648E+01  0.10185789493E+01 0.  0.
     999903    2    3    3    0    0  0.10683378023E+00 -0.67768334203E-01 -0.21370705119E-01  0.12985093807E+00  0.19963851344E-01 0.  0.
         14    1    1    2    0    0  0.39004581544E-02  0.19215770489E-01 -0.15578967178E-01  0.25043235167E-01  0.00000000000E+00 0. -1.
     999901    1    3    3    0    0 -0.11073423838E+00  0.48552563715E-01  0.36949672297E-01  0.88903582677E+00  0.88000000000E+00 0. -1.
        -11    1    4    4    0    0  0.15524019572E-01 -0.16706538054E-01  0.11323551963E-02  0.22839591649E-01  0.51100000000E-03 0. -1.
         11    1    4    4    0    0  0.91309760657E-01 -0.51061796150E-01 -0.22503060316E-01  0.10701134642E+00  0.51100000000E-03 0.  1.
</event>
<event>
 8    1  0.1051655E+005  0.1043930E+01  0.7957747E-01            NaN
         13   -1    0    0    0    0  0.00000000000E+00  0.00000000000E+00  0.74505805969E-08  0.10566000000E+00  0.10566000000E+00 0.  1.
     999900   -1    0    0    0    0 -0.00000000000E+00 -0.00000000000E+00 -0.74505805969E-08  0.93827000000E+00  0.93827000000E+00 0. -1.
     999902    2    1    2    0    0  0.39320540801E-02 -0.14522460830E-01 -0.20579690105E-01  0.10184371272E+01  0.10181180165E+01 0.  0.
     999903    2    3    3    0    0 -0.63670339567E-01 -0.10091196261E+00  0.45335978008E-01  0.12918007498E+00  0.19874720945E-01 0.  0.
         14    1    1    2    0    0 -0.39320540801E-02  0.14522460830E-01  0.20579690105E-01  0.25492872782E-01  0.00000000000E+00 0.  1.
     999901    1    3    3    0    0  0.67602393647E-01  0.86389501781E-01 -0.65915668113E-01  0.88925705223E+00  0.88000000000E+00 0.  1.
        -11    1    4    4    0    0 -0.46909443509E-01 -0.57431021228E-01  0.31484701943E-01  0.80562805730E-01  0.51100000000E-03 0.  1.
         11    1    4    4    0    0 -0.16760896057E-01 -0.43480941382E-01  0.13851276065E-01  0.48617269255E-01  0.51100000000E-03 0. -1.
</event>
<event>
 8    1  0.1077692E+005  0.1043930E+01  0.7957747E-01            NaN
         13   -1    0    0    0    0  0.00000000000E+00  0.00000000000E+00  0.74505805969E-08  0.10566000000E+00  0.10566000000E+00 0.  1.
     999900   -1    0    0    0    0 -0.00000000000E+00 -0.00000000000E+00 -0.74505805969E-08  0.93827000000E+00  0.93827000000E+00 0. -1.
     999902    2    1    2    0    0  0.23185479212E-02  0.14202791889E-01 -0.17352085736E-01  0.10213869336E+01  0.10211381289E+01 0.  0.
     999903    2    3    3    0    0  0.20140488687E-01  0.29448066906E-01 -0.12881834028E+00  0.13404553040E+00  0.10060392655E-01 0.  0.
         14    1    1    2    0    0 -0.23185479212E-02 -0.14202791889E-01  0.17352085736E-01  0.22543066368E-01  0.00000000000E+00 0.  1.
     999901    1    3    3    0    0 -0.17821940766E-01 -0.15245275017E-01  0.11146625454E+00  0.88734140323E+00  0.88000000000E+00 0.  1.
        -11    1    4    4    0    0  0.88350793366E-02  0.17441761265E-01 -0.54091862618E-01  0.57519252302E-01  0.51100000000E-03 0.  1.
         11    1    4    4    0    0  0.11305409350E-01  0.12006305641E-01 -0.74726477658E-01  0.76526278101E-01  0.51100000000E-03 0. -1.
</event>
<event>
 8    1  0.1051655E+005  0.1043930E+01  0.7957747E-01            NaN
         13   -1    0    0    0    0  0.00000000000E+00  0.00000000000E+00  0.74505805969E-08  0.10566000000E+00  0.10566000000E+00 0. -1.
     999900   -1    0    0    0    0 -0.00000000000E+00 -0.00000000000E+00 -0.74505805969E-08  0.93827000000E+00  0.93827000000E+00 0. -1.
     999902    2    1    2    0    0  0.22918475632E-01 -0.55759114443E-02  0.25284825459E-02  0.10202078471E+01  0.10199320128E+01 0.  0.
     999903    2    3    3    0    0  0.11153471165E+00  0.52476882589E-01 -0.44605659070E-01  0.13260174557E+00  0.19993573964E-01 0.  0.
         14    1    1    2    0    0 -0.22918475632E-01  0.55759114443E-02 -0.25284825459E-02  0.23722152890E-01  0.00000000000E+00 0.  1.
     999901    1    3    3    0    0 -0.88616236013E-01 -0.58052794033E-01  0.47134141616E-01  0.88760610154E+00  0.88000000000E+00 0.  1.
        -11    1    4    4    0    0  0.83434015233E-01  0.42670703669E-01 -0.42079959764E-01  0.10272783452E+00  0.51100000000E-03 0.  1.
         11    1    4    4    0    0  0.28100696413E-01  0.98061789195E-02 -0.25256993058E-02  0.29873911058E-01  0.51100000000E-03 0. -1.
</event>
<event>
 8    1  0.1051655E+005  0.1043930E+01  0.7957747E-01            NaN
         13   -1    0    0    0    0  0.00000000000E+00  0.00000000000E+00  0.74505805969E-08  0.10566000000E+00  0.10566000000E+00 0. -1.
     999900   -1    0    0    0    0 -0.00000000000E+00 -0.00000000000E+00 -0.74505805969E-08  0.93827000000E+00  0.93827000000E+00 0.  1.
     999902    2    1    2    0    0 -0.80738849747E-02 -0.45182513392E-03 -0.21465617654E-01  0.10209917240E+01  0.10207340182E+01 0.  0.
     999903    2    3    3    0    0  0.52433119014E-01 -0.80205826370E-01 -0.89347609836E-01  0.13271825085E+00  0.21188019529E-01 0.  0.
         14    1    1    2    0    0  0.80738849747E-02  0.45182513392E-03  0.21465617654E-01  0.22938275999E-01  0.00000000000E+00 0. -1.
     999901    1    3    3    0    0 -0.60507003988E-01  0.79754001236E-01  0.67881992182E-01  0.88827347315E+00  0.88000000000E+00 0. -1.
        -11    1    4    4    0    0  0.13783179556E-01 -0.39043388405E-01 -0.42646078224E-01  0.59441663215E-01  0.51100000000E-03 0. -1.
         11    1    4    4    0    0  0.38649939458E-01 -0.41162437964E-01 -0.46701531612E-01  0.73276587633E-01  0.51100000000E-03 0.  1.
</event>
<event>
 8    1  0.1051655E+005  0.1043930E+01  0.7957747E-01            NaN
         13   -1    0    0    0    0  0.00000000000E+00  0.00000000000E+00  0.74505805969E-08  0.10566000000E+00  0.10566000000E+00 0.  1.
     999900   -1    0    0    0    0 -0.00000000000E+00 -0.00000000000E+00 -0.74505805969E-08  0.93827000000E+00  0.93827000000E+00 0.  1.
     999902    2    1    2    0    0 -0.10462290075E-01 -0.91417218322E-02 -0.18751430212E-01  0.10205923325E+01  0.10203254688E+01 0.  0.
     999903    2    3    3    0    0 -0.12077613397E+00 -0.29115578642E-01  0.38446527844E-01  0.13163805606E+00  0.20392421217E-01 0.  0.
         14    1    1    2    0    0  0.10462290075E-01  0.91417218322E-02  0.18751430212E-01  0.23337667550E-01  0.00000000000E+00 0.  1.
     999901    1    3    3    0    0  0.11031384389E+00  0.19973856809E-01 -0.57197958057E-01  0.88895427639E+00  0.88000000000E+00 0. -1.
        -11    1    4    4    0    0 -0.68826053119E-01 -0.26101382296E-01  0.26575723972E-01  0.78261344043E-01  0.51100000000E-03 0.  1.
         11    1    4    4    0    0 -0.51950080850E-01 -0.30141963459E-02  0.11870803872E-01  0.53376712015E-01  0.51100000000E-03 0. -1.
</event>
<event>
 8    1  0.1051655E+005  0.1043930E+01  0.7957747E-01            NaN
         13   -1    0    0    0    0  0.00000000000E+00  0.00000000000E+00  0.74505805969E-08  0.10566000000E+00  0.10566000000E+00 0.  1.
     999900   -1    0    0    0    0 -0.00000000000E+00 -0.00000000000E+00 -0.74505805969E-08  0.93827000000E+00  0.93827000000E+00 0. -1.
     999902    2    1    2    0    0 -0.98187516654E-02 -0.84936253981E-02 -0.19423928584E-01  0.10205668119E+01  0.10202993575E+01 0.  0.
     999903    2    3    3    0    0 -0.29005624403E-01 -0.12396847379E+00 -0.31743354648E-01  0.13272992093E+00  0.20002065022E-01 0.  0.
         14    1    1    2    0    0  0.98187516654E-02  0.84936253981E-02  0.19423928584E-01  0.23363188102E-01  0.00000000000E+00 0.  1.
     999901    1    3    3    0    0  0.19186872738E-01  0.11547484840E+00  0.12319426064E-01  0.88783689096E+00  0.88000000000E+00 0. -1.
        -11    1    4    4    0    0 -0.17417909325E-01 -0.95186706992E-01 -0.31269298760E-01  0.10169524531E+00  0.51100000000E-03 0. -1.
         11    1    4    4    0    0 -0.11587715078E-01 -0.28781766801E-01 -0.47405588749E-03  0.31034675621E-01  0.51100000000E-03 0.  1.
</event>
<event>
 8    1  0.1051655E+005  0.1043930E+01  0.7957747E-01            NaN
         13   -1    0    0    0    0  0.00000000000E+00  0.00000000000E+00  0.74505805969E-08  0.10566000000E+00  0.10566000000E+00 0.  1.
     999900   -1    0    0    0    0 -0.00000000000E+00 -0.00000000000E+00 -0.74505805969E-08  0.93827000000E+00  0.93827000000E+00 0. -1.
     999902    2    1    2    0    0  0.15037607168E-01  0.74622148765E-02  0.17216963965E-01  0.10198834175E+01  0.10195998957E+01 0.  0.
     999903    2    3    3    0    0  0.12536474672E+00 -0.18774192585E-01  0.32581729920E-01  0.13247342050E+00  0.20465775986E-01 0.  0.
         14    1    1    2    0    0 -0.15037607168E-01 -0.74622148765E-02 -0.17216963965E-01  0.24046582467E-01  0.00000000000E+00 0.  1.
     999901    1    3    3    0    0 -0.11032713955E+00  0.26236407461E-01 -0.15364765955E-01  0.88740999703E+00  0.88000000000E+00 0. -1.
        -11    1    4    4    0    0  0.61625781140E-01 -0.57093133350E-02  0.25802863122E-01  0.67055067118E-01  0.51100000000E-03 0.  1.
         11    1    4    4    0    0  0.63738965582E-01 -0.13064879250E-01  0.67788667977E-02  0.65418353383E-01  0.51100000000E-03 0. -1.
</event>
<event>
 8    1  0.1051655E+005  0.1043930E+01  0.7957747E-01            NaN
         13   -1    0    0    0    0  0.00000000000E+00  0.00000000000E+00  0.74505805969E-08  0.10566000000E+00  0.10566000000E+00 0. -1.
     999900   -1    0    0    0    0 -0.00000000000E+00 -0.00000000000E+00 -0.74505805969E-08  0.93827000000E+00  0.93827000000E+00 0.  1.
     999902    2    1    2    0    0 -0.79477147068E-02  0.20869860321E-01  0.78990555065E-02  0.10202421905E+01  0.10199671637E+01 0.  0.
     999903    2    3    3    0    0  0.12407686299E+00 -0.27679003507E-01  0.63840683563E-02  0.12906893215E+00  0.21373763215E-01 0.  0.
         14    1    1    2    0    0  0.79477147068E-02 -0.20869860321E-01 -0.78990555065E-02  0.23687809455E-01  0.00000000000E+00 0. -1.
     999901    1    3    3    0    0 -0.13202457769E+00  0.48548863828E-01  0.15149871502E-02  0.89117325840E+00  0.88000000000E+00 0.  1.
        -11    1    4    4    0    0  0.81563361394E-01 -0.11097456297E-01  0.11625553461E-01  0.83133327086E-01  0.51100000000E-03 0. -1.
         11    1    4    4    0    0  0.42513501591E-01 -0.16581547209E-01 -0.52414851042E-02  0.45935605063E-01  0.51100000000E-03 0.  1.
</event>
<event>
 8    1  0.1051655E+005  0.1043930E+01  0.7957747E-01            NaN
         13   -1    0    0    0    0  0.00000000000E+00  0.00000000000E+00  0.74505805969E-08  0.10566000000E+00  0.10566000000E+00 0.  1.
     999900   -1    0    0    0    0 -0.00000000000E+00 -0.00000000000E+00 -0.74505805969E-08  0.93827000000E+00  0.93827000000E+00 0. -1.
     999902    2    1    2    0    0  0.21632994244E-01  0.12593328202E-01  0.73501648938E-03  0.10188876638E+01  0.10185798706E+01 0.  0.
     999903    2    3    3    0    0 -0.98502445738E-01 -0.44469737936E-01 -0.62828148126E-01  0.12662705533E+00  0.20167933363E-01 0.  0.
         14    1    1    2    0    0 -0.21632994244E-01 -0.12593328202E-01 -0.73501648938E-03  0.25042336241E-01  0.00000000000E+00 0.  1.
     999901    1    3    3    0    0  0.12013543998E+00  0.57063066138E-01  0.63563164616E-01  0.89226060843E+00  0.88000000000E+00 0.  1.
        -11    1    4    4    0    0 -0.14312466451E-01 -0.71205179031E-03 -0.13466600144E-01  0.19671404477E-01  0.51100000000E-03 0. -1.
         11    1    4    4    0    0 -0.84189979288E-01 -0.43757686146E-01 -0.49361547982E-01  0.10695565085E+00  0.51100000000E-03 0.  1.
</event>
<event>
 8    1  0.1051655E+005  0.1043930E+01  0.7957747E-01            NaN
         13   -1    0    0    0    0  0.00000000000E+00  0.00000000000E+00  0.74505805969E-08  0.10566000000E+00  0.10566000000E+00 0.  1.
     999900   -1    0    0    0    0 -0.00000000000E+00 -0.00000000000E+00 -0.74505805969E-08  0.93827000000E+00  0.93827000000E+00 0. -1.
     999902    2    1    2    0    0  0.61354660832E-02  0.10682918610E-01  0.21099055340E-01  0.10194976683E+01  0.10192048650E+01 0.  0.
     999903    2    3    3    0    0 -0.12263596036E+00 -0.11092338677E-02 -0.32568151981E-01  0.12843016008E+00  0.19819493505E-01 0.  0.
         14    1    1    2    0    0 -0.61354660832E-02 -0.10682918610E-01 -0.21099055340E-01  0.24432331660E-01  0.00000000000E+00 0. -1.
     999901    1    3    3    0    0  0.12877142644E+00  0.11792152478E-01  0.53667207321E-01  0.89106750826E+00  0.88000000000E+00 0.  1.
        -11    1    4    4    0    0 -0.55263604823E-01 -0.60603395197E-02 -0.23135595711E-01  0.60218856208E-01  0.51100000000E-03 0.  1.
         11    1    4    4    0    0 -0.67372355536E-01  0.49511056520E-02 -0.94325562705E-02  0.68211303876E-01  0.51100000000E-03 0. -1.
</event>
<event>
 8    1  0.1051655E+005  0.1043930E+01  0.7957747E-01            NaN
         13   -1    0    0    0    0  0.00000000000E+00  0.00000000000E+00  0.74505805969E-08  0.10566000000E+00  0.10566000000E+00 0. -1.
     999900   -1    0    0    0    0 -0.00000000000E+00 -0.00000000000E+00 -0.74505805969E-08  0.93827000000E+00  0.93827000000E+00 0.  1.
     999902    2    1    2    0    0  0.22143761295E-01  0.76735050429E-02 -0.68932210251E-02  0.10195016284E+01  0.10192089211E+01 0.  0.
     999903    2    3    3    0    0 -0.10065000872E+00  0.55657932505E-01  0.51905226340E-01  0.12774040886E+00  0.19880387990E-01 0.  0.
         14    1    1    2    0    0 -0.22143761295E-01 -0.76735050429E-02  0.68932210251E-02  0.24428371620E-01  0.00000000000E+00 0. -1.
     999901    1    3    3    0    0  0.12279377002E+00 -0.47984427462E-01 -0.58798447365E-01  0.89176121952E+00  0.88000000000E+00 0.  1.
        -11    1    4    4    0    0 -0.90876442830E-01  0.42511804850E-01  0.44776065503E-01  0.10986782321E+00  0.51100000000E-03 0.  1.
         11    1    4    4    0    0 -0.97735658930E-02  0.13146127655E-01  0.71291608368E-02  0.17872585650E-01  0.51100000000E-03 0. -1.
</event>
<event>
 8    1  0.1051655E+005  0.1043930E+01  0.7957747E-01            NaN
         13   -1    0    0    0    0  0.00000000000E+00  0.00000000000E+00  0.74505805969E-08  0.10566000000E+00  0.10566000000E+00 0.  1.
     999900   -1    0    0    0    0 -0.00000000000E+00 -0.00000000000E+00 -0.74505805969E-08  0.93827000000E+00  0.93827000000E+00 0.  1.
     999902    2    1    2    0    0  0.17535652528E-01 -0.14870317995E-01 -0.29758068430E-02  0.10207463658E+01  0.10204830535E+01 0.  0.
     999903    2    3    3    0    0 -0.89279735930E-01  0.89395252158E-01  0.66080642884E-02  0.12812512089E+00  0.20248400783E-01 0.  0.
         14    1    1    2    0    0 -0.17535652528E-01  0.14870317995E-01  0.29758068430E-02  0.23183634168E-01  0.00000000000E+00 0. -1.
     999901    1    3    3    0    0  0.10681538846E+00 -0.10426557015E+00 -0.95838711313E-02  0.89262124494E+00  0.88000000000E+00 0.  1.
        -11    1    4    4    0    0 -0.76310662871E-02  0.17631419234E-01 -0.84381003850E-05  0.19218774911E-01  0.51100000000E-03 0. -1.
         11    1    4    4    0    0 -0.81648669643E-01  0.71763832923E-01  0.66165023887E-02  0.10890634598E+00  0.51100000000E-03 0.  1.
</event>
<event>
 8    1  0.1051655E+005  0.1043930E+01  0.7957747E-01            NaN
         13   -1    0    0    0    0  0.00000000000E+00  0.00000000000E+00  0.74505805969E-08  0.10566000000E+00  0.10566000000E+00 0.  1.
     999900   -1    0    0    0    0 -0.00000000000E+00 -0.00000000000E+00 -0.74505805969E-08  0.93827000000E+00  0.93827000000E+00 0.  1.
     999902    2    1    2    0    0 -0.14685164968E-02 -0.95127891685E-02 -0.21126251226E-01  0.10207143116E+01  0.10204502622E+01 0.  0.
     999903    2    3    3    0    0 -0.89740199070E-02 -0.40107439619E-01 -0.12594414745E+00  0.13393409269E+00  0.19679257193E-01 0.  0.
         14    1    1    2    0    0  0.14685164968E-02  0.95127891685E-02  0.21126251226E-01  0.23215688431E-01  0.00000000000E+00 0.  1.
     999901    1    3    3    0    0  0.75055034102E-02  0.30594650451E-01  0.10481789622E+00  0.88678021887E+00  0.88000000000E+00 0. -1.
        -11    1    4    4    0    0 -0.12646023482E-01 -0.23708137917E-01 -0.57737746447E-01  0.63685996885E-01  0.51100000000E-03 0.  1.
         11    1    4    4    0    0  0.36720035754E-02 -0.16399301703E-01 -0.68206401000E-01  0.70248095810E-01  0.51100000000E-03 0. -1.
</event>
<event>
 8    1  0.1051655E+005  0.1043930E+01  0.7957747E-01            NaN
         13   -1    0    0    0    0  0.00000000000E+00  0.00000000000E+00  0.74505805969E-08  0.10566000000E+00  0.10566000000E+00 0.  1.
     999900   -1    0    0    0    0 -0.00000000000E+00 -0.00000000000E+00 -0.74505805969E-08  0.93827000000E+00  0.93827000000E+00 0.  1.
     999902    2    1    2    0    0  0.31841131861E-02  0.74999695607E-02 -0.23410543401E-01  0.10191420662E+01  0.10188405711E+01 0.  0.
     999903    2    3    3    0    0 -0.10798561543E+00 -0.56345489689E-01  0.34150374274E-01  0.12799212905E+00  0.19494350097E-01 0.  0.
         14    1    1    2    0    0 -0.31841131861E-02 -0.74999695607E-02  0.23410543401E-01  0.24787933809E-01  0.00000000000E+00 0.  1.
     999901    1    3    3    0    0  0.11116972862E+00  0.63845459250E-01 -0.57560917675E-01  0.89114993714E+00  0.88000000000E+00 0.  1.
        -11    1    4    4    0    0 -0.35138212913E-01 -0.91817978002E-02  0.13795358672E-01  0.38853216848E-01  0.51100000000E-03 0. -1.
         11    1    4    4    0    0 -0.72847402522E-01 -0.47163691889E-01  0.20355015601E-01  0.89138912198E-01  0.51100000000E-03 0.  1.
</event>
<event>
 7    1  0.1051655E+005  0.1043930E+01  0.7957747E-01            NaN
         13   -1    0    0    0    0  0.00000000000E+00  0.00000000000E+00  0.74505805969E-08  0.10566000000E+00  0.10566000000E+00 0. -1.
     999900   -1    0    0    0    0 -0.00000000000E+00 -0.00000000000E+00 -0.74505805969E-08  0.93827000000E+00  0.93827000000E+00 0. -1.
     999903    2    1    2    0    0  0.77726869631E-02 -0.10461579748E-01 -0.10640293814E+00  0.10879368217E+00  0.18563962989E-01 0.  0.
         14    1    1    2    0    0 -0.25818479982E-01  0.40259563058E-01  0.12644860545E-01  0.49470383306E-01  0.00000000000E+00 0. -1.
     999901    1    1    2    0    0  0.18045793019E-01 -0.29797983310E-01  0.93758077598E-01  0.88566593452E+00  0.88000000000E+00 0.  1.
        -11    1    3    3    0    0  0.11941514539E-01 -0.26292579963E-02 -0.40935102346E-01  0.42725361229E-01  0.51100000000E-03 0. -1.
         11    1    3    3    0    0 -0.41688275762E-02 -0.78323217521E-02 -0.65467835798E-01  0.66068320945E-01  0.51100000000E-03 0.  1.
</event>
<event>
 8    1  0.1051655E+005  0.1043930E+01  0.7957747E-01            NaN
         13   -1    0    0    0    0  0.00000000000E+00  0.00000000000E+00  0.74505805969E-08  0.10566000000E+00  0.10566000000E+00 0. -1.
     999900   -1    0    0    0    0 -0.00000000000E+00 -0.00000000000E+00 -0.74505805969E-08  0.93827000000E+00  0.93827000000E+00 0. -1.
     999902    2    1    2    0    0 -0.25480239049E-02 -0.18310325887E-01  0.14452473302E-01  0.10204643987E+01  0.10201945670E+01 0.  0.
     999903    2    3    3    0    0  0.10379403622E+00  0.69404077578E-01  0.28434400867E-01  0.12962325426E+00  0.20088428304E-01 0.  0.
         14    1    1    2    0    0  0.25480239049E-02  0.18310325887E-01 -0.14452473302E-01  0.23465601302E-01  0.00000000000E+00 0.  1.
     999901    1    3    3    0    0 -0.10634206013E+00 -0.87714403465E-01 -0.13981927565E-01  0.89084114444E+00  0.88000000000E+00 0.  1.
        -11    1    4    4    0    0  0.94444353370E-01  0.55788407784E-01  0.21919242890E-01  0.11186061262E+00  0.51100000000E-03 0. -1.
         11    1    4    4    0    0  0.93496828549E-02  0.13615669794E-01  0.65151579763E-02  0.17762641636E-01  0.51100000000E-03 0.  1.
</event>
<event>
 7    1  0.1051655E+005  0.1043930E+01  0.7957747E-01            NaN
         13   -1    0    0    0    0  0.00000000000E+00  0.00000000000E+00  0.74505805969E-08  0.10566000000E+00  0.10566000000E+00 0. -1.
     999900   -1    0    0    0    0 -0.00000000000E+00 -0.00000000000E+00 -0.74505805969E-08  0.93827000000E+00  0.93827000000E+00 0. -1.
     999903    2    1    2    0    0  0.99738392399E-01 -0.72084587026E-02  0.21686194014E-01  0.10427582022E+00  0.20085987093E-01 0.  0.
         14    1    1    2    0    0  0.17153614646E-01  0.34943633832E-01 -0.33583756119E-01  0.51411795493E-01  0.00000000000E+00 0.  1.
     999901    1    1    2    0    0 -0.11689200705E+00 -0.27735175129E-01  0.11897562105E-01  0.88824238428E+00  0.88000000000E+00 0. -1.
        -11    1    3    3    0    0  0.19337007427E-01  0.53526236473E-02  0.51206095656E-04  0.20070729414E-01  0.51100000000E-03 0.  1.
         11    1    3    3    0    0  0.80401384972E-01 -0.12561082350E-01  0.21634987919E-01  0.84205090811E-01  0.51100000000E-03 0. -1.
</event>
<event>
 8    1  0.1051655E+005  0.1043930E+01  0.7957747E-01            NaN
         13   -1    0    0    0    0  0.00000000000E+00  0.00000000000E+00  0.74505805969E-08  0.10566000000E+00  0.10566000000E+00 0.  1.
     999900   -1    0    0    0    0 -0.00000000000E+00 -0.00000000000E+00 -0.74505805969E-08  0.93827000000E+00  0.93827000000E+00 0. -1.
     999902    2    1    2    0    0 -0.13381181484E-01 -0.15981844347E-01  0.92562640027E-02  0.10211231197E+01  0.10208683910E+01 0.  0.
     999903    2    3    3    0    0 -0.63102384677E-01 -0.10877420071E+00 -0.40234608313E-01  0.13346780038E+00  0.19521586466E-01 0.  0.
         14    1    1    2    0    0  0.13381181484E-01  0.15981844347E-01 -0.92562640027E-02  0.22806880320E-01  0.00000000000E+00 0. -1.
     999901    1    3    3    0    0  0.49721203193E-01  0.92792356367E-01  0.49490872315E-01  0.88765531930E+00  0.88000000000E+00 0.  1.
        -11    1    4    4    0    0 -0.42725040972E-01 -0.78851420378E-01 -0.19622291904E-01  0.91805615745E-01  0.51100000000E-03 0.  1.
         11    1    4    4    0    0 -0.20377343705E-01 -0.29922780336E-01 -0.20612316408E-01  0.41662184631E-01  0.51100000000E-03 0. -1.
</event>
<event>
 8    1  0.1051655E+005  0.1043930E+01  0.7957747E-01            NaN
         13   -1    0    0    0    0  0.00000000000E+00  0.00000000000E+00  0.74505805969E-08  0.10566000000E+00  0.10566000000E+00 0. -1.
     999900   -1    0    0    0    0 -0.00000000000E+00 -0.00000000000E+00 -0.74505805969E-08  0.93827000000E+00  0.93827000000E+00 0.  1.
     999902    2    1    2    0    0  0.13236324327E-03  0.20206958986E-01  0.13054810027E-01  0.10198724279E+01  0.10195886437E+01 0.  0.
     999903    2    3    3    0    0 -0.84656075224E-01 -0.26189278813E-01  0.94216028270E-01  0.13086802208E+00  0.19931127004E-01 0.  0.
         14    1    1    2    0    0 -0.13236324327E-03 -0.20206958986E-01 -0.13054810027E-01  0.24057572121E-01  0.00000000000E+00 0.  1.
     999901    1    3    3    0    0  0.84788438467E-01  0.46396237799E-01 -0.81161218243E-01  0.88900440580E+00  0.88000000000E+00 0.  1.
        -11    1    4    4    0    0 -0.27142246614E-01 -0.17408690459E-01  0.39568972262E-01  0.51046339160E-01  0.51100000000E-03 0. -1.
         11    1    4    4    0    0 -0.57513828610E-01 -0.87805883542E-02  0.54647056008E-01  0.79821682923E-01  0.51100000000E-03 0.  1.
</event>
<event>
 8    1  0.1051655E+005  0.1043930E+01  0.7957747E-01            NaN
         13   -1    0    0    0    0  0.00000000000E+00  0.00000000000E+00  0.74505805969E-08  0.10566000000E+00  0.10566000000E+00 0. -1.
     999900   -1    0    0    0    0 -0.00000000000E+00 -0.00000000000E+00 -0.74505805969E-08  0.93827000000E+00  0.93827000000E+00 0. -1.
     999902    2    1    2    0    0 -0.66120369999E-02  0.10568409294E-01  0.17929566958E-01  0.10220924251E+01  0.10218591124E+01 0.  0.
     999903    2    3    3    0    0 -0.12759721292E+00  0.32888088438E-01 -0.31120158081E-02  0.13328517425E+00  0.19813579356E-01 0.  0.
         14    1    1    2    0    0  0.66120369999E-02 -0.10568409294E-01 -0.17929566958E-01  0.21837574948E-01  0.00000000000E+00 0.  1.
     999901    1    3    3    0    0  0.12098517592E+00 -0.22319679144E-01  0.21041582766E-01  0.88880725080E+00  0.88000000000E+00 0.  1.
        -11    1    4    4    0    0 -0.97406203936E-01  0.19440392943E-01  0.42551842107E-02  0.99419641705E-01  0.51100000000E-03 0.  1.
         11    1    4    4    0    0 -0.30191008984E-01  0.13447695495E-01 -0.73672000188E-02  0.33865532547E-01  0.51100000000E-03 0. -1.
</event>
<event>
 8    1  0.1051655E+005  0.1043930E+01  0.7957747E-01            NaN
         13   -1    0    0    0    0  0.00000000000E+00  0.00000000000E+00  0.74505805969E-08  0.10566000000E+00  0.10566000000E+00 0. -1.
     999900   -1    0    0    0    0 -0.00000000000E+00 -0.00000000000E+00 -0.74505805969E-08  0.93827000000E+00  0.93827000000E+00 0. -1.
     999902    2    1    2    0    0 -0.12442816265E-01  0.19477302826E-01 -0.30474975113E-02  0.10206174231E+01  0.10203511396E+01 0.  0.
     999903    2    3    3    0    0  0.44560797792E-01  0.12283353551E+00  0.96256355897E-02  0.13264640375E+00  0.20704430023E-01 0.  0.
         14    1    1    2    0    0  0.12442816265E-01 -0.19477302826E-01  0.30474975113E-02  0.23312576929E-01  0.00000000000E+00 0.  1.
     999901    1    3    3    0    0 -0.57003614057E-01 -0.10335623268E+00 -0.12673133101E-01  0.88797101932E+00  0.88000000000E+00 0. -1.
        -11    1    4    4    0    0  0.56033453803E-02  0.43867859590E-01  0.41728157100E-02  0.44423643439E-01  0.51100000000E-03 0. -1.
         11    1    4    4    0    0  0.38957452411E-01  0.78965675918E-01  0.54528198797E-02  0.88222760312E-01  0.51100000000E-03 0.  1.
</event>
<event>
 8    1  0.1119117E+005  0.1043930E+01  0.7957747E-01            NaN
         13   -1    0    0    0    0  0.00000000000E+00  0.00000000000E+00  0.74505805969E-08  0.10566000000E+00  0.10566000000E+00 0.  1.
     999900   -1    0    0    0    0 -0.00000000000E+00 -0.00000000000E+00 -0.74505805969E-08  0.93827000000E+00  0.93827000000E+00 0.  1.
     999902    2    1    2    0    0  0.54864009374E-02 -0.12283454295E-01  0.19472923641E-01  0.10202619076E+01  0.10199873438E+01 0.  0.
     999903    2    3    3    0    0  0.58935812765E-01  0.62790478993E-01  0.97984867091E-01  0.13197306920E+00  0.19994562693E-01 0.  0.
         14    1    1    2    0    0 -0.54864009374E-02  0.12283454295E-01 -0.19472923641E-01  0.23668092441E-01  0.00000000000E+00 0. -1.
     999901    1    3    3    0    0 -0.53449411828E-01 -0.75073933288E-01 -0.78511943450E-01  0.88828883836E+00  0.88000000000E+00 0. -1.
        -11    1    4    4    0    0  0.27876470588E-01  0.18416870886E-01  0.46351175867E-01  0.57139927992E-01  0.51100000000E-03 0.  1.
         11    1    4    4    0    0  0.31059342177E-01  0.44373608107E-01  0.51633691224E-01  0.74833141210E-01  0.51100000000E-03 0. -1.
</event>
<event>
 8    1  0.1051655E+005  0.1043930E+01  0.7957747E-01            NaN
         13   -1    0    0    0    0  0.00000000000E+00  0.00000000000E+00  0.74505805969E-08  0.10566000000E+00  0.10566000000E+00 0.  1.
     999900   -1    0    0    0    0 -0.00000000000E+00 -0.00000000000E+00 -0.74505805969E-08  0.93827000000E+00  0.93827000000E+00 0. -1.
     999902    2    1    2    0    0 -0.12274639547E-01 -0.14092072223E-01  0.58471771800E-02  0.10243483056E+01  0.10241611242E+01 0.  0.
     999903    2    3    3    0    0  0.40867912651E-01 -0.11796539266E+00  0.48882202302E-01  0.13560435429E+00  0.20323657435E-01 0.  0.
         14    1    1    2    0    0  0.12274639547E-01  0.14092072223E-01 -0.58471771800E-02  0.19581694424E-01  0.00000000000E+00 0. -1.
     999901    1    3    3    0    0 -0.53142552198E-01  0.10387332044E+00 -0.43035025122E-01  0.88874395128E+00  0.88000000000E+00 0. -1.
        -11    1    4    4    0    0  0.59884659885E-02 -0.45729845814E-01  0.14713330206E-01  0.48413053300E-01  0.51100000000E-03 0. -1.
         11    1    4    4    0    0  0.34879446662E-01 -0.72235546847E-01  0.34168872096E-01  0.87191300994E-01  0.51100000000E-03 0.  1.
</event>
<event>
 8    1  0.1051655E+005  0.1043930E+01  0.7957747E-01            NaN
         13   -1    0    0    0    0  0.00000000000E+00  0.00000000000E+00  0.74505805969E-08  0.10566000000E+00  0.10566000000E+00 0. -1.
     999900   -1    0    0    0    0 -0.00000000000E+00 -0.00000000000E+00 -0.74505805969E-08  0.93827000000E+00  0.93827000000E+00 0.  1.
     999902    2    1    2    0    0 -0.77314893658E-02 -0.19138806803E-01  0.11656183743E-01  0.10202248007E+01  0.10199493652E+01 0.  0.
     999903    2    3    3    0    0 -0.10191636406E+00 -0.15647506180E-01  0.80901421226E-01  0.13248729294E+00  0.19392089124E-01 0.  0.
         14    1    1    2    0    0  0.77314893658E-02  0.19138806803E-01 -0.11656183743E-01  0.23705199284E-01  0.00000000000E+00 0.  1.
     999901    1    3    3    0    0  0.94184874696E-01 -0.34913006226E-02 -0.69245237482E-01  0.88773750778E+00  0.88000000000E+00 0.  1.
        -11    1    4    4    0    0 -0.40585577734E-01 -0.50208266348E-02  0.44233431635E-01  0.60243301829E-01  0.51100000000E-03 0. -1.
         11    1    4    4    0    0 -0.61330786328E-01 -0.10626679545E-01  0.36667989591E-01  0.72243991109E-01  0.51100000000E-03 0.  1.
</event>
<event>
 8    1  0.1051655E+005  0.1043930E+01  0.7957747E-01            NaN
         13   -1    0    0    0    0  0.00000000000E+00  0.00000000000E+00  0.74505805969E-08  0.10566000000E+00  0.10566000000E+00 0.  1.
     999900   -1    0    0    0    0 -0.00000000000E+00 -0.00000000000E+00 -0.74505805969E-08  0.93827000000E+00  0.93827000000E+00 0.  1.
     999902    2    1    2    0    0 -0.16287293584E-01 -0.13360067935E-01 -0.78898059968E-02  0.10214351920E+01  0.10211874633E+01 0.  0.
     999903    2    3    3    0    0  0.70027583922E-01  0.10532185283E+00 -0.17418682017E-01  0.12923204482E+00  0.20023879011E-01 0.  0.
         14    1    1    2    0    0  0.16287293584E-01  0.13360067935E-01  0.78898059968E-02  0.22494807983E-01  0.00000000000E+00 0.  1.
     999901    1    3    3    0    0 -0.86314877506E-01 -0.11868192077E+00  0.95288760199E-02  0.89220314720E+00  0.88000000000E+00 0.  1.
        -11    1    4    4    0    0  0.45353192851E-01  0.83833688185E-01 -0.12174523540E-01  0.96090996045E-01  0.51100000000E-03 0.  1.
         11    1    4    4    0    0  0.24674391071E-01  0.21488164646E-01 -0.52441584770E-02  0.33141048772E-01  0.51100000000E-03 0. -1.
</event>
<event>
 8    1  0.1051655E+005  0.1043930E+01  0.7957747E-01            NaN
         13   -1    0    0    0    0  0.00000000000E+00  0.00000000000E+00  0.74505805969E-08  0.10566000000E+00  0.10566000000E+00 0.  1.
     999900   -1    0    0    0    0 -0.00000000000E+00 -0.00000000000E+00 -0.74505805969E-08  0.93827000000E+00  0.93827000000E+00 0.  1.
     999902    2    1    2    0    0 -0.18912391376E-01 -0.12749160295E-01  0.23458028480E-02  0.10210013623E+01  0.10207438755E+01 0.  0.
     999903    2    3    3    0    0  0.62243932572E-01 -0.11074225094E+00  0.28080768607E-01  0.13147829729E+00  0.18969971195E-01 0.  0.
         14    1    1    2    0    0  0.18912391376E-01  0.12749160295E-01 -0.23458028480E-02  0.22928637700E-01  0.00000000000E+00 0.  1.
     999901    1    3    3    0    0 -0.81156323949E-01  0.97993090640E-01 -0.25734965759E-01  0.88952306501E+00  0.88000000000E+00 0. -1.
        -11    1    4    4    0    0  0.49550965932E-01 -0.96192426516E-01  0.18006940436E-01  0.10969408447E+00  0.51100000000E-03 0.  1.
         11    1    4    4    0    0  0.12692966641E-01 -0.14549824420E-01  0.10073828171E-01  0.21784212811E-01  0.51100000000E-03 0. -1.
</event>
<event>
 8    1  0.1051655E+005  0.1043930E+01  0.7957747E-01            NaN
         13   -1    0    0    0    0  0.00000000000E+00  0.00000000000E+00  0.74505805969E-08  0.10566000000E+00  0.10566000000E+00 0.  1.
     999900   -1    0    0    0    0 -0.00000000000E+00 -0.00000000000E+00 -0.74505805969E-08  0.93827000000E+00  0.93827000000E+00 0. -1.
     999902    2    1    2    0    0  0.28054456693E-02  0.20220064852E-01  0.10469104730E-01  0.10209882542E+01  0.10207304695E+01 0.  0.
     999903    2    3    3    0    0 -0.51588867746E-01  0.75624196488E-01 -0.92389307848E-01  0.13160182962E+00  0.20070550178E-01 0.  0.
         14    1    1    2    0    0 -0.28054456693E-02 -0.20220064852E-01 -0.10469104730E-01  0.22941745833E-01  0.00000000000E+00 0. -1.
     999901    1    3    3    0    0  0.54394313415E-01 -0.55404131636E-01  0.10285841258E+00  0.88938642455E+00  0.88000000000E+00 0.  1.
        -11    1    4    4    0    0 -0.26644349051E-01  0.21981643107E-01 -0.33011391215E-01  0.47782078659E-01  0.51100000000E-03 0.  1.
         11    1    4    4    0    0 -0.24944518695E-01  0.53642553381E-01 -0.59377916633E-01  0.83819750959E-01  0.51100000000E-03 0. -1.
</event>
<event>
 8    1  0.1051655E+005  0.1043930E+01  0.7957747E-01            NaN
         13   -1    0    0    0    0  0.00000000000E+00  0.00000000000E+00  0.74505805969E-08  0.10566000000E+00  0.10566000000E+00 0. -1.
     999900   -1    0    0    0    0 -0.00000000000E+00 -0.00000000000E+00 -0.74505805969E-08  0.93827000000E+00  0.93827000000E+00 0. -1.
     999902    2    1    2    0    0  0.40490160420E-02  0.22027662141E-01 -0.71923674748E-02  0.10204067651E+01  0.10201355908E+01 0.  0.
     999903    2    3    3    0    0 -0.60868907006E-01 -0.10353939000E+00  0.39273022213E-01  0.12791561458E+00  0.19864668603E-01 0.  0.
         14    1    1    2    0    0 -0.40490160420E-02 -0.22027662141E-01  0.71923674748E-02  0.23523234901E-01  0.00000000000E+00 0. -1.
     999901    1    3    3    0    0  0.64917923048E-01  0.12556705214E+00 -0.46465389687E-01  0.89249115052E+00  0.88000000000E+00 0.  1.
        -11    1    4    4    0    0 -0.22934248888E-01 -0.32084516164E-01  0.22099626647E-01  0.45211177472E-01  0.51100000000E-03 0.  1.
         11    1    4    4    0    0 -0.37934658118E-01 -0.71454873834E-01  0.17173395566E-01  0.82704437108E-01  0.51100000000E-03 0. -1.
</event>
<event>
 8    1  0.1051655E+005  0.1043930E+01  0.7957747E-01            NaN
         13   -1    0    0    0    0  0.00000000000E+00  0.00000000000E+00  0.74505805969E-08  0.10566000000E+00  0.10566000000E+00 0. -1.
     999900   -1    0    0    0    0 -0.00000000000E+00 -0.00000000000E+00 -0.74505805969E-08  0.93827000000E+00  0.93827000000E+00 0. -1.
     999902    2    1    2    0    0 -0.21194653986E-01  0.73133907142E-02 -0.96784286622E-02  0.10195092911E+01  0.10192167697E+01 0.  0.
     999903    2    3    3    0    0 -0.56573940803E-01  0.83746508697E-01  0.80444055172E-01  0.13090601768E+00  0.21237960234E-01 0.  0.
         14    1    1    2    0    0  0.21194653986E-01 -0.73133907142E-02  0.96784286622E-02  0.24420708890E-01  0.00000000000E+00 0.  1.
     999901    1    3    3    0    0  0.35379286817E-01 -0.76433117983E-01 -0.90122483835E-01  0.88860327343E+00  0.88000000000E+00 0. -1.
        -11    1    4    4    0    0 -0.18902038977E-01  0.41914218710E-01  0.45252314233E-01  0.64514509004E-01  0.51100000000E-03 0.  1.
         11    1    4    4    0    0 -0.37671901826E-01  0.41832289987E-01  0.35191740939E-01  0.66391508675E-01  0.51100000000E-03 0. -1.
</event>
<event>
 8    1  0.1051655E+005  0.1043930E+01  0.7957747E-01            NaN
         13   -1    0    0    0    0  0.00000000000E+00  0.00000000000E+00  0.74505805969E-08  0.10566000000E+00  0.10566000000E+00 0.  1.
     999900   -1    0    0    0    0 -0.00000000000E+00 -0.00000000000E+00 -0.74505805969E-08  0.93827000000E+00  0.93827000000E+00 0.  1.
     999902    2    1    2    0    0  0.21657508496E-01  0.37300421697E-02 -0.10111983138E-01  0.10197388220E+01  0.10194518390E+01 0.  0.
     999903    2    3    3    0    0  0.51712207555E-01  0.83504552011E-01  0.83916942878E-01  0.13063326233E+00  0.19386420700E-01 0.  0.
         14    1    1    2    0    0 -0.21657508496E-01 -0.37300421697E-02  0.10111983138E-01  0.24191177976E-01  0.00000000000E+00 0.  1.
     999901    1    3    3    0    0 -0.30054699059E-01 -0.79774509842E-01 -0.94028926016E-01  0.88910555970E+00  0.88000000000E+00 0.  1.
        -11    1    4    4    0    0  0.29027516355E-01  0.29236697260E-01  0.37336006929E-01  0.55602335443E-01  0.51100000000E-03 0.  1.
         11    1    4    4    0    0  0.22684691200E-01  0.54267854752E-01  0.46580935949E-01  0.75030926884E-01  0.51100000000E-03 0. -1.
</event>
<event>
 8    1  0.1051655E+005  0.1043930E+01  0.7957747E-01            NaN
         13   -1    0    0    0    0  0.00000000000E+00  0.00000000000E+00  0.74505805969E-08  0.10566000000E+00  0.10566000000E+00 0. -1.
     999900   -1    0    0    0    0 -0.00000000000E+00 -0.00000000000E+00 -0.74505805969E-08  0.93827000000E+00  0.93827000000E+00 0. -1.
     999902    2    1    2    0    0 -0.96013444197E-02 -0.97324353859E-02 -0.19308969988E-01  0.10202711235E+01  0.10199967760E+01 0.  0.
     999903    2    3    3    0    0  0.31668480157E-01  0.12104858083E+00  0.23060680936E-01  0.12864224338E+00  0.19010003125E-01 0.  0.
         14    1    1    2    0    0  0.96013444197E-02  0.97324353859E-02  0.19308969988E-01  0.23658876457E-01  0.00000000000E+00 0. -1.
     999901    1    3    3    0    0 -0.41269824576E-01 -0.13078101622E+00 -0.42369650924E-01  0.89162888016E+00  0.88000000000E+00 0.  1.
        -11    1    4    4    0    0  0.15104174525E-01  0.77250905196E-01  0.22279678369E-01  0.81807601302E-01  0.51100000000E-03 0. -1.
         11    1    4    4    0    0  0.16564305631E-01  0.43797675638E-01  0.78100256760E-03  0.46834642076E-01  0.51100000000E-03 0.  1.
</event>
<event>
 8    1  0.1051655E+005  0.1043930E+01  0.7957747E-01            NaN
         13   -1    0    0    0    0  0.00000000000E+00  0.00000000000E+00  0.74505805969E-08  0.10566000000E+00  0.10566000000E+00 0.  1.
     999900   -1    0    0    0    0 -0.00000000000E+00 -0.00000000000E+00 -0.74505805969E-08  0.93827000000E+00  0.93827000000E+00 0. -1.
     999902    2    1    2    0    0 -0.93347859577E-02  0.66044297139E-02 -0.20329002485E-01  0.10206056551E+01  0.10203390996E+01 0.  0.
     999903    2    3    3    0    0 -0.12771105963E+00  0.27734874517E-01 -0.33322564835E-02  0.13226544597E+00  0.20092442567E-01 0.  0.
         14    1    1    2    0    0  0.93347859577E-02 -0.66044297139E-02  0.20329002485E-01  0.23324344851E-01  0.00000000000E+00 0. -1.
     999901    1    3    3    0    0  0.11837627367E+00 -0.21130444803E-01 -0.16996746001E-01  0.88834020918E+00  0.88000000000E+00 0.  1.
        -11    1    4    4    0    0 -0.10567540160E+00  0.22435357425E-01  0.49110626799E-02  0.10814349460E+00  0.51100000000E-03 0.  1.
         11    1    4    4    0    0 -0.22035658028E-01  0.52995170925E-02 -0.82433191634E-02  0.24121951372E-01  0.51100000000E-03 0. -1.
</event>
<event>
 8    1  0.1051655E+005  0.1043930E+01  0.7957747E-01            NaN
         13   -1    0    0    0    0  0.00000000000E+00  0.00000000000E+00  0.74505805969E-08  0.10566000000E+00  0.10566000000E+00 0.  1.
     999900   -1    0    0    0    0 -0.00000000000E+00 -0.00000000000E+00 -0.74505805969E-08  0.93827000000E+00  0.93827000000E+00 0. -1.
     999902    2    1    2    0    0 -0.15598034899E-01 -0.91882441231E-02  0.15464335532E-01  0.10201210060E+01  0.10198431245E+01 0.  0.
     999903    2    3    3    0    0  0.45292268522E-01  0.23086212525E-01 -0.11543929967E+00  0.12777296216E+00  0.20379773177E-01 0.  0.
         14    1    1    2    0    0  0.15598034899E-01  0.91882441231E-02 -0.15464335532E-01  0.23808994019E-01  0.00000000000E+00 0. -1.
     999901    1    3    3    0    0 -0.60890303421E-01 -0.32274456648E-01  0.13090363520E+00  0.89234804382E+00  0.88000000000E+00 0.  1.
        -11    1    4    4    0    0  0.29761774524E-01  0.55684331841E-02 -0.52343771442E-01  0.60472325908E-01  0.51100000000E-03 0.  1.
         11    1    4    4    0    0  0.15530493998E-01  0.17517779341E-01 -0.63095528225E-01  0.67300636252E-01  0.51100000000E-03 0. -1.
</event>
<event>
 8    1  0.1051655E+005  0.1043930E+01  0.7957747E-01            NaN
         13   -1    0    0    0    0  0.00000000000E+00  0.00000000000E+00  0.74505805969E-08  0.10566000000E+00  0.10566000000E+00 0.  1.
     999900   -1    0    0    0    0 -0.00000000000E+00 -0.00000000000E+00 -0.74505805969E-08  0.93827000000E+00  0.93827000000E+00 0.  1.
     999902    2    1    2    0    0  0.13332329853E-01 -0.18595135509E-01 -0.57512547222E-02  0.10203374797E+01  0.10200646869E+01 0.  0.
     999903    2    3    3    0    0  0.73070600499E-01 -0.10145585881E+00  0.40872137571E-01  0.13320259639E+00  0.20971316431E-01 0.  0.
         14    1    1    2    0    0 -0.13332329853E-01  0.18595135509E-01  0.57512547222E-02  0.23592520315E-01  0.00000000000E+00 0. -1.
     999901    1    3    3    0    0 -0.59738270645E-01  0.82860723297E-01 -0.46623392293E-01  0.88713488329E+00  0.88000000000E+00 0.  1.
        -11    1    4    4    0    0  0.58615176395E-01 -0.92089976201E-01  0.31652874147E-01  0.11365943948E+00  0.51100000000E-03 0.  1.
         11    1    4    4    0    0  0.14455424103E-01 -0.93658826059E-02  0.92192634238E-02  0.19543156912E-01  0.51100000000E-03 0. -1.
</event>
<event>
 8    1  0.1051655E+005  0.1043930E+01  0.7957747E-01            NaN
         13   -1    0    0    0    0  0.00000000000E+00  0.00000000000E+00  0.74505805969E-08  0.10566000000E+00  0.10566000000E+00 0. -1.
     999900   -1    0    0    0    0 -0.00000000000E+00 -0.00000000000E+00 -0.74505805969E-08  0.93827000000E+00  0.93827000000E+00 0. -1.
     999902    2    1    2    0    0  0.13832019431E-01 -0.15029245545E-01  0.14086188308E-01  0.10191182350E+01  0.10188161528E+01 0.  0.
     999903    2    3    3    0    0  0.75384896577E-01  0.86901116901E-01  0.57263175626E-01  0.13004972933E+00  0.19979340968E-01 0.  0.
         14    1    1    2    0    0 -0.13832019431E-01  0.15029245545E-01 -0.14086188308E-01  0.24811765037E-01  0.00000000000E+00 0.  1.
     999901    1    3    3    0    0 -0.61552877146E-01 -0.10193036245E+00 -0.43176987318E-01  0.88906850563E+00  0.88000000000E+00 0.  1.
        -11    1    4    4    0    0  0.45456388902E-01  0.48294002756E-01  0.43426916734E-01  0.79276429109E-01  0.51100000000E-03 0.  1.
         11    1    4    4    0    0  0.29928507675E-01  0.38607114145E-01  0.13836258892E-01  0.50773300221E-01  0.51100000000E-03 0. -1.
</event>
<event>
 8    1  0.1051655E+005  0.1043930E+01  0.7957747E-01            NaN
         13   -1    0    0    0    0  0.00000000000E+00  0.00000000000E+00  0.74505805969E-08  0.10566000000E+00  0.10566000000E+00 0.  1.
     999900   -1    0    0    0    0 -0.00000000000E+00 -0.00000000000E+00 -0.74505805969E-08  0.93827000000E+00  0.93827000000E+00 0. -1.
     999902    2    1    2    0    0  0.12049100001E-01 -0.16603414833E-01  0.14261028158E-01  0.10189453824E+01  0.10186390239E+01 0.  0.
     999903    2    3    3    0    0 -0.11788177472E+00 -0.47727361946E-01 -0.81644094005E-05  0.12874633599E+00  0.20040086706E-01 0.  0.
         14    1    1    2    0    0 -0.12049100001E-01  0.16603414833E-01 -0.14261028158E-01  0.24984617649E-01  0.00000000000E+00 0.  1.
     999901    1    3    3    0    0  0.12993087472E+00  0.31123947113E-01  0.14269192567E-01  0.89019904636E+00  0.88000000000E+00 0. -1.
        -11    1    4    4    0    0 -0.11717715334E+00 -0.48158205246E-01 -0.18078325907E-02  0.12670133139E+00  0.51100000000E-03 0. -1.
         11    1    4    4    0    0 -0.70462137925E-03  0.43084330068E-03  0.17996681813E-02  0.20450045967E-02  0.51100000000E-03 0.  1.
</event>
<event>
 8    1  0.1327764E+005  0.1043930E+01  0.7957747E-01            NaN
         13   -1    0    0    0    0  0.00000000000E+00  0.00000000000E+00  0.74505805969E-08  0.10566000000E+00  0.10566000000E+00 0.  1.
     999900   -1    0    0    0    0 -0.00000000000E+00 -0.00000000000E+00 -0.74505805969E-08  0.93827000000E+00  0.93827000000E+00 0.  1.
     999902    2    1    2    0    0  0.37677837316E-02 -0.15678023367E-01 -0.16446686373E-01  0.10208976292E+01  0.10206377806E+01 0.  0.
     999903    2    3    3    0    0  0.92475817286E-02  0.83917230194E-01  0.94619539821E-01  0.12832553168E+00  0.19671438001E-01 0.  0.
         14    1    1    2    0    0 -0.37677837316E-02  0.15678023367E-01  0.16446686373E-01  0.23032370777E-01  0.00000000000E+00 0.  1.
     999901    1    3    3    0    0 -0.54797979970E-02 -0.99595253561E-01 -0.11106622619E+00  0.89257209755E+00  0.88000000000E+00 0.  1.
        -11    1    4    4    0    0 -0.59850016373E-02  0.28106473380E-01  0.34207961306E-01  0.44679299773E-01  0.51100000000E-03 0.  1.
         11    1    4    4    0    0  0.15232583366E-01  0.55810756814E-01  0.60411578515E-01  0.83646231904E-01  0.51100000000E-03 0. -1.
</event>
<event>
 8    1  0.1051655E+005  0.1043930E+01  0.7957747E-01            NaN
         13   -1    0    0    0    0  0.00000000000E+00  0.00000000000E+00  0.74505805969E-08  0.10566000000E+00  0.10566000000E+00 0.  1.
     999900   -1    0    0    0    0 -0.00000000000E+00 -0.00000000000E+00 -0.74505805969E-08  0.93827000000E+00  0.93827000000E+00 0. -1.
     999902    2    1    2    0    0  0.20887011732E-01  0.49219163905E-02 -0.10355175464E-01  0.10201030787E+01  0.10198247737E+01 0.  0.
     999903    2    3    3    0    0  0.88414276283E-01  0.66616708962E-01 -0.71499785283E-01  0.13325199638E+00  0.19723211720E-01 0.  0.
         14    1    1    2    0    0 -0.20887011732E-01 -0.49219163905E-02  0.10355175464E-01  0.23826921307E-01  0.00000000000E+00 0.  1.
     999901    1    3    3    0    0 -0.67527264551E-01 -0.61694792571E-01  0.61144609819E-01  0.88685108231E+00  0.88000000000E+00 0.  1.
        -11    1    4    4    0    0  0.27997695924E-01  0.32867237746E-01 -0.25352182034E-01  0.50071154859E-01  0.51100000000E-03 0.  1.
         11    1    4    4    0    0  0.60416580359E-01  0.33749471216E-01 -0.46147603250E-01  0.83180841522E-01  0.51100000000E-03 0. -1.
</event>
<event>
 8    1  0.1051655E+005  0.1043930E+01  0.7957747E-01            NaN
         13   -1    0    0    0    0  0.00000000000E+00  0.00000000000E+00  0.74505805969E-08  0.10566000000E+00  0.10566000000E+00 0.  1.
     999900   -1    0    0    0    0 -0.00000000000E+00 -0.00000000000E+00 -0.74505805969E-08  0.93827000000E+00  0.93827000000E+00 0.  1.
     999902    2    1    2    0    0  0.10375121417E-01 -0.12590334090E-02  0.21429466521E-01  0.10200878033E+01  0.10198091371E+01 0.  0.
     999903    2    3    3    0    0  0.85511139120E-01  0.92111040621E-01 -0.29233254642E-01  0.13052043472E+00  0.19606172074E-01 0.  0.
         14    1    1    2    0    0 -0.10375121417E-01  0.12590334090E-02 -0.21429466521E-01  0.23842196730E-01  0.00000000000E+00 0. -1.
     999901    1    3    3    0    0 -0.75136017704E-01 -0.93370074030E-01  0.50662721163E-01  0.88956736855E+00  0.88000000000E+00 0. -1.
        -11    1    4    4    0    0  0.68260067829E-01  0.64524749866E-01 -0.15503980788E-01  0.95202493383E-01  0.51100000000E-03 0.  1.
         11    1    4    4    0    0  0.17251071292E-01  0.27586290756E-01 -0.13729273854E-01  0.35317941332E-01  0.51100000000E-03 0. -1.
</event>
<event>
 8    1  0.1051655E+005  0.1043930E+01  0.7957747E-01            NaN
         13   -1    0    0    0    0  0.00000000000E+00  0.00000000000E+00  0.74505805969E-08  0.10566000000E+00  0.10566000000E+00 0. -1.
     999900   -1    0    0    0    0 -0.00000000000E+00 -0.00000000000E+00 -0.74505805969E-08  0.93827000000E+00  0.93827000000E+00 0.  1.
     999902    2    1    2    0    0  0.20884587894E-01  0.35547530236E-02 -0.10897596103E-01  0.10201064847E+01  0.10198282602E+01 0.  0.
     999903    2    3    3    0    0  0.90282279856E-02 -0.63711662029E-02 -0.13043477567E+00  0.13189016282E+00  0.16114704061E-01 0.  0.
         14    1    1    2    0    0 -0.20884587894E-01 -0.35547530236E-02  0.10897596103E-01  0.23823515302E-01  0.00000000000E+00 0.  1.
     999901    1    3    3    0    0  0.11856359908E-01  0.99259192265E-02  0.11953717957E+00  0.88821632187E+00  0.88000000000E+00 0. -1.
        -11    1    4    4    0    0 -0.15617084862E-02 -0.84602941990E-02 -0.65050905727E-01  0.65619333799E-01  0.51100000000E-03 0.  1.
         11    1    4    4    0    0  0.10589936472E-01  0.20891279961E-02 -0.65383869941E-01  0.66270829026E-01  0.51100000000E-03 0. -1.
</event>
<event>
 8    1  0.1051655E+005  0.1043930E+01  0.7957747E-01            NaN
         13   -1    0    0    0    0  0.00000000000E+00  0.00000000000E+00  0.74505805969E-08  0.10566000000E+00  0.10566000000E+00 0. -1.
     999900   -1    0    0    0    0 -0.00000000000E+00 -0.00000000000E+00 -0.74505805969E-08  0.93827000000E+00  0.93827000000E+00 0.  1.
     999902    2    1    2    0    0  0.17795440911E-01  0.10019634608E-01  0.11994437058E-01  0.10202458847E+01  0.10199709447E+01 0.  0.
     999903    2    3    3    0    0  0.88770663876E-02 -0.60995240193E-03 -0.12778992751E+00  0.12910493400E+00  0.16082414672E-01 0.  0.
         14    1    1    2    0    0 -0.17795440911E-01 -0.10019634608E-01 -0.11994437058E-01  0.23684115251E-01  0.00000000000E+00 0. -1.
     999901    1    3    3    0    0  0.89183745232E-02  0.10629587009E-01  0.13978436456E+00  0.89114095075E+00  0.88000000000E+00 0. -1.
        -11    1    4    4    0    0  0.95018372916E-02  0.23575804086E-02 -0.37423955605E-01  0.38686647198E-01  0.51100000000E-03 0.  1.
         11    1    4    4    0    0 -0.62477090408E-03 -0.29675328105E-02 -0.90365971901E-01  0.90418286803E-01  0.51100000000E-03 0. -1.
</event>
<event>
 8    1  0.1051655E+005  0.1043930E+01  0.7957747E-01            NaN
         13   -1    0    0    0    0  0.00000000000E+00  0.00000000000E+00  0.74505805969E-08  0.10566000000E+00  0.10566000000E+00 0.  1.
     999900   -1    0    0    0    0 -0.00000000000E+00 -0.00000000000E+00 -0.74505805969E-08  0.93827000000E+00  0.93827000000E+00 0. -1.
     999902    2    1    2    0    0 -0.21059582293E-01 -0.96562552744E-02  0.10486713858E-02  0.10207384286E+01  0.10204749339E+01 0.  0.
     999903    2    3    3    0    0  0.74041652575E-01 -0.44413323911E-02  0.10437425566E+00  0.12958882463E+00  0.19934554783E-01 0.  0.
         14    1    1    2    0    0  0.21059582293E-01  0.96562552744E-02 -0.10486713858E-02  0.23191571399E-01  0.00000000000E+00 0. -1.
     999901    1    3    3    0    0 -0.95101234868E-01 -0.52149228832E-02 -0.10332558428E+00  0.89114960397E+00  0.88000000000E+00 0. -1.
        -11    1    4    4    0    0  0.12704832385E-01 -0.21260991613E-02  0.75289151748E-02  0.14929124163E-01  0.51100000000E-03 0.  1.
         11    1    4    4    0    0  0.61336820190E-01 -0.23152332299E-02  0.96845340487E-01  0.11465970047E+00  0.51100000000E-03 0. -1.
</event>
<event>
 8    1  0.1051655E+005  0.1043930E+01  0.7957747E-01            NaN
         13   -1    0    0    0    0  0.00000000000E+00  0.00000000000E+00  0.74505805969E-08  0.10566000000E+00  0.10566000000E+00 0. -1.
     999900   -1    0    0    0    0 -0.00000000000E+00 -0.00000000000E+00 -0.74505805969E-08  0.93827000000E+00  0.93827000000E+00 0. -1.
     999902    2    1    2    0    0  0.11458334714E-01 -0.30061947241E-02  0.17931355944E-01  0.10224389747E+01  0.10222130858E+01 0.  0.
     999903    2    3    3    0    0  0.12294230641E-01 -0.21560164900E-01 -0.12633753943E+00  0.13049813437E+00  0.21274406864E-01 0.  0.
         14    1    1    2    0    0 -0.11458334714E-01  0.30061947241E-02 -0.17931355944E-01  0.21491025269E-01  0.00000000000E+00 0.  1.
     999901    1    3    3    0    0 -0.83589592663E-03  0.18553970176E-01  0.14426889537E+00  0.89194084036E+00  0.88000000000E+00 0.  1.
        -11    1    4    4    0    0  0.65748302672E-02 -0.11478138591E-01 -0.10793189936E+00  0.10874066434E+00  0.51100000000E-03 0.  1.
         11    1    4    4    0    0  0.57194003735E-02 -0.10082026309E-01 -0.18405640064E-01  0.21757470035E-01  0.51100000000E-03 0. -1.
</event>
<event>
 8    1  0.1051655E+005  0.1043930E+01  0.7957747E-01            NaN
         13   -1    0    0    0    0  0.00000000000E+00  0.00000000000E+00  0.74505805969E-08  0.10566000000E+00  0.10566000000E+00 0.  1.
     999900   -1    0    0    0    0 -0.00000000000E+00 -0.00000000000E+00 -0.74505805969E-08  0.93827000000E+00  0.93827000000E+00 0. -1.
     999902    2    1    2    0    0 -0.14059929424E-01 -0.52099101242E-02  0.19337764235E-01  0.10194601429E+01  0.10191664286E+01 0.  0.
     999903    2    3    3    0    0  0.84642741794E-01 -0.48367130795E-02  0.97190870104E-01  0.13052625188E+00  0.20081077324E-01 0.  0.
         14    1    1    2    0    0  0.14059929424E-01  0.52099101242E-02 -0.19337764235E-01  0.24469857060E-01  0.00000000000E+00 0.  1.
     999901    1    3    3    0    0 -0.98702671218E-01 -0.37319704472E-03 -0.77853105869E-01  0.88893389106E+00  0.88000000000E+00 0. -1.
        -11    1    4    4    0    0  0.71444040980E-01  0.61039405339E-04  0.70650738985E-01  0.10047906626E+00  0.51100000000E-03 0. -1.
         11    1    4    4    0    0  0.13198700814E-01 -0.48977524848E-02  0.26540131119E-01  0.30047185616E-01  0.51100000000E-03 0.  1.
</event>
<event>
 8    1  0.1051655E+005  0.1043930E+01  0.7957747E-01            NaN
         13   -1    0    0    0    0  0.00000000000E+00  0.00000000000E+00  0.74505805969E-08  0.10566000000E+00  0.10566000000E+00 0.  1.
     999900   -1    0    0    0    0 -0.00000000000E+00 -0.00000000000E+00 -0.74505805969E-08  0.93827000000E+00  0.93827000000E+00 0. -1.
     999902    2    1    2    0    0 -0.11504565313E-01 -0.14852219619E-01 -0.75893710358E-03  0.10251278875E+01  0.10249554460E+01 0.  0.
     999903    2    3    3    0    0  0.13082255004E+00  0.74818583151E-02 -0.13789277729E-01  0.13331758892E+00  0.20320372333E-01 0.  0.
         14    1    1    2    0    0  0.11504565313E-01  0.14852219619E-01  0.75893710358E-03  0.18802112546E-01  0.00000000000E+00 0. -1.
     999901    1    3    3    0    0 -0.14232711535E+00 -0.22334077934E-01  0.13030340625E-01  0.89181029854E+00  0.88000000000E+00 0. -1.
        -11    1    4    4    0    0  0.67876445092E-01  0.12616847652E-01 -0.12395775090E-01  0.70144942826E-01  0.51100000000E-03 0.  1.
         11    1    4    4    0    0  0.62946104946E-01 -0.51349893373E-02 -0.13935026389E-02  0.63172646090E-01  0.51100000000E-03 0. -1.
</event>
<event>
 8    1  0.1051655E+005  0.1043930E+01  0.7957747E-01            NaN
         13   -1    0    0    0    0  0.00000000000E+00  0.00000000000E+00  0.74505805969E-08  0.10566000000E+00  0.10566000000E+00 0. -1.
     999900   -1    0    0    0    0 -0.00000000000E+00 -0.00000000000E+00 -0.74505805969E-08  0.93827000000E+00  0.93827000000E+00 0.  1.
     999902    2    1    2    0    0 -0.18199176337E-01  0.65460124949E-02  0.13928095271E-01  0.10200961556E+01  0.10198176870E+01 0.  0.
     999903    2    3    3    0    0  0.10681151562E-01  0.72235372761E-01  0.10969949958E+00  0.13199631482E+00  0.75505522859E-02 0.  0.
         14    1    1    2    0    0  0.18199176337E-01 -0.65460124949E-02 -0.13928095271E-01  0.23833844356E-01  0.00000000000E+00 0.  1.
     999901    1    3    3    0    0 -0.28880327899E-01 -0.65689360266E-01 -0.95771404312E-01  0.88809984083E+00  0.88000000000E+00 0.  1.
        -11    1    4    4    0    0  0.27270942618E-02  0.31119935363E-01  0.52690151947E-01  0.61256841686E-01  0.51100000000E-03 0. -1.
         11    1    4    4    0    0  0.79540573005E-02  0.41115437398E-01  0.57009347636E-01  0.70739473131E-01  0.51100000000E-03 0.  1.
</event>
<event>
 8    1  0.1146876E+005  0.1043930E+01  0.7957747E-01            NaN
         13   -1    0    0    0    0  0.00000000000E+00  0.00000000000E+00  0.74505805969E-08  0.10566000000E+00  0.10566000000E+00 0. -1.
     999900   -1    0    0    0    0 -0.00000000000E+00 -0.00000000000E+00 -0.74505805969E-08  0.93827000000E+00  0.93827000000E+00 0. -1.
     999902    2    1    2    0    0 -0.42133949767E-02  0.18645569530E-02 -0.23432192742E-01  0.10200491096E+01  0.10197695274E+01 0.  0.
     999903    2    3    3    0    0 -0.87656408520E-01 -0.65425589801E-01 -0.71462376311E-01  0.13224417669E+00  0.20432750286E-01 0.  0.
         14    1    1    2    0    0  0.42133949767E-02 -0.18645569530E-02  0.23432192742E-01  0.23880890406E-01  0.00000000000E+00 0. -1.
     999901    1    3    3    0    0  0.83443013544E-01  0.67290146754E-01  0.48030183569E-01  0.88780493291E+00  0.88000000000E+00 0.  1.
        -11    1    4    4    0    0 -0.41252557776E-01 -0.28257426560E-01 -0.20906359708E-01  0.54199563431E-01  0.51100000000E-03 0.  1.
         11    1    4    4    0    0 -0.46403850744E-01 -0.37168163241E-01 -0.50556016603E-01  0.78044613257E-01  0.51100000000E-03 0. -1.
</event>
<event>
 8    1  0.1051655E+005  0.1043930E+01  0.7957747E-01            NaN
         13   -1    0    0    0    0  0.00000000000E+00  0.00000000000E+00  0.74505805969E-08  0.10566000000E+00  0.10566000000E+00 0. -1.
     999900   -1    0    0    0    0 -0.00000000000E+00 -0.00000000000E+00 -0.74505805969E-08  0.93827000000E+00  0.93827000000E+00 0. -1.
     999902    2    1    2    0    0 -0.53508296829E-02 -0.22842432140E-01 -0.18129470829E-02  0.10203992783E+01  0.10201279294E+01 0.  0.
     999903    2    3    3    0    0 -0.47509145428E-01  0.22796933519E-01 -0.11783031438E+00  0.13061261583E+00  0.19971313177E-01 0.  0.
         14    1    1    2    0    0  0.53508296829E-02  0.22842432140E-01  0.18129470829E-02  0.23530721653E-01  0.00000000000E+00 0.  1.
     999901    1    3    3    0    0  0.42158315745E-01 -0.45639365659E-01  0.11601736729E+00  0.88978666252E+00  0.88000000000E+00 0.  1.
        -11    1    4    4    0    0 -0.17323343012E-01  0.29960237832E-02 -0.21741488955E-01  0.27964760585E-01  0.51100000000E-03 0.  1.
         11    1    4    4    0    0 -0.30185802416E-01  0.19800909736E-01 -0.96088825422E-01  0.10264785524E+00  0.51100000000E-03 0. -1.
</event>
<event>
 8    1  0.1051655E+005  0.1043930E+01  0.7957747E-01            NaN
         13   -1    0    0    0    0  0.00000000000E+00  0.00000000000E+00  0.74505805969E-08  0.10566000000E+00  0.10566000000E+00 0.  1.
     999900   -1    0    0    0    0 -0.00000000000E+00 -0.00000000000E+00 -0.74505805969E-08  0.93827000000E+00  0.93827000000E+00 0. -1.
     999902    2    1    2    0    0 -0.19775418693E-01  0.73689661992E-02 -0.51384765343E-02  0.10222096688E+01  0.10219788815E+01 0.  0.
     999903    2    3    3    0    0  0.80818754916E-01 -0.89100490602E-01  0.44787707734E-01  0.12984305817E+00  0.19563037035E-01 0.  0.
         14    1    1    2    0    0  0.19775418693E-01 -0.73689661992E-02  0.51384765343E-02  0.21720331222E-01  0.00000000000E+00 0. -1.
     999901    1    3    3    0    0 -0.10059417361E+00  0.96469456801E-01 -0.49926184268E-01  0.89236661061E+00  0.88000000000E+00 0. -1.
        -11    1    4    4    0    0  0.12912899789E-01 -0.26065970058E-01  0.13246388832E-01  0.31967260034E-01  0.51100000000E-03 0.  1.
         11    1    4    4    0    0  0.67905855127E-01 -0.63034520545E-01  0.31541318902E-01  0.97875798132E-01  0.51100000000E-03 0. -1.
</event>
<event>
 8    1  0.1051655E+005  0.1043930E+01  0.7957747E-01            NaN
         13   -1    0    0    0    0  0.00000000000E+00  0.00000000000E+00  0.74505805969E-08  0.10566000000E+00  0.10566000000E+00 0.  1.
     999900   -1    0    0    0    0 -0.00000000000E+00 -0.00000000000E+00 -0.74505805969E-08  0.93827000000E+00  0.93827000000E+00 0.  1.
     999902    2    1    2    0    0  0.13662226692E-01 -0.11715041296E-01 -0.20434218456E-01  0.10167003119E+01  0.10163356081E+01 0.  0.
     999903    2    3    3    0    0 -0.60120751062E-01 -0.28247343660E-03 -0.11183179319E+00  0.12882185845E+00  0.21774681299E-01 0.  0.
         14    1    1    2    0    0 -0.13662226692E-01  0.11715041296E-01  0.20434218456E-01  0.27229688111E-01  0.00000000000E+00 0.  1.
     999901    1    3    3    0    0  0.73782977754E-01 -0.11432567859E-01  0.91397574739E-01  0.88787845344E+00  0.88000000000E+00 0. -1.
        -11    1    4    4    0    0 -0.46224601549E-01  0.52227835012E-02 -0.97860492122E-01  0.10835556421E+00  0.51100000000E-03 0.  1.
         11    1    4    4    0    0 -0.13896149513E-01 -0.55052569378E-02 -0.13971301073E-01  0.20466294240E-01  0.51100000000E-03 0. -1.
</event>
<event>
 8    1  0.1051655E+005  0.1043930E+01  0.7957747E-01            NaN
         13   -1    0    0    0    0  0.00000000000E+00  0.00000000000E+00  0.74505805969E-08  0.10566000000E+00  0.10566000000E+00 0.  1.
     999900   -1    0    0    0    0 -0.00000000000E+00 -0.00000000000E+00 -0.74505805969E-08  0.93827000000E+00  0.93827000000E+00 0. -1.
     999902    2    1    2    0    0  0.32004183015E-02 -0.92048638013E-02  0.22543843690E-01  0.10193699291E+01  0.10190740185E+01 0.  0.
     999903    2    3    3    0    0  0.71041160700E-01  0.10380031098E+00  0.23279390208E-01  0.12955361271E+00  0.20514811361E-01 0.  0.
         14    1    1    2    0    0 -0.32004183015E-02  0.92048638013E-02 -0.22543843690E-01  0.24560070912E-01  0.00000000000E+00 0. -1.
     999901    1    3    3    0    0 -0.67840742398E-01 -0.11300517478E+00 -0.73554651832E-03  0.88981631637E+00  0.88000000000E+00 0. -1.
        -11    1    4    4    0    0  0.35416143233E-01  0.62849522510E-01  0.21361674021E-01  0.75239271123E-01  0.51100000000E-03 0. -1.
         11    1    4    4    0    0  0.35625017467E-01  0.40950788472E-01  0.19177161869E-02  0.54314341590E-01  0.51100000000E-03 0.  1.
</event>
<event>
 8    1  0.1051655E+005  0.1043930E+01  0.7957747E-01            NaN
         13   -1    0    0    0    0  0.00000000000E+00  0.00000000000E+00  0.74505805969E-08  0.10566000000E+00  0.10566000000E+00 0. -1.
     999900   -1    0    0    0    0 -0.00000000000E+00 -0.00000000000E+00 -0.74505805969E-08  0.93827000000E+00  0.93827000000E+00 0. -1.
     999902    2    1    2    0    0 -0.80889933289E-02 -0.51122700192E-02  0.21722340169E-01  0.10201933789E+01  0.10199172041E+01 0.  0.
     999903    2    3    3    0    0  0.88634062968E-02 -0.62370839291E-01 -0.11015681702E+00  0.12836489782E+00  0.19347896303E-01 0.  0.
         14    1    1    2    0    0  0.80889933289E-02  0.51122700192E-02 -0.21722340169E-01  0.23736621079E-01  0.00000000000E+00 0.  1.
     999901    1    3    3    0    0 -0.16952399626E-01  0.57258569272E-01  0.13187915719E+00  0.89182848110E+00  0.88000000000E+00 0.  1.
        -11    1    4    4    0    0 -0.59065715551E-02 -0.12520956486E-01 -0.25336458327E-01  0.28876619962E-01  0.51100000000E-03 0.  1.
         11    1    4    4    0    0  0.14769977852E-01 -0.49849882806E-01 -0.84820358689E-01  0.99488277855E-01  0.51100000000E-03 0. -1.
</event>
<event>
 8    1  0.1051655E+005  0.1043930E+01  0.7957747E-01            NaN
         13   -1    0    0    0    0  0.00000000000E+00  0.00000000000E+00  0.74505805969E-08  0.10566000000E+00  0.10566000000E+00 0.  1.
     999900   -1    0    0    0    0 -0.00000000000E+00 -0.00000000000E+00 -0.74505805969E-08  0.93827000000E+00  0.93827000000E+00 0.  1.
     999902    2    1    2    0    0  0.19829090700E-02 -0.22884726556E-01  0.62796275304E-02  0.10201166348E+01  0.10198386501E+01 0.  0.
     999903    2    3    3    0    0 -0.87781912075E-01 -0.20781427305E-01  0.92828449756E-01  0.13132371993E+00  0.22164533004E-01 0.  0.
         14    1    1    2    0    0 -0.19829090700E-02  0.22884726556E-01 -0.62796275304E-02  0.23813365152E-01  0.00000000000E+00 0. -1.
     999901    1    3    3    0    0  0.89764821145E-01 -0.21032992512E-02 -0.86548822226E-01  0.88879291492E+00  0.88000000000E+00 0. -1.
        -11    1    4    4    0    0 -0.31034777010E-01  0.30838778771E-02  0.27902781782E-01  0.41850854698E-01  0.51100000000E-03 0. -1.
         11    1    4    4    0    0 -0.56747135065E-01 -0.23865305182E-01  0.64925667975E-01  0.89472865230E-01  0.51100000000E-03 0.  1.
</event>
<event>
 8    1  0.1051655E+005  0.1043930E+01  0.7957747E-01            NaN
         13   -1    0    0    0    0  0.00000000000E+00  0.00000000000E+00  0.74505805969E-08  0.10566000000E+00  0.10566000000E+00 0. -1.
     999900   -1    0    0    0    0 -0.00000000000E+00 -0.00000000000E+00 -0.74505805969E-08  0.93827000000E+00  0.93827000000E+00 0.  1.
     999902    2    1    2    0    0  0.15144808830E-01  0.44520269371E-02  0.15920598162E-01  0.10215101154E+01  0.10212640524E+01 0.  0.
     999903    2    3    3    0    0  0.30101052424E-01 -0.41506390944E-01 -0.11774198254E+00  0.13010585760E+00  0.20868777715E-01 0.  0.
         14    1    1    2    0    0 -0.15144808830E-01 -0.44520269371E-02 -0.15920598162E-01  0.22419884571E-01  0.00000000000E+00 0. -1.
     999901    1    3    3    0    0 -0.14956243594E-01  0.45958417882E-01  0.13366258070E+00  0.89140425783E+00  0.88000000000E+00 0. -1.
        -11    1    4    4    0    0  0.12401133689E-01 -0.31355092752E-01 -0.59511346061E-01  0.68401691421E-01  0.51100000000E-03 0. -1.
         11    1    4    4    0    0  0.17699918735E-01 -0.10151298193E-01 -0.58230636477E-01  0.61704166178E-01  0.51100000000E-03 0.  1.
</event>
<event>
 8    1  0.1051655E+005  0.1043930E+01  0.7957747E-01            NaN
         13   -1    0    0    0    0  0.00000000000E+00  0.00000000000E+00  0.74505805969E-08  0.10566000000E+00  0.10566000000E+00 0.  1.
     999900   -1    0    0    0    0 -0.00000000000E+00 -0.00000000000E+00 -0.74505805969E-08  0.93827000000E+00  0.93827000000E+00 0. -1.
     999902    2    1    2    0    0  0.13253038067E-01  0.12088915871E-01 -0.15418762147E-01  0.10202757587E+01  0.10200015199E+01 0.  0.
     999903    2    3    3    0    0 -0.41311712387E-01  0.95370889414E-01  0.75598789044E-01  0.12999636788E+00  0.19534959153E-01 0.  0.
         14    1    1    2    0    0 -0.13253038067E-01 -0.12088915871E-01  0.15418762147E-01  0.23654241292E-01  0.00000000000E+00 0.  1.
     999901    1    3    3    0    0  0.54564750454E-01 -0.83281973543E-01 -0.91017551190E-01  0.89027939083E+00  0.88000000000E+00 0. -1.
        -11    1    4    4    0    0 -0.35878235785E-01  0.63535043034E-01  0.46519808154E-01  0.86534982337E-01  0.51100000000E-03 0. -1.
         11    1    4    4    0    0 -0.54334766017E-02  0.31835846381E-01  0.29078980889E-01  0.43461385543E-01  0.51100000000E-03 0.  1.
</event>
<event>
 8    1  0.1051655E+005  0.1043930E+01  0.7957747E-01            NaN
         13   -1    0    0    0    0  0.00000000000E+00  0.00000000000E+00  0.74505805969E-08  0.10566000000E+00  0.10566000000E+00 0. -1.
     999900   -1    0    0    0    0 -0.00000000000E+00 -0.00000000000E+00 -0.74505805969E-08  0.93827000000E+00  0.93827000000E+00 0.  1.
     999902    2    1    2    0    0  0.37001131021E-02 -0.12358332389E-01 -0.20372826626E-01  0.10198162844E+01  0.10195311582E+01 0.  0.
     999903    2    3    3    0    0  0.90376102308E-01 -0.64281924974E-01  0.64629788223E-01  0.12996560527E+00  0.20348053506E-01 0.  0.
         14    1    1    2    0    0 -0.37001131021E-02  0.12358332389E-01  0.20372826626E-01  0.24113715623E-01  0.00000000000E+00 0. -1.
     999901    1    3    3    0    0 -0.86675989206E-01  0.51923592585E-01 -0.85002614848E-01  0.88985067910E+00  0.88000000000E+00 0.  1.
        -11    1    4    4    0    0  0.73242060847E-01 -0.41349678899E-01  0.47260125013E-01  0.96477852171E-01  0.51100000000E-03 0.  1.
         11    1    4    4    0    0  0.17134041461E-01 -0.22932246075E-01  0.17369663210E-01  0.33487753102E-01  0.51100000000E-03 0. -1.
</event>
<event>
 8    1  0.1051655E+005  0.1043930E+01  0.7957747E-01            NaN
         13   -1    0    0    0    0  0.00000000000E+00  0.00000000000E+00  0.74505805969E-08  0.10566000000E+00  0.10566000000E+00 0.  1.
     999900   -1    0    0    0    0 -0.00000000000E+00 -0.00000000000E+00 -0.74505805969E-08  0.93827000000E+00  0.93827000000E+00 0.  1.
     999902    2    1    2    0    0  0.11431368395E-01 -0.19612859602E-01 -0.35065342201E-02  0.10209596664E+01  0.10207012316E+01 0.  0.
     999903    2    3    3    0    0  0.41263292675E-01  0.11055447420E+00  0.48744190655E-01  0.12935234431E+00  0.20762508714E-01 0.  0.
         14    1    1    2    0    0 -0.11431368395E-01  0.19612859602E-01  0.35065342201E-02  0.22970333637E-01  0.00000000000E+00 0.  1.
     999901    1    3    3    0    0 -0.29831924280E-01 -0.13016733380E+00 -0.52250724875E-01  0.89160732206E+00  0.88000000000E+00 0.  1.
        -11    1    4    4    0    0  0.27837823174E-01  0.45496147921E-01  0.19928011008E-01  0.56940588497E-01  0.51100000000E-03 0.  1.
         11    1    4    4    0    0  0.13425469501E-01  0.65058326275E-01  0.28816179647E-01  0.72411755810E-01  0.51100000000E-03 0. -1.
</event>
<event>
 8    1  0.1201425E+005  0.1043930E+01  0.7957747E-01            NaN
         13   -1    0    0    0    0  0.00000000000E+00  0.00000000000E+00  0.74505805969E-08  0.10566000000E+00  0.10566000000E+00 0. -1.
     999900   -1    0    0    0    0 -0.00000000000E+00 -0.00000000000E+00 -0.74505805969E-08  0.93827000000E+00  0.93827000000E+00 0. -1.
     999902    2    1    2    0    0  0.20170391156E-01 -0.58802385289E-03 -0.10530097921E-01  0.10211687739E+01  0.10209150755E+01 0.  0.
     999903    2    3    3    0    0 -0.83828460373E-01 -0.72915254288E-01 -0.65291623712E-01  0.13041301945E+00  0.20017852975E-01 0.  0.
         14    1    1    2    0    0 -0.20170391156E-01  0.58802385289E-03  0.10530097921E-01  0.22761226102E-01  0.00000000000E+00 0.  1.
     999901    1    3    3    0    0  0.10399885153E+00  0.72327230435E-01  0.54761525791E-01  0.89075575445E+00  0.88000000000E+00 0. -1.
        -11    1    4    4    0    0 -0.50317767111E-01 -0.54241989983E-01 -0.36867538369E-01  0.82665274879E-01  0.51100000000E-03 0. -1.
         11    1    4    4    0    0 -0.33510693262E-01 -0.18673264304E-01 -0.28424085343E-01  0.47747744567E-01  0.51100000000E-03 0.  1.
</event>
<event>
 8    1  0.1051655E+005  0.1043930E+01  0.7957747E-01            NaN
         13   -1    0    0    0    0  0.00000000000E+00  0.00000000000E+00  0.74505805969E-08  0.10566000000E+00  0.10566000000E+00 0.  1.
     999900   -1    0    0    0    0 -0.00000000000E+00 -0.00000000000E+00 -0.74505805969E-08  0.93827000000E+00  0.93827000000E+00 0.  1.
     999902    2    1    2    0    0 -0.19126399739E-01  0.12415745426E-01  0.50715813347E-02  0.10205699735E+01  0.10203025923E+01 0.  0.
     999903    2    3    3    0    0 -0.11556443800E+00  0.23911760685E-01 -0.56871889270E-01  0.13306253851E+00  0.23330575160E-01 0.  0.
         14    1    1    2    0    0  0.19126399739E-01 -0.12415745426E-01 -0.50715813347E-02  0.23360026513E-01  0.00000000000E+00 0. -1.
     999901    1    3    3    0    0  0.96438038256E-01 -0.11496015259E-01  0.61943470605E-01  0.88750743498E+00  0.88000000000E+00 0. -1.
        -11    1    4    4    0    0 -0.80958431457E-01  0.15802169073E-01 -0.27501418692E-01  0.86951511329E-01  0.51100000000E-03 0. -1.
         11    1    4    4    0    0 -0.34606006538E-01  0.81095916124E-02 -0.29370470579E-01  0.46111027181E-01  0.51100000000E-03 0.  1.
</event>
<event>
 7    1  0.1051655E+005  0.1043930E+01  0.7957747E-01            NaN
         13   -1    0    0    0    0  0.00000000000E+00  0.00000000000E+00  0.74505805969E-08  0.10566000000E+00  0.10566000000E+00 0. -1.
     999900   -1    0    0    0    0 -0.00000000000E+00 -0.00000000000E+00 -0.74505805969E-08  0.93827000000E+00  0.93827000000E+00 0.  1.
     999903    2    1    2    0    0 -0.43268724629E-02 -0.39772318396E-01 -0.25766586646E-01  0.51697169976E-01  0.20202011291E-01 0.  0.
         14    1    1    2    0    0  0.56469857598E-01 -0.79192979099E-01  0.32874630015E-01  0.10266992770E+00  0.00000000000E+00 0. -1.
     999901    1    1    2    0    0 -0.52142985135E-01  0.11896529750E+00 -0.71080433686E-02  0.88956290232E+00  0.88000000000E+00 0. -1.
        -11    1    3    3    0    0 -0.58094898788E-02 -0.35997144675E-01 -0.13696839257E-01  0.38953935925E-01  0.51100000000E-03 0.  1.
         11    1    3    3    0    0  0.14826174159E-02 -0.37751737208E-02 -0.12069747390E-01  0.12743234051E-01  0.51100000000E-03 0. -1.
</event>
<event>
 8    1  0.1051655E+005  0.1043930E+01  0.7957747E-01            NaN
         13   -1    0    0    0    0  0.00000000000E+00  0.00000000000E+00  0.74505805969E-08  0.10566000000E+00  0.10566000000E+00 0.  1.
     999900   -1    0    0    0    0 -0.00000000000E+00 -0.00000000000E+00 -0.74505805969E-08  0.93827000000E+00  0.93827000000E+00 0.  1.
     999902    2    1    2    0    0  0.13183729868E-01 -0.19167504793E-01  0.10251192140E-02  0.10206436340E+01  0.10203779558E+01 0.  0.
     999903    2    3    3    0    0  0.13523048678E-01 -0.71303151147E-01 -0.10887163429E+00  0.13227685320E+00  0.19419601704E-01 0.  0.
         14    1    1    2    0    0 -0.13183729868E-01  0.19167504793E-01 -0.10251192140E-02  0.23286366025E-01  0.00000000000E+00 0. -1.
     999901    1    3    3    0    0 -0.33931880998E-03  0.52135646354E-01  0.10989675350E+00  0.88836678078E+00  0.88000000000E+00 0. -1.
        -11    1    4    4    0    0  0.10492196799E-01 -0.18102358780E-01 -0.40526252296E-01  0.45611619498E-01  0.51100000000E-03 0.  1.
         11    1    4    4    0    0  0.30308518787E-02 -0.53200792367E-01 -0.68345381992E-01  0.86665233700E-01  0.51100000000E-03 0. -1.
</event>
<event>
 8    1  0.1051655E+005  0.1043930E+01  0.7957747E-01            NaN
         13   -1    0    0    0    0  0.00000000000E+00  0.00000000000E+00  0.74505805969E-08  0.10566000000E+00  0.10566000000E+00 0. -1.
     999900   -1    0    0    0    0 -0.00000000000E+00 -0.00000000000E+00 -0.74505805969E-08  0.93827000000E+00  0.93827000000E+00 0.  1.
     999902    2    1    2    0    0  0.66521241433E-02 -0.18234215421E-01 -0.11917145856E-01  0.10211537902E+01  0.10208997539E+01 0.  0.
     999903    2    3    3    0    0  0.71782083418E-01 -0.92175265042E-01  0.59691859465E-01  0.13276365064E+00  0.20349984285E-01 0.  0.
         14    1    1    2    0    0 -0.66521241433E-02  0.18234215421E-01  0.11917145856E-01  0.22776209803E-01  0.00000000000E+00 0.  1.
     999901    1    3    3    0    0 -0.65129959275E-01  0.73941049621E-01 -0.71609005321E-01  0.88839013955E+00  0.88000000000E+00 0.  1.
        -11    1    4    4    0    0  0.24926975975E-01 -0.19805990827E-01  0.10644066439E-01  0.33573630654E-01  0.51100000000E-03 0.  1.
         11    1    4    4    0    0  0.46855107443E-01 -0.72369274214E-01  0.49047793026E-01  0.99190019989E-01  0.51100000000E-03 0. -1.
</event>
<event>
 8    1  0.1051655E+005  0.1043930E+01  0.7957747E-01            NaN
         13   -1    0    0    0    0  0.00000000000E+00  0.00000000000E+00  0.74505805969E-08  0.10566000000E+00  0.10566000000E+00 0.  1.
     999900   -1    0    0    0    0 -0.00000000000E+00 -0.00000000000E+00 -0.74505805969E-08  0.93827000000E+00  0.93827000000E+00 0. -1.
     999902    2    1    2    0    0 -0.71841136962E-02  0.20620648349E-01 -0.48413913165E-02  0.10215634692E+01  0.10213185889E+01 0.  0.
     999903    2    3    3    0    0  0.43257919546E-01 -0.97464992638E-01 -0.71406982666E-01  0.12975654212E+00  0.19160653856E-01 0.  0.
         14    1    1    2    0    0  0.71841136962E-02 -0.20620648349E-01  0.48413913165E-02  0.22366530750E-01  0.00000000000E+00 0. -1.
     999901    1    3    3    0    0 -0.50442033242E-01  0.11808564099E+00  0.66565591349E-01  0.89180692713E+00  0.88000000000E+00 0.  1.
        -11    1    4    4    0    0  0.21264555104E-01 -0.66557248186E-01 -0.40051334536E-01  0.80538308332E-01  0.51100000000E-03 0. -1.
         11    1    4    4    0    0  0.21993364442E-01 -0.30907744451E-01 -0.31355648130E-01  0.49218233788E-01  0.51100000000E-03 0.  1.
</event>
<event>
 8    1  0.1051655E+005  0.1043930E+01  0.7957747E-01            NaN
         13   -1    0    0    0    0  0.00000000000E+00  0.00000000000E+00  0.74505805969E-08  0.10566000000E+00  0.10566000000E+00 0. -1.
     999900   -1    0    0    0    0 -0.00000000000E+00 -0.00000000000E+00 -0.74505805969E-08  0.93827000000E+00  0.93827000000E+00 0. -1.
     999902    2    1    2    0    0 -0.22132382077E-01  0.65568555080E-02  0.14133566812E-02  0.10208035591E+01  0.10205415592E+01 0.  0.
     999903    2    3    3    0    0  0.11648445224E+00  0.52394301929E-02 -0.49895373989E-01  0.12847573360E+00  0.20503329824E-01 0.  0.
         14    1    1    2    0    0  0.22132382077E-01 -0.65568555080E-02 -0.14133566812E-02  0.23126440878E-01  0.00000000000E+00 0.  1.
     999901    1    3    3    0    0 -0.13861683432E+00  0.13174253151E-02  0.51308730670E-01  0.89232782553E+00  0.88000000000E+00 0.  1.
        -11    1    4    4    0    0  0.84333185570E-01 -0.46825040744E-02 -0.39584263138E-01  0.93280153527E-01  0.51100000000E-03 0.  1.
         11    1    4    4    0    0  0.32151266675E-01  0.99219342674E-02 -0.10311110851E-01  0.35195580069E-01  0.51100000000E-03 0. -1.
</event>
<event>
 8    1  0.1051655E+005  0.1043930E+01  0.7957747E-01            NaN
         13   -1    0    0    0    0  0.00000000000E+00  0.00000000000E+00  0.74505805969E-08  0.10566000000E+00  0.10566000000E+00 0.  1.
     999900   -1    0    0    0    0 -0.00000000000E+00 -0.00000000000E+00 -0.74505805969E-08  0.93827000000E+00  0.93827000000E+00 0.  1.
     999902    2    1    2    0    0 -0.11915777103E-02  0.20677511393E-01  0.50440375444E-02  0.10226128320E+01  0.10223906213E+01 0.  0.
     999903    2    3    3    0    0 -0.11143568908E-01  0.11201472782E+00 -0.71202794718E-01  0.13455027306E+00  0.19038372573E-01 0.  0.
         14    1    1    2    0    0  0.11915777103E-02 -0.20677511393E-01 -0.50440375444E-02  0.21317167955E-01  0.00000000000E+00 0. -1.
     999901    1    3    3    0    0  0.99519911975E-02 -0.91337216424E-01  0.76246832262E-01  0.88806255898E+00  0.88000000000E+00 0.  1.
        -11    1    4    4    0    0 -0.58062229138E-02  0.93067783261E-01 -0.50776621919E-01  0.10617839215E+00  0.51100000000E-03 0.  1.
         11    1    4    4    0    0 -0.53373459940E-02  0.18946944556E-01 -0.20426172799E-01  0.28371880912E-01  0.51100000000E-03 0. -1.
</event>
<event>
 8    1  0.1051655E+005  0.1043930E+01  0.7957747E-01            NaN
         13   -1    0    0    0    0  0.00000000000E+00  0.00000000000E+00  0.74505805969E-08  0.10566000000E+00  0.10566000000E+00 0. -1.
     999900   -1    0    0    0    0 -0.00000000000E+00 -0.00000000000E+00 -0.74505805969E-08  0.93827000000E+00  0.93827000000E+00 0. -1.
     999902    2    1    2    0    0  0.14308569683E-01  0.56683734259E-03 -0.18649045686E-01  0.10204173784E+01  0.10201464516E+01 0.  0.
     999903    2    3    3    0    0  0.12920825858E+00 -0.21325621340E-01 -0.19457018473E-02  0.13252086416E+00  0.20209836004E-01 0.  0.
         14    1    1    2    0    0 -0.14308569683E-01 -0.56683734259E-03  0.18649045686E-01  0.23512621631E-01  0.00000000000E+00 0. -1.
     999901    1    3    3    0    0 -0.11489968889E+00  0.21892458683E-01 -0.16703343839E-01  0.88789651421E+00  0.88000000000E+00 0. -1.
        -11    1    4    4    0    0  0.91535179766E-01 -0.18472078978E-01  0.71560440453E-02  0.93655629430E-01  0.51100000000E-03 0.  1.
         11    1    4    4    0    0  0.37673078811E-01 -0.28535423619E-02 -0.91017458926E-02  0.38865234727E-01  0.51100000000E-03 0. -1.
</event>
<event>
 8    1  0.1051655E+005  0.1043930E+01  0.7957747E-01            NaN
         13   -1    0    0    0    0  0.00000000000E+00  0.00000000000E+00  0.74505805969E-08  0.10566000000E+00  0.10566000000E+00 0.  1.
     999900   -1    0    0    0    0 -0.00000000000E+00 -0.00000000000E+00 -0.74505805969E-08  0.93827000000E+00  0.93827000000E+00 0.  1.
     999902    2    1    2    0    0  0.41446865951E-02  0.20263203297E-01  0.60153490224E-02  0.10223902633E+01  0.10221633383E+01 0.  0.
     999903    2    3    3    0    0  0.81845513466E-01  0.95233049679E-01  0.45124667838E-01  0.13492903302E+00  0.20039622726E-01 0.  0.
         14    1    1    2    0    0 -0.41446865951E-02 -0.20263203297E-01 -0.60153490224E-02  0.21539736737E-01  0.00000000000E+00 0.  1.
     999901    1    3    3    0    0 -0.77700826871E-01 -0.74969846382E-01 -0.39109318816E-01  0.88746123024E+00  0.88000000000E+00 0. -1.
        -11    1    4    4    0    0  0.53660183246E-01  0.48620326031E-01  0.21364613065E-01  0.75498736293E-01  0.51100000000E-03 0.  1.
         11    1    4    4    0    0  0.28185330220E-01  0.46612723648E-01  0.23760054773E-01  0.59430296729E-01  0.51100000000E-03 0. -1.
</event>
<event>
 8    1  0.1051655E+005  0.1043930E+01  0.7957747E-01            NaN
         13   -1    0    0    0    0  0.00000000000E+00  0.00000000000E+00  0.74505805969E-08  0.10566000000E+00  0.10566000000E+00 0.  1.
     999900   -1    0    0    0    0 -0.00000000000E+00 -0.00000000000E+00 -0.74505805969E-08  0.93827000000E+00  0.93827000000E+00 0.  1.
     999902    2    1    2    0    0 -0.14143274886E-02  0.70336753675E-02 -0.21736353676E-01  0.10210402210E+01  0.10207836161E+01 0.  0.
     999903    2    3    3    0    0  0.76684903605E-01  0.10452776880E+00  0.10039703022E-01  0.13165037064E+00  0.20600863094E-01 0.  0.
         14    1    1    2    0    0  0.14143274886E-02 -0.70336753675E-02  0.21736353676E-01  0.22889778997E-01  0.00000000000E+00 0.  1.
     999901    1    3    3    0    0 -0.78099231094E-01 -0.97494093436E-01 -0.31776056698E-01  0.88938985036E+00  0.88000000000E+00 0. -1.
        -11    1    4    4    0    0  0.35685114403E-01  0.47018031534E-01 -0.56504376241E-02  0.59298492777E-01  0.51100000000E-03 0. -1.
         11    1    4    4    0    0  0.40999789202E-01  0.57509737270E-01  0.15690140646E-01  0.72351877861E-01  0.51100000000E-03 0.  1.
</event>
<event>
 8    1  0.1051655E+005  0.1043930E+01  0.7957747E-01            NaN
         13   -1    0    0    0    0  0.00000000000E+00  0.00000000000E+00  0.74505805969E-08  0.10566000000E+00  0.10566000000E+00 0.  1.
     999900   -1    0    0    0    0 -0.00000000000E+00 -0.00000000000E+00 -0.74505805969E-08  0.93827000000E+00  0.93827000000E+00 0. -1.
     999902    2    1    2    0    0 -0.17152449399E-01 -0.16509932968E-01 -0.38611239728E-02  0.10198116940E+01  0.10195264580E+01 0.  0.
     999903    2    3    3    0    0  0.41734407217E-01  0.32113113583E-01 -0.11507827272E+00  0.12953021225E+00  0.27605329619E-01 0.  0.
         14    1    1    2    0    0  0.17152449399E-01  0.16509932968E-01  0.38611239728E-02  0.24118306022E-01  0.00000000000E+00 0.  1.
     999901    1    3    3    0    0 -0.58886856616E-01 -0.48623046551E-01  0.11121714875E+00  0.89028148173E+00  0.88000000000E+00 0.  1.
        -11    1    4    4    0    0  0.26104082884E-01  0.34292192110E-01 -0.75795943707E-01  0.87193255395E-01  0.51100000000E-03 0.  1.
         11    1    4    4    0    0  0.15630324333E-01 -0.21790785277E-02 -0.39282329011E-01  0.42336956852E-01  0.51100000000E-03 0. -1.
</event>
<event>
 8    1  0.1051655E+005  0.1043930E+01  0.7957747E-01            NaN
         13   -1    0    0    0    0  0.00000000000E+00  0.00000000000E+00  0.74505805969E-08  0.10566000000E+00  0.10566000000E+00 0.  1.
     999900   -1    0    0    0    0 -0.00000000000E+00 -0.00000000000E+00 -0.74505805969E-08  0.93827000000E+00  0.93827000000E+00 0.  1.
     999902    2    1    2    0    0  0.14143039125E-01 -0.74156077807E-02 -0.17550709329E-01  0.10202014477E+01  0.10199254629E+01 0.  0.
     999903    2    3    3    0    0 -0.35567176330E-01  0.53893125989E-01  0.10874263863E+00  0.12768821193E+00  0.17601844996E-01 0.  0.
         14    1    1    2    0    0 -0.14143039125E-01  0.74156077807E-02  0.17550709329E-01  0.23728552261E-01  0.00000000000E+00 0.  1.
     999901    1    3    3    0    0  0.49710215455E-01 -0.61308733770E-01 -0.12629334796E+00  0.89251323581E+00  0.88000000000E+00 0.  1.
        -11    1    4    4    0    0 -0.30902464561E-01  0.36430355250E-01  0.67911750381E-01  0.83032524112E-01  0.51100000000E-03 0. -1.
         11    1    4    4    0    0 -0.46647117689E-02  0.17462770739E-01  0.40830888253E-01  0.44655687816E-01  0.51100000000E-03 0.  1.
</event>
<event>
 8    1  0.1051655E+005  0.1043930E+01  0.7957747E-01            NaN
         13   -1    0    0    0    0  0.00000000000E+00  0.00000000000E+00  0.74505805969E-08  0.10566000000E+00  0.10566000000E+00 0. -1.
     999900   -1    0    0    0    0 -0.00000000000E+00 -0.00000000000E+00 -0.74505805969E-08  0.93827000000E+00  0.93827000000E+00 0.  1.
     999902    2    1    2    0    0 -0.83785052223E-02 -0.10581584911E-01  0.18935162058E-01  0.10206768357E+01  0.10204119233E+01 0.  0.
     999903    2    3    3    0    0  0.10053588407E+00 -0.81545216337E-01  0.20147298397E-01  0.13112658389E+00  0.55840018075E-02 0.  0.
         14    1    1    2    0    0  0.83785052223E-02  0.10581584911E-01 -0.18935162058E-01  0.23253164326E-01  0.00000000000E+00 0.  1.
     999901    1    3    3    0    0 -0.10891438929E+00  0.70963631426E-01 -0.12121363393E-02  0.88955025179E+00  0.88000000000E+00 0.  1.
        -11    1    4    4    0    0  0.73703575588E-01 -0.59351102050E-01  0.12290136500E-01  0.95425777152E-01  0.51100000000E-03 0. -1.
         11    1    4    4    0    0  0.26832308482E-01 -0.22194114288E-01  0.78571618972E-02  0.35700806735E-01  0.51100000000E-03 0.  1.
</event>
<event>
 8    1  0.1051655E+005  0.1043930E+01  0.7957747E-01            NaN
         13   -1    0    0    0    0  0.00000000000E+00  0.00000000000E+00  0.74505805969E-08  0.10566000000E+00  0.10566000000E+00 0. -1.
     999900   -1    0    0    0    0 -0.00000000000E+00 -0.00000000000E+00 -0.74505805969E-08  0.93827000000E+00  0.93827000000E+00 0.  1.
     999902    2    1    2    0    0 -0.18844303857E-01  0.71528424094E-02  0.11876950196E-01  0.10205348533E+01  0.10202666583E+01 0.  0.
     999903    2    3    3    0    0 -0.62331962538E-01  0.56668988335E-01 -0.98739140914E-01  0.13116488262E+00  0.18925133853E-01 0.  0.
         14    1    1    2    0    0  0.18844303857E-01 -0.71528424094E-02 -0.11876950196E-01  0.23395146684E-01  0.00000000000E+00 0. -1.
     999901    1    3    3    0    0  0.43487658681E-01 -0.49516145925E-01  0.11061609111E+00  0.88936997070E+00  0.88000000000E+00 0. -1.
        -11    1    4    4    0    0 -0.29290622550E-01  0.14410520667E-01 -0.39508755730E-01  0.51252381170E-01  0.51100000000E-03 0. -1.
         11    1    4    4    0    0 -0.33041339988E-01  0.42258467668E-01 -0.59230385184E-01  0.79912501449E-01  0.51100000000E-03 0.  1.
</event>
<event>
 7    1  0.1051655E+005  0.1043930E+01  0.7957747E-01            NaN
         13   -1    0    0    0    0  0.00000000000E+00  0.00000000000E+00  0.74505805969E-08  0.10566000000E+00  0.10566000000E+00 0. -1.
     999900   -1    0    0    0    0 -0.00000000000E+00 -0.00000000000E+00 -0.74505805969E-08  0.93827000000E+00  0.93827000000E+00 0.  1.
     999902    2    1    2    0    0  0.18712323955E-01 -0.14695116841E-01 -0.35740240996E-02  0.10198702582E+01  0.10195864222E+01 0.  0.
         14    1    1    2    0    0 -0.18712323955E-01  0.14695116841E-01  0.35740240996E-02  0.24059741790E-01  0.00000000000E+00 0.  1.
     999901    1    3    3    0    0 -0.26681185198E-02 -0.12661826876E+00  0.42238154081E-01  0.89006930432E+00  0.88000000000E+00 0. -1.
        -11    1    3    3    0    0  0.13919969361E-01  0.62895944750E-01 -0.33412861070E-02  0.64506516933E-01  0.51100000000E-03 0.  1.
         11    1    3    3    0    0  0.74604731136E-02  0.49027207173E-01 -0.42470892073E-01  0.65294436951E-01  0.51100000000E-03 0. -1.
</event>
<event>
 8    1  0.1051655E+005  0.1043930E+01  0.7957747E-01            NaN
         13   -1    0    0    0    0  0.00000000000E+00  0.00000000000E+00  0.74505805969E-08  0.10566000000E+00  0.10566000000E+00 0.  1.
     999900   -1    0    0    0    0 -0.00000000000E+00 -0.00000000000E+00 -0.74505805969E-08  0.93827000000E+00  0.93827000000E+00 0.  1.
     999902    2    1    2    0    0  0.49054489320E-02  0.12325563598E-01  0.19761301695E-01  0.10201289078E+01  0.10198512129E+01 0.  0.
     999903    2    3    3    0    0 -0.98114857806E-01 -0.57611040848E-01  0.60625021010E-01  0.13042437489E+00  0.19737452835E-01 0.  0.
         14    1    1    2    0    0 -0.49054489320E-02 -0.12325563598E-01 -0.19761301695E-01  0.23801092242E-01  0.00000000000E+00 0. -1.
     999901    1    3    3    0    0  0.10302030674E+00  0.69936604446E-01 -0.40863719315E-01  0.88970453286E+00  0.88000000000E+00 0.  1.
        -11    1    4    4    0    0 -0.34499005692E-01 -0.20039347071E-01  0.32157296203E-01  0.51245581710E-01  0.51100000000E-03 0.  1.
         11    1    4    4    0    0 -0.63615852114E-01 -0.37571693777E-01  0.28467724807E-01  0.79178793184E-01  0.51100000000E-03 0. -1.
</event>
<event>
 8    1  0.1051655E+005  0.1043930E+01  0.7957747E-01            NaN
         13   -1    0    0    0    0  0.00000000000E+00  0.00000000000E+00  0.74505805969E-08  0.10566000000E+00  0.10566000000E+00 0.  1.
     999900   -1    0    0    0    0 -0.00000000000E+00 -0.00000000000E+00 -0.74505805969E-08  0.93827000000E+00  0.93827000000E+00 0. -1.
     999902    2    1    2    0    0  0.96345020212E-02 -0.20123141679E-01  0.56361802739E-02  0.10209184597E+01  0.10206590862E+01 0.  0.
     999903    2    3    3    0    0  0.83139980524E-01 -0.82035056724E-01 -0.60789136349E-01  0.13319752194E+00  0.20106065251E-01 0.  0.
         14    1    1    2    0    0 -0.96345020212E-02  0.20123141679E-01 -0.56361802739E-02  0.23011540329E-01  0.00000000000E+00 0. -1.
     999901    1    3    3    0    0 -0.73505478503E-01  0.61911915045E-01  0.66425316623E-01  0.88772093773E+00  0.88000000000E+00 0.  1.
        -11    1    4    4    0    0  0.36675860589E-01 -0.37861990144E-01 -0.16362146930E-01  0.55196286295E-01  0.51100000000E-03 0.  1.
         11    1    4    4    0    0  0.46464119935E-01 -0.44173066581E-01 -0.44426989420E-01  0.78001235647E-01  0.51100000000E-03 0. -1.
</event>
<event>
 8    1  0.1051655E+005  0.1043930E+01  0.7957747E-01            NaN
         13   -1    0    0    0    0  0.00000000000E+00  0.00000000000E+00  0.74505805969E-08  0.10566000000E+00  0.10566000000E+00 0. -1.
     999900   -1    0    0    0    0 -0.00000000000E+00 -0.00000000000E+00 -0.74505805969E-08  0.93827000000E+00  0.93827000000E+00 0.  1.
     999902    2    1    2    0    0  0.83452042512E-02  0.20032486187E-01 -0.83555898005E-02  0.10206757785E+01  0.10204108418E+01 0.  0.
     999903    2    3    3    0    0  0.44816730124E-01 -0.16742757173E-01 -0.12134874702E+00  0.13194069744E+00  0.19848678056E-01 0.  0.
         14    1    1    2    0    0 -0.83452042512E-02 -0.20032486187E-01  0.83555898005E-02  0.23254221504E-01  0.00000000000E+00 0. -1.
     999901    1    3    3    0    0 -0.36471525873E-01  0.36775243360E-01  0.11299315722E+00  0.88873508106E+00  0.88000000000E+00 0. -1.
        -11    1    4    4    0    0  0.14352533481E-01  0.15523814341E-02 -0.52623906803E-01  0.54570521288E-01  0.51100000000E-03 0.  1.
         11    1    4    4    0    0  0.30464196643E-01 -0.18295138607E-01 -0.68724840217E-01  0.77370176151E-01  0.51100000000E-03 0. -1.
</event>
<event>
 8    1  0.1051655E+005  0.1043930E+01  0.7957747E-01            NaN
         13   -1    0    0    0    0  0.00000000000E+00  0.00000000000E+00  0.74505805969E-08  0.10566000000E+00  0.10566000000E+00 0. -1.
     999900   -1    0    0    0    0 -0.00000000000E+00 -0.00000000000E+00 -0.74505805969E-08  0.93827000000E+00  0.93827000000E+00 0.  1.
     999902    2    1    2    0    0  0.10599301666E-01 -0.18659057565E-01  0.88306039606E-02  0.10207247163E+01  0.10204609063E+01 0.  0.
     999903    2    3    3    0    0 -0.11330089205E+00  0.51063700475E-01  0.28684233393E-01  0.12909324109E+00  0.19942066190E-01 0.  0.
         14    1    1    2    0    0 -0.10599301666E-01  0.18659057565E-01 -0.88306039606E-02  0.23205283694E-01  0.00000000000E+00 0.  1.
     999901    1    3    3    0    0  0.12390019372E+00 -0.69722758040E-01 -0.19853629432E-01  0.89163147521E+00  0.88000000000E+00 0.  1.
        -11    1    4    4    0    0 -0.59508094887E-01  0.30938974215E-01  0.24854799547E-01  0.71529404192E-01  0.51100000000E-03 0.  1.
         11    1    4    4    0    0 -0.53792797166E-01  0.20124726261E-01  0.38294338453E-02  0.57563836899E-01  0.51100000000E-03 0. -1.
</event>
<event>
 8    1  0.1051655E+005  0.1043930E+01  0.7957747E-01            NaN
         13   -1    0    0    0    0  0.00000000000E+00  0.00000000000E+00  0.74505805969E-08  0.10566000000E+00  0.10566000000E+00 0.  1.
     999900   -1    0    0    0    0 -0.00000000000E+00 -0.00000000000E+00 -0.74505805969E-08  0.93827000000E+00  0.93827000000E+00 0.  1.
     999902    2    1    2    0    0 -0.18143649774E-01  0.45895406361E-02  0.14951085897E-01  0.10199760675E+01  0.10196947521E+01 0.  0.
     999903    2    3    3    0    0 -0.48853351697E-01 -0.80930658547E-01 -0.86401543262E-01  0.12951037720E+00  0.19268877972E-01 0.  0.
         14    1    1    2    0    0  0.18143649774E-01 -0.45895406361E-02 -0.14951085897E-01  0.23953932451E-01  0.00000000000E+00 0. -1.
     999901    1    3    3    0    0  0.30709701923E-01  0.85520199183E-01  0.10135262916E+00  0.89046569035E+00  0.88000000000E+00 0. -1.
        -11    1    4    4    0    0 -0.12473900489E-01 -0.36149271346E-01 -0.41200529077E-01  0.56214879965E-01  0.51100000000E-03 0.  1.
         11    1    4    4    0    0 -0.36379451208E-01 -0.44781387201E-01 -0.45201014185E-01  0.73295497230E-01  0.51100000000E-03 0. -1.
</event>
<event>
 8    1  0.1051655E+005  0.1043930E+01  0.7957747E-01            NaN
         13   -1    0    0    0    0  0.00000000000E+00  0.00000000000E+00  0.74505805969E-08  0.10566000000E+00  0.10566000000E+00 0. -1.
     999900   -1    0    0    0    0 -0.00000000000E+00 -0.00000000000E+00 -0.74505805969E-08  0.93827000000E+00  0.93827000000E+00 0. -1.
     999902    2    1    2    0    0 -0.21944466819E-01  0.90811475226E-02 -0.25354659391E-05  0.10201807501E+01  0.10199042779E+01 0.  0.
     999903    2    3    3    0    0  0.12504098978E+00  0.84051069421E-02  0.14033192416E-01  0.12787912893E+00  0.21219005133E-01 0.  0.
         14    1    1    2    0    0  0.21944466819E-01 -0.90811475226E-02  0.25354659391E-05  0.23749249899E-01  0.00000000000E+00 0.  1.
     999901    1    3    3    0    0 -0.14698545660E+00  0.67604058045E-03 -0.14035727881E-01  0.89230162117E+00  0.88000000000E+00 0. -1.
        -11    1    4    4    0    0  0.65412263138E-01  0.24722550004E-02  0.17792784823E-01  0.67835982535E-01  0.51100000000E-03 0. -1.
         11    1    4    4    0    0  0.59628726644E-01  0.59328519417E-02 -0.37595924079E-02  0.60043146398E-01  0.51100000000E-03 0.  1.
</event>
<event>
 8    1  0.1051655E+005  0.1043930E+01  0.7957747E-01            NaN
         13   -1    0    0    0    0  0.00000000000E+00  0.00000000000E+00  0.74505805969E-08  0.10566000000E+00  0.10566000000E+00 0.  1.
     999900   -1    0    0    0    0 -0.00000000000E+00 -0.00000000000E+00 -0.74505805969E-08  0.93827000000E+00  0.93827000000E+00 0.  1.
     999902    2    1    2    0    0 -0.15059240653E-01  0.54412131684E-02  0.31110660617E-02  0.10276184623E+01  0.10274889964E+01 0.  0.
     999903    2    3    3    0    0  0.11611483045E+00  0.37097263730E-01 -0.55476807084E-01  0.13540700680E+00  0.19962979182E-01 0.  0.
         14    1    1    2    0    0  0.15059240653E-01 -0.54412131684E-02 -0.31110660617E-02  0.16311537690E-01  0.00000000000E+00 0. -1.
     999901    1    3    3    0    0 -0.13117407111E+00 -0.31656050561E-01  0.58587873146E-01  0.89221145551E+00  0.88000000000E+00 0. -1.
        -11    1    4    4    0    0  0.39643445991E-01  0.33698463854E-02 -0.14789943678E-01  0.42449525671E-01  0.51100000000E-03 0. -1.
         11    1    4    4    0    0  0.76471384463E-01  0.33727417344E-01 -0.40686863406E-01  0.92957481126E-01  0.51100000000E-03 0.  1.
</event>
<event>
 8    1  0.1051655E+005  0.1043930E+01  0.7957747E-01            NaN
         13   -1    0    0    0    0  0.00000000000E+00  0.00000000000E+00  0.74505805969E-08  0.10566000000E+00  0.10566000000E+00 0.  1.
     999900   -1    0    0    0    0 -0.00000000000E+00 -0.00000000000E+00 -0.74505805969E-08  0.93827000000E+00  0.93827000000E+00 0. -1.
     999902    2    1    2    0    0 -0.16039917522E-01 -0.14496873197E-01 -0.68792420208E-02  0.10212416273E+01  0.10209895685E+01 0.  0.
     999903    2    3    3    0    0  0.89586396846E-01 -0.51636025130E-02 -0.91990155273E-01  0.13079909920E+00  0.24368635456E-01 0.  0.
         14    1    1    2    0    0  0.16039917522E-01  0.14496873197E-01  0.68792420208E-02  0.22688372735E-01  0.00000000000E+00 0.  1.
     999901    1    3    3    0    0 -0.10562631437E+00 -0.93332706838E-02  0.85110913252E-01  0.89044252806E+00  0.88000000000E+00 0.  1.
        -11    1    4    4    0    0  0.53200170640E-01  0.84809173087E-02 -0.58100866744E-01  0.79234815277E-01  0.51100000000E-03 0. -1.
         11    1    4    4    0    0  0.36386226206E-01 -0.13644519822E-01 -0.33889288529E-01  0.51564283925E-01  0.51100000000E-03 0.  1.
</event>
<event>
 8    1  0.1051655E+005  0.1043930E+01  0.7957747E-01            NaN
         13   -1    0    0    0    0  0.00000000000E+00  0.00000000000E+00  0.74505805969E-08  0.10566000000E+00  0.10566000000E+00 0.  1.
     999900   -1    0    0    0    0 -0.00000000000E+00 -0.00000000000E+00 -0.74505805969E-08  0.93827000000E+00  0.93827000000E+00 0. -1.
     999902    2    1    2    0    0 -0.13655240193E-01  0.18692841864E-01 -0.42350690977E-02  0.10203965402E+01  0.10201251273E+01 0.  0.
     999903    2    3    3    0    0  0.64582943152E-01 -0.50190953763E-01  0.96779262529E-01  0.12850524307E+00  0.21384187038E-01 0.  0.
         14    1    1    2    0    0  0.13655240193E-01 -0.18692841864E-01  0.42350690977E-02  0.23533459838E-01  0.00000000000E+00 0. -1.
     999901    1    3    3    0    0 -0.78238183345E-01  0.68883795627E-01 -0.10101433163E+00  0.89189129709E+00  0.88000000000E+00 0. -1.
        -11    1    4    4    0    0  0.61372195396E-01 -0.42583327710E-01  0.78084846039E-01  0.10806197513E+00  0.51100000000E-03 0. -1.
         11    1    4    4    0    0  0.32107477567E-02 -0.76076260532E-02  0.18694416489E-01  0.20443267943E-01  0.51100000000E-03 0.  1.
</event>
<event>
 8    1  0.1051655E+005  0.1043930E+01  0.7957747E-01            NaN
         13   -1    0    0    0    0  0.00000000000E+00  0.00000000000E+00  0.74505805969E-08  0.10566000000E+00  0.10566000000E+00 0.  1.
     999900   -1    0    0    0    0 -0.00000000000E+00 -0.00000000000E+00 -0.74505805969E-08  0.93827000000E+00  0.93827000000E+00 0.  1.
     999902    2    1    2    0    0 -0.19466193356E-01  0.12295171049E-01 -0.15977466714E-04  0.10209060088E+01  0.10206463514E+01 0.  0.
     999903    2    3    3    0    0 -0.38668100561E-01  0.14356456825E-01 -0.12365220996E+00  0.13205344504E+00  0.21140327942E-01 0.  0.
         14    1    1    2    0    0  0.19466193356E-01 -0.12295171049E-01  0.15977466714E-04  0.23023991187E-01  0.00000000000E+00 0.  1.
     999901    1    3    3    0    0  0.19201907204E-01 -0.20612857767E-02  0.12363623249E+00  0.88885256377E+00  0.88000000000E+00 0. -1.
        -11    1    4    4    0    0 -0.34575122682E-01  0.37171476040E-02 -0.97624329566E-01  0.10363410220E+00  0.51100000000E-03 0.  1.
         11    1    4    4    0    0 -0.40929778785E-02  0.10639309221E-01 -0.26027880395E-01  0.28419342840E-01  0.51100000000E-03 0. -1.
</event>
<event>
 8    1  0.1051655E+005  0.1043930E+01  0.7957747E-01            NaN
         13   -1    0    0    0    0  0.00000000000E+00  0.00000000000E+00  0.74505805969E-08  0.10566000000E+00  0.10566000000E+00 0.  1.
     999900   -1    0    0    0    0 -0.00000000000E+00 -0.00000000000E+00 -0.74505805969E-08  0.93827000000E+00  0.93827000000E+00 0.  1.
     999902    2    1    2    0    0 -0.17544159716E-01  0.15410907272E-01 -0.30254232327E-02  0.10203833062E+01  0.10201115845E+01 0.  0.
     999903    2    3    3    0    0 -0.31656521982E-01  0.26073290285E-01  0.12301160158E+00  0.13122742740E+00  0.20170070107E-01 0.  0.
         14    1    1    2    0    0  0.17544159716E-01 -0.15410907272E-01  0.30254232327E-02  0.23546693798E-01  0.00000000000E+00 0.  1.
     999901    1    3    3    0    0  0.14112362265E-01 -0.10662383013E-01 -0.12603702482E+00  0.88915587880E+00  0.88000000000E+00 0.  1.
        -11    1    4    4    0    0 -0.81067209358E-02  0.11682868506E-02  0.90268665524E-02  0.12199559797E-01  0.51100000000E-03 0. -1.
         11    1    4    4    0    0 -0.23549801046E-01  0.24905003434E-01  0.11398473503E+00  0.11902786760E+00  0.51100000000E-03 0.  1.
</event>
<event>
 8    1  0.1051655E+005  0.1043930E+01  0.7957747E-01            NaN
         13   -1    0    0    0    0  0.00000000000E+00  0.00000000000E+00  0.74505805969E-08  0.10566000000E+00  0.10566000000E+00 0.  1.
     999900   -1    0    0    0    0 -0.00000000000E+00 -0.00000000000E+00 -0.74505805969E-08  0.93827000000E+00  0.93827000000E+00 0.  1.
     999902    2    1    2    0    0 -0.20664821540E-03  0.16901648850E-01 -0.16842419828E-01  0.10200684086E+01  0.10197892835E+01 0.  0.
     999903    2    3    3    0    0  0.56837644091E-01 -0.10226646475E+00  0.47488404475E-01  0.12788370491E+00  0.20252057271E-01 0.  0.
         14    1    1    2    0    0  0.20664821540E-03 -0.16901648850E-01  0.16842419828E-01  0.23861591376E-01  0.00000000000E+00 0.  1.
     999901    1    3    3    0    0 -0.57044292306E-01  0.11916811360E+00 -0.64330824303E-01  0.89218470371E+00  0.88000000000E+00 0. -1.
        -11    1    4    4    0    0  0.38319803920E-01 -0.84189565504E-01  0.41113916364E-01  0.10122700011E+00  0.51100000000E-03 0.  1.
         11    1    4    4    0    0  0.18517840171E-01 -0.18076899247E-01  0.63744881108E-02  0.26656704797E-01  0.51100000000E-03 0. -1.
</event>
<event>
 8    1  0.1051655E+005  0.1043930E+01  0.7957747E-01            NaN
         13   -1    0    0    0    0  0.00000000000E+00  0.00000000000E+00  0.74505805969E-08  0.10566000000E+00  0.10566000000E+00 0.  1.
     999900   -1    0    0    0    0 -0.00000000000E+00 -0.00000000000E+00 -0.74505805969E-08  0.93827000000E+00  0.93827000000E+00 0.  1.
     999902    2    1    2    0    0 -0.47294540714E-02  0.16783010956E-01 -0.13674564212E-01  0.10217707830E+01  0.10215304704E+01 0.  0.
     999903    2    3    3    0    0  0.10165151641E-01 -0.89601998137E-01  0.90297193832E-01  0.12916238849E+00  0.19937176564E-01 0.  0.
         14    1    1    2    0    0  0.47294540714E-02 -0.16783010956E-01  0.13674564212E-01  0.22159217020E-01  0.00000000000E+00 0.  1.
     999901    1    3    3    0    0 -0.14894605712E-01  0.10638500909E+00 -0.10397175804E+00  0.89260839449E+00  0.88000000000E+00 0.  1.
        -11    1    4    4    0    0 -0.52637894080E-02 -0.38600002822E-01  0.35087093644E-01  0.52431221216E-01  0.51100000000E-03 0.  1.
         11    1    4    4    0    0  0.15428941049E-01 -0.51001995315E-01  0.55210100188E-01  0.76731167277E-01  0.51100000000E-03 0. -1.
</event>
<event>
 8    1  0.1051655E+005  0.1043930E+01  0.7957747E-01            NaN
         13   -1    0    0    0    0  0.00000000000E+00  0.00000000000E+00  0.74505805969E-08  0.10566000000E+00  0.10566000000E+00 0.  1.
     999900   -1    0    0    0    0 -0.00000000000E+00 -0.00000000000E+00 -0.74505805969E-08  0.93827000000E+00  0.93827000000E+00 0.  1.
     999902    2    1    2    0    0 -0.12977161526E-01  0.35819080256E-02 -0.19553603564E-01  0.10201901559E+01  0.10199139052E+01 0.  0.
     999903    2    3    3    0    0  0.12669608049E+00 -0.31418679219E-02 -0.16445525496E-01  0.12914386985E+00  0.18598808172E-01 0.  0.
         14    1    1    2    0    0  0.12977161526E-01 -0.35819080256E-02  0.19553603564E-01  0.23739844117E-01  0.00000000000E+00 0. -1.
     999901    1    3    3    0    0 -0.13967324202E+00  0.67237759475E-02 -0.31080780683E-02  0.89104628603E+00  0.88000000000E+00 0. -1.
        -11    1    4    4    0    0  0.11941854061E+00  0.14636877284E-02 -0.14562066037E-01  0.12031311280E+00  0.51100000000E-03 0.  1.
         11    1    4    4    0    0  0.72775398801E-02 -0.46055556503E-02 -0.18834594591E-02  0.88307570507E-02  0.51100000000E-03 0. -1.
</event>
<event>
 8    1  0.1051655E+005  0.1043930E+01  0.7957747E-01            NaN
         13   -1    0    0    0    0  0.00000000000E+00  0.00000000000E+00  0.74505805969E-08  0.10566000000E+00  0.10566000000E+00 0. -1.
     999900   -1    0    0    0    0 -0.00000000000E+00 -0.00000000000E+00 -0.74505805969E-08  0.93827000000E+00  0.93827000000E+00 0. -1.
     999902    2    1    2    0    0 -0.23893349309E-01 -0.24967404114E-01  0.38844641584E-02  0.10091542546E+01  0.10085548855E+01 0.  0.
     999903    2    3    3    0    0 -0.42306645035E-01 -0.11343038764E+00 -0.19420141391E-01  0.12422044146E+00  0.19931661515E-01 0.  0.
         14    1    1    2    0    0  0.23893349309E-01  0.24967404114E-01 -0.38844641584E-02  0.34775745444E-01  0.00000000000E+00 0. -1.
     999901    1    3    3    0    0  0.18413295727E-01  0.88462983530E-01  0.23304605550E-01  0.88493381309E+00  0.88000000000E+00 0.  1.
        -11    1    4    4    0    0 -0.56932025281E-02 -0.42237121769E-01 -0.76034146442E-02  0.43295034884E-01  0.51100000000E-03 0.  1.
         11    1    4    4    0    0 -0.36613442507E-01 -0.71193265874E-01 -0.11816726747E-01  0.80925406579E-01  0.51100000000E-03 0. -1.
</event>
<event>
 8    1  0.1051655E+005  0.1043930E+01  0.7957747E-01            NaN
         13   -1    0    0    0    0  0.00000000000E+00  0.00000000000E+00  0.74505805969E-08  0.10566000000E+00  0.10566000000E+00 0. -1.
     999900   -1    0    0    0    0 -0.00000000000E+00 -0.00000000000E+00 -0.74505805969E-08  0.93827000000E+00  0.93827000000E+00 0.  1.
     999902    2    1    2    0    0 -0.54297522786E-03  0.16288160880E-01 -0.19847213500E-01  0.10182490559E+01  0.10179251588E+01 0.  0.
     999903    2    3    3    0    0  0.11732482952E+00 -0.14440239675E-01  0.43734537894E-01  0.12758655353E+00  0.19798552807E-01 0.  0.
         14    1    1    2    0    0  0.54297522786E-03 -0.16288160880E-01  0.19847213500E-01  0.25680944116E-01  0.00000000000E+00 0.  1.
     999901    1    3    3    0    0 -0.11786780474E+00  0.30728400555E-01 -0.63581751394E-01  0.89066250236E+00  0.88000000000E+00 0.  1.
        -11    1    4    4    0    0  0.72013396516E-01 -0.16073696692E-02  0.33251964146E-01  0.79337678032E-01  0.51100000000E-03 0. -1.
         11    1    4    4    0    0  0.45311433000E-01 -0.12832870006E-01  0.10482573748E-01  0.48248875494E-01  0.51100000000E-03 0.  1.
</event>
<event>
 8    1  0.1051655E+005  0.1043930E+01  0.7957747E-01            NaN
         13   -1    0    0    0    0  0.00000000000E+00  0.00000000000E+00  0.74505805969E-08  0.10566000000E+00  0.10566000000E+00 0. -1.
     999900   -1    0    0    0    0 -0.00000000000E+00 -0.00000000000E+00 -0.74505805969E-08  0.93827000000E+00  0.93827000000E+00 0.  1.
     999902    2    1    2    0    0 -0.18269207342E-01 -0.14879816323E-01 -0.28208859804E-02  0.10201996340E+01  0.10199236065E+01 0.  0.
     999903    2    3    3    0    0 -0.32304501398E-01  0.85500075404E-01 -0.90355843996E-01  0.13006735117E+00  0.19987335766E-01 0.  0.
         14    1    1    2    0    0  0.18269207342E-01  0.14879816323E-01  0.28208859804E-02  0.23730365956E-01  0.00000000000E+00 0.  1.
     999901    1    3    3    0    0  0.14035294056E-01 -0.10037989173E+00  0.87534958016E-01  0.89013228288E+00  0.88000000000E+00 0. -1.
        -11    1    4    4    0    0 -0.18733615531E-01  0.29656157760E-01 -0.25245373622E-01  0.43220666981E-01  0.51100000000E-03 0.  1.
         11    1    4    4    0    0 -0.13570885867E-01  0.55843917645E-01 -0.65110470374E-01  0.86846684188E-01  0.51100000000E-03 0. -1.
</event>
<event>
 8    1  0.1051655E+005  0.1043930E+01  0.7957747E-01            NaN
         13   -1    0    0    0    0  0.00000000000E+00  0.00000000000E+00  0.74505805969E-08  0.10566000000E+00  0.10566000000E+00 0. -1.
     999900   -1    0    0    0    0 -0.00000000000E+00 -0.00000000000E+00 -0.74505805969E-08  0.93827000000E+00  0.93827000000E+00 0.  1.
     999902    2    1    2    0    0 -0.11427212816E-01  0.18135247889E-01 -0.93353843726E-02  0.10205501409E+01  0.10202823003E+01 0.  0.
     999903    2    3    3    0    0 -0.12461377400E+00 -0.34514043734E-01  0.20452699174E-01  0.13124115331E+00  0.92798455914E-02 0.  0.
         14    1    1    2    0    0  0.11427212816E-01 -0.18135247889E-01  0.93353843726E-02  0.23379859070E-01  0.00000000000E+00 0. -1.
     999901    1    3    3    0    0  0.11318656118E+00  0.52649291624E-01 -0.29788083547E-01  0.88930898762E+00  0.88000000000E+00 0.  1.
        -11    1    4    4    0    0 -0.30451154567E-01 -0.12224521465E-01  0.68356852874E-02  0.33521626659E-01  0.51100000000E-03 0.  1.
         11    1    4    4    0    0 -0.94162619429E-01 -0.22289522270E-01  0.13617013887E-01  0.97719526651E-01  0.51100000000E-03 0. -1.
</event>
<event>
 8    1  0.1051655E+005  0.1043930E+01  0.7957747E-01            NaN
         13   -1    0    0    0    0  0.00000000000E+00  0.00000000000E+00  0.74505805969E-08  0.10566000000E+00  0.10566000000E+00 0. -1.
     999900   -1    0    0    0    0 -0.00000000000E+00 -0.00000000000E+00 -0.74505805969E-08  0.93827000000E+00  0.93827000000E+00 0.  1.
     999902    2    1    2    0    0  0.34081945488E-02 -0.13080903830E-01 -0.19257329451E-01  0.10204019195E+01  0.10201306322E+01 0.  0.
     999903    2    3    3    0    0 -0.37036681730E-01 -0.72495657613E-01 -0.10380068775E+00  0.13343321631E+00  0.20062509066E-01 0.  0.
         14    1    1    2    0    0 -0.34081945488E-02  0.13080903830E-01  0.19257329451E-01  0.23528080514E-01  0.00000000000E+00 0. -1.
     999901    1    3    3    0    0  0.40444876279E-01  0.59414753782E-01  0.84543358302E-01  0.88696870318E+00  0.88000000000E+00 0. -1.
        -11    1    4    4    0    0 -0.23894981855E-01 -0.45012119097E-01 -0.48816850437E-01  0.70571998917E-01  0.51100000000E-03 0. -1.
         11    1    4    4    0    0 -0.13141699875E-01 -0.27483538515E-01 -0.54983837316E-01  0.62861217391E-01  0.51100000000E-03 0.  1.
</event>
<event>
 8    1  0.1051655E+005  0.1043930E+01  0.7957747E-01            NaN
         13   -1    0    0    0    0  0.00000000000E+00  0.00000000000E+00  0.74505805969E-08  0.10566000000E+00  0.10566000000E+00 0.  1.
     999900   -1    0    0    0    0 -0.00000000000E+00 -0.00000000000E+00 -0.74505805969E-08  0.93827000000E+00  0.93827000000E+00 0.  1.
     999902    2    1    2    0    0 -0.13207098064E-01  0.81087658225E-02 -0.18132768743E-01  0.10200767649E+01  0.10197978375E+01 0.  0.
     999903    2    3    3    0    0  0.94753645368E-01 -0.11499062810E-01  0.82224113311E-01  0.12760183929E+00  0.20271724754E-01 0.  0.
         14    1    1    2    0    0  0.13207098064E-01 -0.81087658225E-02  0.18132768743E-01  0.23853235100E-01  0.00000000000E+00 0.  1.
     999901    1    3    3    0    0 -0.10796074343E+00  0.19607828632E-01 -0.10035688205E+00  0.89247492561E+00  0.88000000000E+00 0.  1.
        -11    1    4    4    0    0  0.59430961655E-01 -0.14264331809E-01  0.42934390096E-01  0.74693596373E-01  0.51100000000E-03 0.  1.
         11    1    4    4    0    0  0.35322683713E-01  0.27652689988E-02  0.39289723215E-01  0.52908242917E-01  0.51100000000E-03 0. -1.
</event>
<event>
 8    1  0.1051655E+005  0.1043930E+01  0.7957747E-01            NaN
         13   -1    0    0    0    0  0.00000000000E+00  0.00000000000E+00  0.74505805969E-08  0.10566000000E+00  0.10566000000E+00 0. -1.
     999900   -1    0    0    0    0 -0.00000000000E+00 -0.00000000000E+00 -0.74505805969E-08  0.93827000000E+00  0.93827000000E+00 0. -1.
     999902    2    1    2    0    0  0.11800238340E-01 -0.11870726135E-01 -0.22963263185E-01  0.10155139619E+01  0.10151163163E+01 0.  0.
     999903    2    3    3    0    0 -0.10290821516E+00  0.11721081555E-02 -0.71024382703E-01  0.12667313476E+00  0.20252050431E-01 0.  0.
         14    1    1    2    0    0 -0.11800238340E-01  0.11870726135E-01  0.22963263185E-01  0.28416038076E-01  0.00000000000E+00 0. -1.
     999901    1    3    3    0    0  0.11470845350E+00 -0.13042834291E-01  0.48061119518E-01  0.88884082717E+00  0.88000000000E+00 0.  1.
        -11    1    4    4    0    0 -0.77807344128E-01  0.88938138274E-02 -0.57281867619E-01  0.97028635998E-01  0.51100000000E-03 0. -1.
         11    1    4    4    0    0 -0.25100871028E-01 -0.77217056718E-02 -0.13742515084E-01  0.29644498759E-01  0.51100000000E-03 0.  1.
</event>
<event>
 8    1  0.1051655E+005  0.1043930E+01  0.7957747E-01            NaN
         13   -1    0    0    0    0  0.00000000000E+00  0.00000000000E+00  0.74505805969E-08  0.10566000000E+00  0.10566000000E+00 0. -1.
     999900   -1    0    0    0    0 -0.00000000000E+00 -0.00000000000E+00 -0.74505805969E-08  0.93827000000E+00  0.93827000000E+00 0.  1.
     999902    2    1    2    0    0 -0.19860058535E-01  0.67938102328E-02 -0.10766149270E-01  0.10203400074E+01  0.10200672737E+01 0.  0.
     999903    2    3    3    0    0  0.10991174243E+00  0.42036681039E-01 -0.49361274318E-01  0.12928873839E+00  0.20769419726E-01 0.  0.
         14    1    1    2    0    0  0.19860058535E-01 -0.67938102328E-02  0.10766149270E-01  0.23589992637E-01  0.00000000000E+00 0. -1.
     999901    1    3    3    0    0 -0.12977180096E+00 -0.35242870806E-01  0.38595125048E-01  0.89105126898E+00  0.88000000000E+00 0.  1.
        -11    1    4    4    0    0  0.21443907120E-01  0.13139971411E-01 -0.30650990681E-02  0.25340796249E-01  0.51100000000E-03 0.  1.
         11    1    4    4    0    0  0.88467835305E-01  0.28896709627E-01 -0.46296175250E-01  0.10394794214E+00  0.51100000000E-03 0. -1.
</event>
<event>
 8    1  0.1051655E+005  0.1043930E+01  0.7957747E-01            NaN
         13   -1    0    0    0    0  0.00000000000E+00  0.00000000000E+00  0.74505805969E-08  0.10566000000E+00  0.10566000000E+00 0.  1.
     999900   -1    0    0    0    0 -0.00000000000E+00 -0.00000000000E+00 -0.74505805969E-08  0.93827000000E+00  0.93827000000E+00 0.  1.
     999902    2    1    2    0    0  0.20175402892E-01 -0.74800885546E-02  0.66186947217E-03  0.10224024205E+01  0.10221757544E+01 0.  0.
     999903    2    3    3    0    0 -0.98034076548E-01 -0.44551204807E-01 -0.71503193471E-01  0.13079962500E+00  0.20008628362E-01 0.  0.
         14    1    1    2    0    0 -0.20175402892E-01  0.74800885546E-02 -0.66186947217E-03  0.21527579470E-01  0.00000000000E+00 0. -1.
     999901    1    3    3    0    0  0.11820947944E+00  0.37071116253E-01  0.72165062943E-01  0.89160279553E+00  0.88000000000E+00 0.  1.
        -11    1    4    4    0    0 -0.91348350168E-01 -0.41208053022E-01 -0.59197853229E-01  0.11639274746E+00  0.51100000000E-03 0.  1.
         11    1    4    4    0    0 -0.66857263803E-02 -0.33431517848E-02 -0.12305340242E-01  0.14406877544E-01  0.51100000000E-03 0. -1.
</event>
<event>
 8    1  0.1051655E+005  0.1043930E+01  0.7957747E-01            NaN
         13   -1    0    0    0    0  0.00000000000E+00  0.00000000000E+00  0.74505805969E-08  0.10566000000E+00  0.10566000000E+00 0.  1.
     999900   -1    0    0    0    0 -0.00000000000E+00 -0.00000000000E+00 -0.74505805969E-08  0.93827000000E+00  0.93827000000E+00 0.  1.
     999902    2    1    2    0    0  0.18883432779E-01  0.80569447312E-03 -0.14341054609E-01  0.10202045069E+01  0.10199285940E+01 0.  0.
     999903    2    3    3    0    0 -0.55955656764E-01  0.82496167857E-01  0.78530717833E-01  0.12840890872E+00  0.19624498955E-01 0.  0.
         14    1    1    2    0    0 -0.18883432779E-01 -0.80569447312E-03  0.14341054609E-01  0.23725493133E-01  0.00000000000E+00 0.  1.
     999901    1    3    3    0    0  0.74839089544E-01 -0.81690473384E-01 -0.92871772441E-01  0.89179559815E+00  0.88000000000E+00 0.  1.
        -11    1    4    4    0    0 -0.52682923170E-01  0.73254934824E-01  0.63053170416E-01  0.11008060361E+00  0.51100000000E-03 0. -1.
         11    1    4    4    0    0 -0.32727335940E-02  0.92412330330E-02  0.15477547417E-01  0.18328305109E-01  0.51100000000E-03 0.  1.
</event>
<event>
 8    1  0.1051655E+005  0.1043930E+01  0.7957747E-01            NaN
         13   -1    0    0    0    0  0.00000000000E+00  0.00000000000E+00  0.74505805969E-08  0.10566000000E+00  0.10566000000E+00 0. -1.
     999900   -1    0    0    0    0 -0.00000000000E+00 -0.00000000000E+00 -0.74505805969E-08  0.93827000000E+00  0.93827000000E+00 0.  1.
     999902    2    1    2    0    0  0.10049788475E-01  0.19689774512E-01 -0.57527022532E-02  0.10210875165E+01  0.10208319829E+01 0.  0.
     999903    2    3    3    0    0  0.11370855783E+00  0.45088897155E-01  0.47309382332E-01  0.13305269697E+00  0.22409768972E-01 0.  0.
         14    1    1    2    0    0 -0.10049788475E-01 -0.19689774512E-01  0.57527022532E-02  0.22842483489E-01  0.00000000000E+00 0. -1.
     999901    1    3    3    0    0 -0.10365876935E+00 -0.25399122642E-01 -0.53062084585E-01  0.88803481954E+00  0.88000000000E+00 0.  1.
        -11    1    4    4    0    0  0.65712617204E-01  0.34545580995E-01  0.36527065472E-01  0.82740756941E-01  0.51100000000E-03 0.  1.
         11    1    4    4    0    0  0.47995940622E-01  0.10543316159E-01  0.10782316859E-01  0.50311940031E-01  0.51100000000E-03 0. -1.
</event>
<event>
 8    1  0.1051655E+005  0.1043930E+01  0.7957747E-01            NaN
         13   -1    0    0    0    0  0.00000000000E+00  0.00000000000E+00  0.74505805969E-08  0.10566000000E+00  0.10566000000E+00 0.  1.
     999900   -1    0    0    0    0 -0.00000000000E+00 -0.00000000000E+00 -0.74505805969E-08  0.93827000000E+00  0.93827000000E+00 0.  1.
     999902    2    1    2    0    0  0.49513747862E-02 -0.25469108873E-02 -0.23036531571E-01  0.10202301128E+01  0.10199548021E+01 0.  0.
     999903    2    3    3    0    0  0.60988193491E-01 -0.10872548965E+00 -0.38056739654E-01  0.13195109001E+00  0.20542221860E-01 0.  0.
         14    1    1    2    0    0 -0.49513747862E-02  0.25469108873E-02  0.23036531571E-01  0.23699887218E-01  0.00000000000E+00 0.  1.
     999901    1    3    3    0    0 -0.56036818705E-01  0.10617857876E+00  0.15020208083E-01  0.88827902277E+00  0.88000000000E+00 0. -1.
        -11    1    4    4    0    0  0.49973412903E-01 -0.76937006489E-01 -0.20527783659E-01  0.94012211907E-01  0.51100000000E-03 0.  1.
         11    1    4    4    0    0  0.11014780588E-01 -0.31788483156E-01 -0.17528955995E-01  0.37938878108E-01  0.51100000000E-03 0. -1.
</event>
<event>
 8    1  0.1051655E+005  0.1043930E+01  0.7957747E-01            NaN
         13   -1    0    0    0    0  0.00000000000E+00  0.00000000000E+00  0.74505805969E-08  0.10566000000E+00  0.10566000000E+00 0. -1.
     999900   -1    0    0    0    0 -0.00000000000E+00 -0.00000000000E+00 -0.74505805969E-08  0.93827000000E+00  0.93827000000E+00 0. -1.
     999902    2    1    2    0    0 -0.64686966424E-03  0.16121540148E-01 -0.17540251184E-01  0.10200976080E+01  0.10198191736E+01 0.  0.
     999903    2    3    3    0    0 -0.10389549254E+00  0.77068452536E-01  0.11226283310E-01  0.13150190816E+00  0.20806313168E-01 0.  0.
         14    1    1    2    0    0  0.64686966424E-03 -0.16121540148E-01  0.17540251184E-01  0.23832392005E-01  0.00000000000E+00 0. -1.
     999901    1    3    3    0    0  0.10324862287E+00 -0.60946912388E-01 -0.28766534494E-01  0.88859569983E+00  0.88000000000E+00 0. -1.
        -11    1    4    4    0    0 -0.81564211054E-01  0.61756146643E-01  0.17268225206E-01  0.10375449338E+00  0.51100000000E-03 0.  1.
         11    1    4    4    0    0 -0.22331281482E-01  0.15312305893E-01 -0.60419418961E-02  0.27747414785E-01  0.51100000000E-03 0. -1.
</event>
<event>
 8    1  0.1051655E+005  0.1043930E+01  0.7957747E-01            NaN
         13   -1    0    0    0    0  0.00000000000E+00  0.00000000000E+00  0.74505805969E-08  0.10566000000E+00  0.10566000000E+00 0.  1.
     999900   -1    0    0    0    0 -0.00000000000E+00 -0.00000000000E+00 -0.74505805969E-08  0.93827000000E+00  0.93827000000E+00 0.  1.
     999902    2    1    2    0    0 -0.24062754856E-01  0.12441453812E-02  0.23468155354E-02  0.10197210840E+01  0.10194336749E+01 0.  0.
     999903    2    3    3    0    0 -0.35984652386E-01  0.41958757390E-01 -0.11660375353E+00  0.13070530850E+00  0.20784845511E-01 0.  0.
         14    1    1    2    0    0  0.24062754856E-01 -0.12441453812E-02 -0.23468155354E-02  0.24208915964E-01  0.00000000000E+00 0.  1.
     999901    1    3    3    0    0  0.11921897530E-01 -0.40714612008E-01  0.11895056907E+00  0.88901577554E+00  0.88000000000E+00 0. -1.
        -11    1    4    4    0    0 -0.26750118132E-01  0.38011939924E-01 -0.77881995053E-01  0.90699187821E-01  0.51100000000E-03 0.  1.
         11    1    4    4    0    0 -0.92345342540E-02  0.39468174656E-02 -0.38721758479E-01  0.40006120678E-01  0.51100000000E-03 0. -1.
</event>
<event>
 8    1  0.1051655E+005  0.1043930E+01  0.7957747E-01            NaN
         13   -1    0    0    0    0  0.00000000000E+00  0.00000000000E+00  0.74505805969E-08  0.10566000000E+00  0.10566000000E+00 0.  1.
     999900   -1    0    0    0    0 -0.00000000000E+00 -0.00000000000E+00 -0.74505805969E-08  0.93827000000E+00  0.93827000000E+00 0. -1.
     999902    2    1    2    0    0 -0.25968908646E-01  0.72843444633E-02 -0.16819907340E-01  0.10121439154E+01  0.10116446759E+01 0.  0.
     999903    2    3    3    0    0  0.45595388609E-01 -0.33298740466E-01  0.10439705121E+00  0.12003294336E+00  0.17928123459E-01 0.  0.
         14    1    1    2    0    0  0.25968908646E-01 -0.72843444633E-02  0.16819907340E-01  0.31786084589E-01  0.00000000000E+00 0. -1.
     999901    1    3    3    0    0 -0.71564297255E-01  0.40583084929E-01 -0.12121695855E+00  0.89211097206E+00  0.88000000000E+00 0. -1.
        -11    1    4    4    0    0  0.58908788405E-02 -0.82200569106E-02  0.33456527103E-01  0.34955287381E-01  0.51100000000E-03 0. -1.
         11    1    4    4    0    0  0.39704509769E-01 -0.25078683555E-01  0.70940524104E-01  0.85077655974E-01  0.51100000000E-03 0.  1.
</event>
<event>
 8    1  0.1051655E+005  0.1043930E+01  0.7957747E-01            NaN
         13   -1    0    0    0    0  0.00000000000E+00  0.00000000000E+00  0.74505805969E-08  0.10566000000E+00  0.10566000000E+00 0. -1.
     999900   -1    0    0    0    0 -0.00000000000E+00 -0.00000000000E+00 -0.74505805969E-08  0.93827000000E+00  0.93827000000E+00 0.  1.
     999902    2    1    2    0    0  0.18504317222E-01  0.11188648609E-01  0.93113672223E-02  0.10203864834E+01  0.10201148359E+01 0.  0.
     999903    2    3    3    0    0  0.96967077338E-01 -0.60258259296E-01 -0.61361083611E-01  0.13119828023E+00  0.20350288780E-01 0.  0.
         14    1    1    2    0    0 -0.18504317222E-01 -0.11188648609E-01 -0.93113672223E-02  0.23543516583E-01  0.00000000000E+00 0. -1.
     999901    1    3    3    0    0 -0.78462760116E-01  0.71446907905E-01  0.70672450833E-01  0.88918820318E+00  0.88000000000E+00 0. -1.
        -11    1    4    4    0    0  0.70095495545E-01 -0.53507187709E-01 -0.48586380009E-01  0.10068413517E+00  0.51100000000E-03 0. -1.
         11    1    4    4    0    0  0.26871581793E-01 -0.67510715873E-02 -0.12774703602E-01  0.30514145060E-01  0.51100000000E-03 0.  1.
</event>
<event>
 8    1  0.1051655E+005  0.1043930E+01  0.7957747E-01            NaN
         13   -1    0    0    0    0  0.00000000000E+00  0.00000000000E+00  0.74505805969E-08  0.10566000000E+00  0.10566000000E+00 0.  1.
     999900   -1    0    0    0    0 -0.00000000000E+00 -0.00000000000E+00 -0.74505805969E-08  0.93827000000E+00  0.93827000000E+00 0. -1.
     999902    2    1    2    0    0  0.10810724378E-01 -0.17105560803E-01  0.11188556976E-01  0.10208073752E+01  0.10205454627E+01 0.  0.
     999903    2    3    3    0    0 -0.49218166336E-01 -0.86972712200E-01 -0.82387009938E-01  0.13106512413E+00  0.20093949106E-01 0.  0.
         14    1    1    2    0    0 -0.10810724378E-01  0.17105560803E-01 -0.11188556976E-01  0.23122624833E-01  0.00000000000E+00 0. -1.
     999901    1    3    3    0    0  0.60028890714E-01  0.69867151397E-01  0.93575566913E-01  0.88974225104E+00  0.88000000000E+00 0.  1.
        -11    1    4    4    0    0 -0.41499625348E-01 -0.54898745237E-01 -0.58616498576E-01  0.90400476541E-01  0.51100000000E-03 0.  1.
         11    1    4    4    0    0 -0.77185409884E-02 -0.32073966964E-01 -0.23770511361E-01  0.40664647584E-01  0.51100000000E-03 0. -1.
</event>
<event>
 8    1  0.1051655E+005  0.1043930E+01  0.7957747E-01            NaN
         13   -1    0    0    0    0  0.00000000000E+00  0.00000000000E+00  0.74505805969E-08  0.10566000000E+00  0.10566000000E+00 0. -1.
     999900   -1    0    0    0    0 -0.00000000000E+00 -0.00000000000E+00 -0.74505805969E-08  0.93827000000E+00  0.93827000000E+00 0.  1.
     999902    2    1    2    0    0  0.12413364997E-01  0.10960031322E-01  0.16678699346E-01  0.10204269592E+01  0.10201562557E+01 0.  0.
     999903    2    3    3    0    0 -0.38489898501E-01  0.11622339409E+00  0.44764856283E-01  0.13224885202E+00  0.22282658772E-01 0.  0.
         14    1    1    2    0    0 -0.12413364997E-01 -0.10960031322E-01 -0.16678699346E-01  0.23503040846E-01  0.00000000000E+00 0.  1.
     999901    1    3    3    0    0  0.50903263498E-01 -0.10526336277E+00 -0.28086156937E-01  0.88817810713E+00  0.88000000000E+00 0.  1.
        -11    1    4    4    0    0 -0.22610291618E-01  0.91861647127E-01  0.27921257890E-01  0.98638964223E-01  0.51100000000E-03 0. -1.
         11    1    4    4    0    0 -0.15879606883E-01  0.24361746967E-01  0.16843598393E-01  0.33609887799E-01  0.51100000000E-03 0.  1.
</event>
<event>
 8    1  0.1051655E+005  0.1043930E+01  0.7957747E-01            NaN
         13   -1    0    0    0    0  0.00000000000E+00  0.00000000000E+00  0.74505805969E-08  0.10566000000E+00  0.10566000000E+00 0.  1.
     999900   -1    0    0    0    0 -0.00000000000E+00 -0.00000000000E+00 -0.74505805969E-08  0.93827000000E+00  0.93827000000E+00 0. -1.
     999902    2    1    2    0    0 -0.10272342994E-01 -0.19379063245E-01  0.15520775425E-01  0.10170606198E+01  0.10167056313E+01 0.  0.
     999903    2    3    3    0    0  0.63035176238E-01 -0.11095075404E+00  0.16891700843E-02  0.12916947768E+00  0.19959894911E-01 0.  0.
         14    1    1    2    0    0  0.10272342994E-01  0.19379063245E-01 -0.15520775425E-01  0.26869380206E-01  0.00000000000E+00 0. -1.
     999901    1    3    3    0    0 -0.73307519232E-01  0.91571690792E-01  0.13831605341E-01  0.88789114211E+00  0.88000000000E+00 0.  1.
        -11    1    4    4    0    0  0.36374469723E-01 -0.80664021629E-01 -0.30455751810E-02  0.88539951898E-01  0.51100000000E-03 0.  1.
         11    1    4    4    0    0  0.26660706515E-01 -0.30286732409E-01  0.47347452653E-02  0.40629525786E-01  0.51100000000E-03 0. -1.
</event>
<event>
 8    1  0.1051655E+005  0.1043930E+01  0.7957747E-01            NaN
         13   -1    0    0    0    0  0.00000000000E+00  0.00000000000E+00  0.74505805969E-08  0.10566000000E+00  0.10566000000E+00 0.  1.
     999900   -1    0    0    0    0 -0.00000000000E+00 -0.00000000000E+00 -0.74505805969E-08  0.93827000000E+00  0.93827000000E+00 0.  1.
     999902    2    1    2    0    0  0.82826455821E-02 -0.19276780051E-01  0.10173653531E-01  0.10206126311E+01  0.10203462368E+01 0.  0.
     999903    2    3    3    0    0  0.95252139214E-02 -0.12326918725E+00 -0.44317990242E-01  0.13281462254E+00  0.19738730342E-01 0.  0.
         14    1    1    2    0    0 -0.82826455821E-02  0.19276780051E-01 -0.10173653531E-01  0.23317368916E-01  0.00000000000E+00 0. -1.
     999901    1    3    3    0    0 -0.12425683393E-02  0.10399240720E+00  0.54491643773E-01  0.88779800854E+00  0.88000000000E+00 0. -1.
        -11    1    4    4    0    0 -0.11508196459E-03 -0.91157310265E-01 -0.37642513571E-01  0.98624988758E-01  0.51100000000E-03 0.  1.
         11    1    4    4    0    0  0.96402958860E-02 -0.32111876988E-01 -0.66754766709E-02  0.34189633783E-01  0.51100000000E-03 0. -1.
</event>
<event>
 8    1  0.1051655E+005  0.1043930E+01  0.7957747E-01            NaN
         13   -1    0    0    0    0  0.00000000000E+00  0.00000000000E+00  0.74505805969E-08  0.10566000000E+00  0.10566000000E+00 0. -1.
     999900   -1    0    0    0    0 -0.00000000000E+00 -0.00000000000E+00 -0.74505805969E-08  0.93827000000E+00  0.93827000000E+00 0. -1.
     999902    2    1    2    0    0  0.22920855154E-01 -0.87079191343E-02 -0.34026350329E-02  0.10191757805E+01  0.10188751151E+01 0.  0.
     999903    2    3    3    0    0  0.90338710627E-01  0.61798062222E-01 -0.69878436004E-01  0.13129330364E+00  0.19361111290E-01 0.  0.
         14    1    1    2    0    0 -0.22920855154E-01  0.87079191343E-02  0.34026350329E-02  0.24754219475E-01  0.00000000000E+00 0. -1.
     999901    1    3    3    0    0 -0.67417855473E-01 -0.70505981357E-01  0.66475800971E-01  0.88788247688E+00  0.88000000000E+00 0.  1.
        -11    1    4    4    0    0  0.58077706839E-01  0.38682347379E-01 -0.33311741892E-01  0.77325786769E-01  0.51100000000E-03 0.  1.
         11    1    4    4    0    0  0.32261003788E-01  0.23115714843E-01 -0.36566694112E-01  0.53967516872E-01  0.51100000000E-03 0. -1.
</event>
<event>
 8    1  0.1051655E+005  0.1043930E+01  0.7957747E-01            NaN
         13   -1    0    0    0    0  0.00000000000E+00  0.00000000000E+00  0.74505805969E-08  0.10566000000E+00  0.10566000000E+00 0. -1.
     999900   -1    0    0    0    0 -0.00000000000E+00 -0.00000000000E+00 -0.74505805969E-08  0.93827000000E+00  0.93827000000E+00 0. -1.
     999902    2    1    2    0    0  0.20191805742E-01  0.10737140400E-01 -0.24090499568E-02  0.10209343760E+01  0.10206753653E+01 0.  0.
     999903    2    3    3    0    0 -0.97637525137E-01  0.45791191454E-02  0.81865840978E-01  0.12906895468E+00  0.20067996819E-01 0.  0.
         14    1    1    2    0    0 -0.20191805742E-01 -0.10737140400E-01  0.24090499568E-02  0.22995624035E-01  0.00000000000E+00 0. -1.
     999901    1    3    3    0    0  0.11782933088E+00  0.61580212543E-02 -0.84274890935E-01  0.89186542128E+00  0.88000000000E+00 0. -1.
        -11    1    4    4    0    0 -0.78724910255E-01  0.35908183278E-02  0.54628836398E-01  0.95890960774E-01  0.51100000000E-03 0. -1.
         11    1    4    4    0    0 -0.18912614881E-01  0.98830081754E-03  0.27237004580E-01  0.33177993907E-01  0.51100000000E-03 0.  1.
</event>
<event>
 8    1  0.1051655E+005  0.1043930E+01  0.7957747E-01            NaN
         13   -1    0    0    0    0  0.00000000000E+00  0.00000000000E+00  0.74505805969E-08  0.10566000000E+00  0.10566000000E+00 0. -1.
     999900   -1    0    0    0    0 -0.00000000000E+00 -0.00000000000E+00 -0.74505805969E-08  0.93827000000E+00  0.93827000000E+00 0. -1.
     999902    2    1    2    0    0  0.11213448116E-01  0.20076813989E-01 -0.57870587600E-02  0.10202169250E+01  0.10199413042E+01 0.  0.
     999903    2    3    3    0    0 -0.11507903486E+00 -0.31518631084E-01  0.42807034038E-01  0.12837990675E+00  0.20306401043E-01 0.  0.
         14    1    1    2    0    0 -0.11213448116E-01 -0.20076813989E-01  0.57870587600E-02  0.23713075037E-01  0.00000000000E+00 0. -1.
     999901    1    3    3    0    0  0.12629248298E+00  0.51595445072E-01 -0.48594092798E-01  0.89183701822E+00  0.88000000000E+00 0. -1.
        -11    1    4    4    0    0 -0.32186325391E-01 -0.16040255873E-01  0.64045208377E-02  0.36531197062E-01  0.51100000000E-03 0.  1.
         11    1    4    4    0    0 -0.82892709469E-01 -0.15478375211E-01  0.36402513200E-01  0.91848709683E-01  0.51100000000E-03 0. -1.
</event>
<event>
 8    1  0.1051655E+005  0.1043930E+01  0.7957747E-01            NaN
         13   -1    0    0    0    0  0.00000000000E+00  0.00000000000E+00  0.74505805969E-08  0.10566000000E+00  0.10566000000E+00 0. -1.
     999900   -1    0    0    0    0 -0.00000000000E+00 -0.00000000000E+00 -0.74505805969E-08  0.93827000000E+00  0.93827000000E+00 0. -1.
     999902    2    1    2    0    0  0.86450213680E-02  0.22129180698E-01  0.57577058837E-03  0.10201651406E+01  0.10198883005E+01 0.  0.
     999903    2    3    3    0    0 -0.97649712848E-01  0.79311343069E-01 -0.32418652612E-01  0.13131363317E+00  0.19145382208E-01 0.  0.
         14    1    1    2    0    0 -0.86450213680E-02 -0.22129180698E-01 -0.57577058837E-03  0.23764859448E-01  0.00000000000E+00 0.  1.
     999901    1    3    3    0    0  0.10629473422E+00 -0.57182162370E-01  0.32994423201E-01  0.88885150738E+00  0.88000000000E+00 0.  1.
        -11    1    4    4    0    0 -0.75237804486E-01  0.66303366733E-01 -0.32419677351E-01  0.10539525732E+00  0.51100000000E-03 0. -1.
         11    1    4    4    0    0 -0.22411908363E-01  0.13007976335E-01  0.10247391176E-05  0.25918375853E-01  0.51100000000E-03 0.  1.
</event>
<event>
 8    1  0.1051655E+005  0.1043930E+01  0.7957747E-01            NaN
         13   -1    0    0    0    0  0.00000000000E+00  0.00000000000E+00  0.74505805969E-08  0.10566000000E+00  0.10566000000E+00 0.  1.
     999900   -1    0    0    0    0 -0.00000000000E+00 -0.00000000000E+00 -0.74505805969E-08  0.93827000000E+00  0.93827000000E+00 0. -1.
     999902    2    1    2    0    0  0.15597459969E-01 -0.62550453580E-02  0.17408608800E-01  0.10197335951E+01  0.10194464866E+01 0.  0.
     999903    2    3    3    0    0  0.46847330795E-01  0.68034379764E-01 -0.96641288353E-01  0.12872133247E+00  0.20156725562E-01 0.  0.
         14    1    1    2    0    0 -0.15597459969E-01  0.62550453580E-02 -0.17408608800E-01  0.24196404904E-01  0.00000000000E+00 0. -1.
     999901    1    3    3    0    0 -0.31249870826E-01 -0.74289425122E-01  0.11404989715E+00  0.89101226263E+00  0.88000000000E+00 0. -1.
        -11    1    4    4    0    0  0.25979358214E-01  0.23299966020E-01 -0.48642862937E-01  0.59868227847E-01  0.51100000000E-03 0. -1.
         11    1    4    4    0    0  0.20867972581E-01  0.44734413744E-01 -0.47998425415E-01  0.68853104622E-01  0.51100000000E-03 0.  1.
</event>
<event>
 8    1  0.1051655E+005  0.1043930E+01  0.7957747E-01            NaN
         13   -1    0    0    0    0  0.00000000000E+00  0.00000000000E+00  0.74505805969E-08  0.10566000000E+00  0.10566000000E+00 0.  1.
     999900   -1    0    0    0    0 -0.00000000000E+00 -0.00000000000E+00 -0.74505805969E-08  0.93827000000E+00  0.93827000000E+00 0.  1.
     999902    2    1    2    0    0  0.17497949139E-01  0.15788629346E-01 -0.34129112828E-02  0.10201159914E+01  0.10198379915E+01 0.  0.
     999903    2    3    3    0    0 -0.79849143947E-01 -0.78703619961E-01  0.58062154015E-01  0.12760020705E+00  0.18451382799E-01 0.  0.
         14    1    1    2    0    0 -0.17497949139E-01 -0.15788629346E-01  0.34129112828E-02  0.23814008569E-01  0.00000000000E+00 0.  1.
     999901    1    3    3    0    0  0.97347093086E-01  0.94492249307E-01 -0.61475065297E-01  0.89251578438E+00  0.88000000000E+00 0.  1.
        -11    1    4    4    0    0 -0.42491267105E-01 -0.31819046911E-01  0.33754935066E-01  0.62909588210E-01  0.51100000000E-03 0. -1.
         11    1    4    4    0    0 -0.37357876842E-01 -0.46884573050E-01  0.24307218948E-01  0.64690618843E-01  0.51100000000E-03 0.  1.
</event>
<event>
 8    1  0.1051655E+005  0.1043930E+01  0.7957747E-01            NaN
         13   -1    0    0    0    0  0.00000000000E+00  0.00000000000E+00  0.74505805969E-08  0.10566000000E+00  0.10566000000E+00 0.  1.
     999900   -1    0    0    0    0 -0.00000000000E+00 -0.00000000000E+00 -0.74505805969E-08  0.93827000000E+00  0.93827000000E+00 0. -1.
     999902    2    1    2    0    0  0.17315252218E-01  0.40514775416E-02 -0.14882287493E-01  0.10207413193E+01  0.10204778910E+01 0.  0.
     999903    2    3    3    0    0 -0.55234722630E-01 -0.86619576747E-01 -0.78735933061E-01  0.13081883564E+00  0.18984070810E-01 0.  0.
         14    1    1    2    0    0 -0.17315252218E-01 -0.40514775416E-02  0.14882287493E-01  0.23188680659E-01  0.00000000000E+00 0. -1.
     999901    1    3    3    0    0  0.72549974849E-01  0.90671054289E-01  0.63853645568E-01  0.88992248370E+00  0.88000000000E+00 0. -1.
        -11    1    4    4    0    0 -0.26280858370E-01 -0.52107812667E-01 -0.35127241224E-01  0.68118219697E-01  0.51100000000E-03 0. -1.
         11    1    4    4    0    0 -0.28953864260E-01 -0.34511764080E-01 -0.43608691838E-01  0.62700615948E-01  0.51100000000E-03 0.  1.
</event>
<event>
 8    1  0.1051655E+005  0.1043930E+01  0.7957747E-01            NaN
         13   -1    0    0    0    0  0.00000000000E+00  0.00000000000E+00  0.74505805969E-08  0.10566000000E+00  0.10566000000E+00 0. -1.
     999900   -1    0    0    0    0 -0.00000000000E+00 -0.00000000000E+00 -0.74505805969E-08  0.93827000000E+00  0.93827000000E+00 0. -1.
     999902    2    1    2    0    0  0.15854056895E-01 -0.10937371711E-01 -0.12147645794E-01  0.10211584713E+01  0.10209045406E+01 0.  0.
     999903    2    3    3    0    0  0.42847631855E-01  0.33259438862E-01 -0.11987648947E+00  0.13307766705E+00  0.19929448318E-01 0.  0.
         14    1    1    2    0    0 -0.15854056895E-01  0.10937371711E-01  0.12147645794E-01  0.22771528678E-01  0.00000000000E+00 0. -1.
     999901    1    3    3    0    0 -0.26993574960E-01 -0.44196810573E-01  0.10772884368E+00  0.88808080427E+00  0.88000000000E+00 0.  1.
        -11    1    4    4    0    0  0.10248666609E-01 -0.10478809622E-02 -0.18039914312E-01  0.20780588325E-01  0.51100000000E-03 0. -1.
         11    1    4    4    0    0  0.32598965246E-01  0.34307319824E-01 -0.10183657516E+00  0.11229707873E+00  0.51100000000E-03 0.  1.
</event>
<event>
 8    1  0.1051655E+005  0.1043930E+01  0.7957747E-01            NaN
         13   -1    0    0    0    0  0.00000000000E+00  0.00000000000E+00  0.74505805969E-08  0.10566000000E+00  0.10566000000E+00 0. -1.
     999900   -1    0    0    0    0 -0.00000000000E+00 -0.00000000000E+00 -0.74505805969E-08  0.93827000000E+00  0.93827000000E+00 0. -1.
     999902    2    1    2    0    0  0.15250506116E-01 -0.14182206474E-01  0.12843799014E-01  0.10194621417E+01  0.10191684759E+01 0.  0.
     999903    2    3    3    0    0 -0.13014049775E-01  0.87014660474E-01  0.92982629044E-01  0.12959590282E+00  0.20209208165E-01 0.  0.
         14    1    1    2    0    0 -0.15250506116E-01  0.14182206474E-01 -0.12843799014E-01  0.24467858312E-01  0.00000000000E+00 0.  1.
     999901    1    3    3    0    0  0.28264555891E-01 -0.10119686695E+00 -0.80138830031E-01  0.88986623887E+00  0.88000000000E+00 0. -1.
        -11    1    4    4    0    0 -0.92457681158E-02  0.30925006018E-01  0.22081944659E-01  0.39111553615E-01  0.51100000000E-03 0.  1.
         11    1    4    4    0    0 -0.37682816593E-02  0.56089654456E-01  0.70900684385E-01  0.90484349204E-01  0.51100000000E-03 0. -1.
</event>
<event>
 8    1  0.1051655E+005  0.1043930E+01  0.7957747E-01            NaN
         13   -1    0    0    0    0  0.00000000000E+00  0.00000000000E+00  0.74505805969E-08  0.10566000000E+00  0.10566000000E+00 0. -1.
     999900   -1    0    0    0    0 -0.00000000000E+00 -0.00000000000E+00 -0.74505805969E-08  0.93827000000E+00  0.93827000000E+00 0. -1.
     999902    2    1    2    0    0 -0.54613825264E-02 -0.40733961423E-02 -0.22992364197E-01  0.10199494231E+01  0.10196674741E+01 0.  0.
     999903    2    3    3    0    0 -0.19444740795E-01  0.78863942934E-01  0.96522823595E-01  0.12789672479E+00  0.21054626502E-01 0.  0.
         14    1    1    2    0    0  0.54613825264E-02  0.40733961423E-02  0.22992364197E-01  0.23980576861E-01  0.00000000000E+00 0. -1.
     999901    1    3    3    0    0  0.13983358268E-01 -0.82937339077E-01 -0.11951518779E+00  0.89205269835E+00  0.88000000000E+00 0.  1.
        -11    1    4    4    0    0 -0.23509464137E-01  0.72640395119E-01  0.85991686437E-01  0.11499631805E+00  0.51100000000E-03 0. -1.
         11    1    4    4    0    0  0.40647233420E-02  0.62235478150E-02  0.10531137157E-01  0.12900406741E-01  0.51100000000E-03 0.  1.
</event>
<event>
 8    1  0.1051655E+005  0.1043930E+01  0.7957747E-01            NaN
         13   -1    0    0    0    0  0.00000000000E+00  0.00000000000E+00  0.74505805969E-08  0.10566000000E+00  0.10566000000E+00 0. -1.
     999900   -1    0    0    0    0 -0.00000000000E+00 -0.00000000000E+00 -0.74505805969E-08  0.93827000000E+00  0.93827000000E+00 0.  1.
     999902    2    1    2    0    0  0.14914691968E-01  0.76822005812E-02 -0.14197675941E-01  0.10219518690E+01  0.10217155104E+01 0.  0.
     999903    2    3    3    0    0  0.12669654050E+00  0.21985499766E-01  0.30152826972E-01  0.13365758599E+00  0.20488575976E-01 0.  0.
         14    1    1    2    0    0 -0.14914691968E-01 -0.76822005812E-02  0.14197675941E-01  0.21978131049E-01  0.00000000000E+00 0. -1.
     999901    1    3    3    0    0 -0.11178184853E+00 -0.14303299185E-01 -0.44350502913E-01  0.88829428296E+00  0.88000000000E+00 0.  1.
        -11    1    4    4    0    0  0.36414146529E-01  0.15030106238E-01  0.52600517734E-02  0.39746992673E-01  0.51100000000E-03 0.  1.
         11    1    4    4    0    0  0.90282393967E-01  0.69553935288E-02  0.24892775198E-01  0.93910593319E-01  0.51100000000E-03 0. -1.
</event>
<event>
 8    1  0.1051655E+005  0.1043930E+01  0.7957747E-01            NaN
         13   -1    0    0    0    0  0.00000000000E+00  0.00000000000E+00  0.74505805969E-08  0.10566000000E+00  0.10566000000E+00 0.  1.
     999900   -1    0    0    0    0 -0.00000000000E+00 -0.00000000000E+00 -0.74505805969E-08  0.93827000000E+00  0.93827000000E+00 0. -1.
     999902    2    1    2    0    0  0.32601506778E-02 -0.19558798995E-01 -0.13287920771E-01  0.10200606883E+01  0.10197813804E+01 0.  0.
     999903    2    3    3    0    0 -0.95492230852E-02 -0.55613199289E-03  0.12683904580E+00  0.12867931756E+00  0.19460891167E-01 0.  0.
         14    1    1    2    0    0 -0.32601506778E-02  0.19558798995E-01  0.13287920771E-01  0.23869311657E-01  0.00000000000E+00 0.  1.
     999901    1    3    3    0    0  0.12809373763E-01 -0.19002667002E-01 -0.14012696657E+00  0.89138137078E+00  0.88000000000E+00 0. -1.
        -11    1    4    4    0    0  0.48516694370E-02 -0.30709753257E-02  0.19074962818E-01  0.19926989569E-01  0.51100000000E-03 0.  1.
         11    1    4    4    0    0 -0.14400892522E-01  0.25148433328E-02  0.10776408298E+00  0.10875232800E+00  0.51100000000E-03 0. -1.
</event>
<event>
 8    1  0.1051655E+005  0.1043930E+01  0.7957747E-01            NaN
         13   -1    0    0    0    0  0.00000000000E+00  0.00000000000E+00  0.74505805969E-08  0.10566000000E+00  0.10566000000E+00 0.  1.
     999900   -1    0    0    0    0 -0.00000000000E+00 -0.00000000000E+00 -0.74505805969E-08  0.93827000000E+00  0.93827000000E+00 0.  1.
     999902    2    1    2    0    0  0.21374444310E-02 -0.15240463228E-01  0.26803729176E-01  0.10130223911E+01  0.10125507813E+01 0.  0.
     999903    2    3    3    0    0 -0.59540789320E-01 -0.10732071299E+00 -0.13620454438E-01  0.12515016410E+00  0.20352045735E-01 0.  0.
         14    1    1    2    0    0 -0.21374444310E-02  0.15240463228E-01 -0.26803729176E-01  0.30907608866E-01  0.00000000000E+00 0. -1.
     999901    1    3    3    0    0  0.61678233751E-01  0.92080249764E-01  0.40424183614E-01  0.88787222703E+00  0.88000000000E+00 0. -1.
        -11    1    4    4    0    0 -0.96222179089E-02 -0.57991193972E-02 -0.45972624432E-03  0.11255635588E-01  0.51100000000E-03 0.  1.
         11    1    4    4    0    0 -0.49918571411E-01 -0.10152159359E+00 -0.13160728194E-01  0.11389452851E+00  0.51100000000E-03 0. -1.
</event>
<event>
 8    1  0.1051655E+005  0.1043930E+01  0.7957747E-01            NaN
         13   -1    0    0    0    0  0.00000000000E+00  0.00000000000E+00  0.74505805969E-08  0.10566000000E+00  0.10566000000E+00 0. -1.
     999900   -1    0    0    0    0 -0.00000000000E+00 -0.00000000000E+00 -0.74505805969E-08  0.93827000000E+00  0.93827000000E+00 0. -1.
     999902    2    1    2    0    0  0.10459351949E-01 -0.21286279215E-01 -0.32074435055E-03  0.10202106703E+01  0.10199349024E+01 0.  0.
     999903    2    3    3    0    0  0.10973451996E+00 -0.58335331331E-01  0.42125842068E-01  0.13283819833E+00  0.20657313827E-01 0.  0.
         14    1    1    2    0    0 -0.10459351949E-01  0.21286279215E-01  0.32074435055E-03  0.23719329732E-01  0.00000000000E+00 0.  1.
     999901    1    3    3    0    0 -0.99275168011E-01  0.37049052116E-01 -0.42446586419E-01  0.88737247193E+00  0.88000000000E+00 0. -1.
        -11    1    4    4    0    0  0.45112727328E-01 -0.18202704157E-01  0.25673157349E-01  0.55007897023E-01  0.51100000000E-03 0. -1.
         11    1    4    4    0    0  0.64621792632E-01 -0.40132627173E-01  0.16452684719E-01  0.77830301312E-01  0.51100000000E-03 0.  1.
</event>
<event>
 8    1  0.1051655E+005  0.1043930E+01  0.7957747E-01            NaN
         13   -1    0    0    0    0  0.00000000000E+00  0.00000000000E+00  0.74505805969E-08  0.10566000000E+00  0.10566000000E+00 0. -1.
     999900   -1    0    0    0    0 -0.00000000000E+00 -0.00000000000E+00 -0.74505805969E-08  0.93827000000E+00  0.93827000000E+00 0. -1.
     999902    2    1    2    0    0  0.62208431422E-02  0.19828982763E-01  0.29547840594E-02  0.10229390925E+01  0.10227237011E+01 0.  0.
     999903    2    3    3    0    0  0.12447869470E+00 -0.24688933531E-01  0.35971063092E-01  0.13330049232E+00  0.19251363599E-01 0.  0.
         14    1    1    2    0    0 -0.62208431422E-02 -0.19828982763E-01 -0.29547840594E-02  0.20990907452E-01  0.00000000000E+00 0.  1.
     999901    1    3    3    0    0 -0.11825785156E+00  0.44517916294E-01 -0.33016279032E-01  0.88963860022E+00  0.88000000000E+00 0. -1.
        -11    1    4    4    0    0  0.93345209906E-01 -0.15275853583E-01  0.18514918933E-01  0.96383314216E-01  0.51100000000E-03 0. -1.
         11    1    4    4    0    0  0.31133484795E-01 -0.94130799482E-02  0.17456144158E-01  0.36917178108E-01  0.51100000000E-03 0.  1.
</event>
<event>
 8    1  0.1051655E+005  0.1043930E+01  0.7957747E-01            NaN
         13   -1    0    0    0    0  0.00000000000E+00  0.00000000000E+00  0.74505805969E-08  0.10566000000E+00  0.10566000000E+00 0. -1.
     999900   -1    0    0    0    0 -0.00000000000E+00 -0.00000000000E+00 -0.74505805969E-08  0.93827000000E+00  0.93827000000E+00 0.  1.
     999902    2    1    2    0    0  0.75309005470E-02 -0.19463586726E-01  0.11254450990E-01  0.10202190671E+01  0.10199434968E+01 0.  0.
     999903    2    3    3    0    0 -0.76673490585E-01  0.98709112761E-01 -0.13873452747E-01  0.12798222752E+00  0.23762675945E-01 0.  0.
         14    1    1    2    0    0 -0.75309005470E-02  0.19463586726E-01 -0.11254450990E-01  0.23710932887E-01  0.00000000000E+00 0.  1.
     999901    1    3    3    0    0  0.84204391132E-01 -0.11817269949E+00  0.25127903737E-01  0.89223683960E+00  0.88000000000E+00 0. -1.
        -11    1    4    4    0    0 -0.43346019631E-01  0.61998424943E-01  0.27074080606E-02  0.75698568631E-01  0.51100000000E-03 0.  1.
         11    1    4    4    0    0 -0.33327470954E-01  0.36710687817E-01 -0.16580860808E-01  0.52283658884E-01  0.51100000000E-03 0. -1.
</event>
<event>
 8    1  0.1051655E+005  0.1043930E+01  0.7957747E-01            NaN
         13   -1    0    0    0    0  0.00000000000E+00  0.00000000000E+00  0.74505805969E-08  0.10566000000E+00  0.10566000000E+00 0.  1.
     999900   -1    0    0    0    0 -0.00000000000E+00 -0.00000000000E+00 -0.74505805969E-08  0.93827000000E+00  0.93827000000E+00 0. -1.
     999902    2    1    2    0    0 -0.39898225675E-02  0.20060735869E-01  0.89185987520E-02  0.10216164792E+01  0.10213727710E+01 0.  0.
     999903    2    3    3    0    0  0.65763496295E-01 -0.50556702471E-01  0.99920963466E-01  0.13137281676E+00  0.19844405617E-01 0.  0.
         14    1    1    2    0    0  0.39898225675E-02 -0.20060735869E-01 -0.89185987520E-02  0.22313520821E-01  0.00000000000E+00 0.  1.
     999901    1    3    3    0    0 -0.69753318863E-01  0.70617438340E-01 -0.91002364714E-01  0.89024366242E+00  0.88000000000E+00 0. -1.
        -11    1    4    4    0    0  0.42368346387E-01 -0.20914813060E-01  0.50274425134E-01  0.68994819548E-01  0.51100000000E-03 0. -1.
         11    1    4    4    0    0  0.23395149909E-01 -0.29641889411E-01  0.49646538332E-01  0.62377997215E-01  0.51100000000E-03 0.  1.
</event>
<event>
 8    1  0.1051655E+005  0.1043930E+01  0.7957747E-01            NaN
         13   -1    0    0    0    0  0.00000000000E+00  0.00000000000E+00  0.74505805969E-08  0.10566000000E+00  0.10566000000E+00 0.  1.
     999900   -1    0    0    0    0 -0.00000000000E+00 -0.00000000000E+00 -0.74505805969E-08  0.93827000000E+00  0.93827000000E+00 0. -1.
     999902    2    1    2    0    0 -0.18707222863E-01 -0.61070585159E-02  0.12952822449E-01  0.10203708837E+01  0.10200988719E+01 0.  0.
     999903    2    3    3    0    0 -0.67312219614E-01 -0.30872061232E-01  0.10957834281E+00  0.13340287851E+00  0.17461263045E-01 0.  0.
         14    1    1    2    0    0  0.18707222863E-01  0.61070585159E-02 -0.12952822449E-01  0.23559116290E-01  0.00000000000E+00 0. -1.
     999901    1    3    3    0    0  0.48604996751E-01  0.24765002717E-01 -0.96625520360E-01  0.88696800520E+00  0.88000000000E+00 0.  1.
        -11    1    4    4    0    0 -0.29748038424E-01 -0.18712323408E-01  0.38782239693E-01  0.52339469562E-01  0.51100000000E-03 0.  1.
         11    1    4    4    0    0 -0.37564181189E-01 -0.12159737825E-01  0.70796103116E-01  0.81063408945E-01  0.51100000000E-03 0. -1.
</event>
<event>
 8    1  0.1051655E+005  0.1043930E+01  0.7957747E-01            NaN
         13   -1    0    0    0    0  0.00000000000E+00  0.00000000000E+00  0.74505805969E-08  0.10566000000E+00  0.10566000000E+00 0. -1.
     999900   -1    0    0    0    0 -0.00000000000E+00 -0.00000000000E+00 -0.74505805969E-08  0.93827000000E+00  0.93827000000E+00 0.  1.
     999902    2    1    2    0    0 -0.22913992162E-01  0.82846559335E-02 -0.20102607225E-01  0.10123420058E+01  0.10118490675E+01 0.  0.
     999903    2    3    3    0    0 -0.32605504382E-02  0.93869218863E-01 -0.80988484681E-01  0.12587820774E+00  0.21543609127E-01 0.  0.
         14    1    1    2    0    0  0.22913992162E-01 -0.82846559335E-02  0.20102607225E-01  0.31587994207E-01  0.00000000000E+00 0. -1.
     999901    1    3    3    0    0 -0.19653441724E-01 -0.85584562930E-01  0.60885877456E-01  0.88646379805E+00  0.88000000000E+00 0. -1.
        -11    1    4    4    0    0  0.15728769516E-02  0.84716610191E-01 -0.77808346962E-01  0.11503815872E+00  0.51100000000E-03 0.  1.
         11    1    4    4    0    0 -0.48334273899E-02  0.91526086718E-02 -0.31801377186E-02  0.10840049019E-01  0.51100000000E-03 0. -1.
</event>
<event>
 8    1  0.1051655E+005  0.1043930E+01  0.7957747E-01            NaN
         13   -1    0    0    0    0  0.00000000000E+00  0.00000000000E+00  0.74505805969E-08  0.10566000000E+00  0.10566000000E+00 0. -1.
     999900   -1    0    0    0    0 -0.00000000000E+00 -0.00000000000E+00 -0.74505805969E-08  0.93827000000E+00  0.93827000000E+00 0. -1.
     999902    2    1    2    0    0  0.22869997862E-01  0.15020961515E-02  0.79750305537E-02  0.10196628575E+01  0.10193740475E+01 0.  0.
     999903    2    3    3    0    0 -0.10596113909E+00 -0.67835781711E-01  0.94755795949E-02  0.12758244919E+00  0.18921904149E-01 0.  0.
         14    1    1    2    0    0 -0.22869997862E-01 -0.15020961515E-02 -0.79750305537E-02  0.24267142547E-01  0.00000000000E+00 0. -1.
     999901    1    3    3    0    0  0.12883113695E+00  0.69337877863E-01 -0.15005490413E-02  0.89208040826E+00  0.88000000000E+00 0. -1.
        -11    1    4    4    0    0 -0.63741951730E-01 -0.47461020209E-01  0.13168741407E-01  0.80555953976E-01  0.51100000000E-03 0. -1.
         11    1    4    4    0    0 -0.42219187356E-01 -0.20374761502E-01 -0.36931618123E-02  0.47026495217E-01  0.51100000000E-03 0.  1.
</event>
<event>
 8    1  0.1051655E+005  0.1043930E+01  0.7957747E-01            NaN
         13   -1    0    0    0    0  0.00000000000E+00  0.00000000000E+00  0.74505805969E-08  0.10566000000E+00  0.10566000000E+00 0. -1.
     999900   -1    0    0    0    0 -0.00000000000E+00 -0.00000000000E+00 -0.74505805969E-08  0.93827000000E+00  0.93827000000E+00 0. -1.
     999902    2    1    2    0    0  0.22820311168E-01  0.24719965773E-02 -0.13299031933E-01  0.10174018712E+01  0.10170559600E+01 0.  0.
     999903    2    3    3    0    0  0.67147379901E-01 -0.10067275896E+00  0.39166727332E-01  0.12871948386E+00  0.19771139869E-01 0.  0.
         14    1    1    2    0    0 -0.22820311168E-01 -0.24719965773E-02  0.13299031933E-01  0.26528128830E-01  0.00000000000E+00 0.  1.
     999901    1    3    3    0    0 -0.44327068733E-01  0.10314475554E+00 -0.52465759265E-01  0.88868238731E+00  0.88000000000E+00 0. -1.
        -11    1    4    4    0    0  0.46517558375E-02 -0.19110987501E-01  0.37229631621E-02  0.20024740980E-01  0.51100000000E-03 0.  1.
         11    1    4    4    0    0  0.62495624064E-01 -0.81561771458E-01  0.35443764170E-01  0.10869474288E+00  0.51100000000E-03 0. -1.
</event>
<event>
 7    1  0.1051655E+005  0.1043930E+01  0.7957747E-01            NaN
         13   -1    0    0    0    0  0.00000000000E+00  0.00000000000E+00  0.74505805969E-08  0.10566000000E+00  0.10566000000E+00 0. -1.
     999900   -1    0    0    0    0 -0.00000000000E+00 -0.00000000000E+00 -0.74505805969E-08  0.93827000000E+00  0.93827000000E+00 0. -1.
     999903    2    1    2    0    0  0.19051553533E-01 -0.68033756264E-02 -0.11171048494E+00  0.11645315190E+00  0.25939478225E-01 0.  0.
         14    1    1    2    0    0 -0.25060086531E-01 -0.35106782440E-02  0.36193055617E-01  0.44161862206E-01  0.00000000000E+00 0. -1.
     999901    1    1    2    0    0  0.60085329972E-02  0.10314053870E-01  0.75517429319E-01  0.88331498590E+00  0.88000000000E+00 0.  1.
        -11    1    3    3    0    0 -0.21732185323E-02 -0.94548798722E-02 -0.54782275418E-01  0.55637006148E-01  0.51100000000E-03 0. -1.
         11    1    3    3    0    0  0.21224772066E-01  0.26515042458E-02 -0.56928209518E-01  0.60816145750E-01  0.51100000000E-03 0.  1.
</event>
<event>
 8    1  0.1051655E+005  0.1043930E+01  0.7957747E-01            NaN
         13   -1    0    0    0    0  0.00000000000E+00  0.00000000000E+00  0.74505805969E-08  0.10566000000E+00  0.10566000000E+00 0. -1.
     999900   -1    0    0    0    0 -0.00000000000E+00 -0.00000000000E+00 -0.74505805969E-08  0.93827000000E+00  0.93827000000E+00 0. -1.
     999902    2    1    2    0    0 -0.10431196434E-01 -0.21285501116E-01  0.14409948485E-02  0.10201821815E+01  0.10199057430E+01 0.  0.
     999903    2    3    3    0    0  0.94033707101E-01  0.73494425549E-01 -0.41427661313E-01  0.12791883908E+00  0.20080079964E-01 0.  0.
         14    1    1    2    0    0  0.10431196434E-01  0.21285501116E-01 -0.14409948485E-02  0.23747818488E-01  0.00000000000E+00 0.  1.
     999901    1    3    3    0    0 -0.10446490354E+00 -0.94779926665E-01  0.42868656162E-01  0.89226334243E+00  0.88000000000E+00 0.  1.
        -11    1    4    4    0    0  0.52178938181E-01  0.35403722097E-01 -0.31396038235E-01  0.70441730997E-01  0.51100000000E-03 0.  1.
         11    1    4    4    0    0  0.41854768920E-01  0.38090703451E-01 -0.10031623078E-01  0.57477108081E-01  0.51100000000E-03 0. -1.
</event>
<event>
 8    1  0.1051655E+005  0.1043930E+01  0.7957747E-01            NaN
         13   -1    0    0    0    0  0.00000000000E+00  0.00000000000E+00  0.74505805969E-08  0.10566000000E+00  0.10566000000E+00 0. -1.
     999900   -1    0    0    0    0 -0.00000000000E+00 -0.00000000000E+00 -0.74505805969E-08  0.93827000000E+00  0.93827000000E+00 0. -1.
     999902    2    1    2    0    0 -0.14080154691E-01  0.17674338236E-02  0.19365618742E-01  0.10199216313E+01  0.10196390205E+01 0.  0.
     999903    2    3    3    0    0 -0.51724415937E-01 -0.78521053755E-01  0.91908865852E-01  0.13249509668E+00  0.16332174847E-01 0.  0.
         14    1    1    2    0    0  0.14080154691E-01 -0.17674338236E-02 -0.19365618742E-01  0.24008368702E-01  0.00000000000E+00 0. -1.
     999901    1    3    3    0    0  0.37644261246E-01  0.80288487579E-01 -0.72543247110E-01  0.88742653462E+00  0.88000000000E+00 0.  1.
        -11    1    4    4    0    0 -0.38484579466E-01 -0.50100869420E-01  0.52577038221E-01  0.82193467151E-01  0.51100000000E-03 0.  1.
         11    1    4    4    0    0 -0.13239836471E-01 -0.28420184335E-01  0.39331827632E-01  0.50301629529E-01  0.51100000000E-03 0. -1.
</event>
<event>
 8    1  0.1051655E+005  0.1043930E+01  0.7957747E-01            NaN
         13   -1    0    0    0    0  0.00000000000E+00  0.00000000000E+00  0.74505805969E-08  0.10566000000E+00  0.10566000000E+00 0. -1.
     999900   -1    0    0    0    0 -0.00000000000E+00 -0.00000000000E+00 -0.74505805969E-08  0.93827000000E+00  0.93827000000E+00 0. -1.
     999902    2    1    2    0    0 -0.46060078621E-02  0.18510282848E-01  0.12601328647E-01  0.10210686929E+01  0.10208127332E+01 0.  0.
     999903    2    3    3    0    0 -0.12464193143E-01 -0.11010532729E+00  0.64468204603E-01  0.13017369398E+00  0.22594291090E-01 0.  0.
         14    1    1    2    0    0  0.46060078621E-02 -0.18510282848E-01 -0.12601328647E-01  0.22861307120E-01  0.00000000000E+00 0. -1.
     999901    1    3    3    0    0  0.78581852810E-02  0.12861561014E+00 -0.51866875955E-01  0.89089499890E+00  0.88000000000E+00 0. -1.
        -11    1    4    4    0    0 -0.18622364441E-01 -0.80919599731E-01  0.50946834806E-01  0.97419788420E-01  0.51100000000E-03 0. -1.
         11    1    4    4    0    0  0.61581712977E-02 -0.29185727563E-01  0.13521369796E-01  0.32753905558E-01  0.51100000000E-03 0.  1.
</event>
<event>
 8    1  0.1051655E+005  0.1043930E+01  0.7957747E-01            NaN
         13   -1    0    0    0    0  0.00000000000E+00  0.00000000000E+00  0.74505805969E-08  0.10566000000E+00  0.10566000000E+00 0.  1.
     999900   -1    0    0    0    0 -0.00000000000E+00 -0.00000000000E+00 -0.74505805969E-08  0.93827000000E+00  0.93827000000E+00 0.  1.
     999902    2    1    2    0    0 -0.57892161567E-03  0.21600834328E-01 -0.27081133383E-02  0.10221523722E+01  0.10219203526E+01 0.  0.
     999903    2    3    3    0    0  0.70617921826E-02 -0.44841006332E-01  0.12108922141E+00  0.13097411912E+00  0.20761396410E-01 0.  0.
         14    1    1    2    0    0  0.57892161567E-03 -0.21600834328E-01  0.27081133383E-02  0.21777627781E-01  0.00000000000E+00 0. -1.
     999901    1    3    3    0    0 -0.76407137983E-02  0.66441840660E-01 -0.12379733475E+00  0.89117825309E+00  0.88000000000E+00 0.  1.
        -11    1    4    4    0    0  0.11613460587E-01 -0.16461021429E-01  0.63287093831E-01  0.66418032641E-01  0.51100000000E-03 0.  1.
         11    1    4    4    0    0 -0.45516684045E-02 -0.28379984903E-01  0.57802127580E-01  0.64556086484E-01  0.51100000000E-03 0. -1.
</event>
<event>
 8    1  0.1051655E+005  0.1043930E+01  0.7957747E-01            NaN
         13   -1    0    0    0    0  0.00000000000E+00  0.00000000000E+00  0.74505805969E-08  0.10566000000E+00  0.10566000000E+00 0. -1.
     999900   -1    0    0    0    0 -0.00000000000E+00 -0.00000000000E+00 -0.74505805969E-08  0.93827000000E+00  0.93827000000E+00 0.  1.
     999902    2    1    2    0    0 -0.11157025226E-01  0.19631530972E-01 -0.60060530182E-02  0.10205644507E+01  0.10202969417E+01 0.  0.
     999903    2    3    3    0    0 -0.43910539826E-01  0.10289027244E+00  0.68736985647E-01  0.13287569188E+00  0.20411580674E-01 0.  0.
         14    1    1    2    0    0  0.11157025226E-01 -0.19631530972E-01  0.60060530182E-02  0.23365549278E-01  0.00000000000E+00 0.  1.
     999901    1    3    3    0    0  0.32753514600E-01 -0.83258741468E-01 -0.74743038666E-01  0.88768875884E+00  0.88000000000E+00 0.  1.
        -11    1    4    4    0    0 -0.39945591554E-01  0.80249394828E-01  0.61726511745E-01  0.10883951042E+00  0.51100000000E-03 0. -1.
         11    1    4    4    0    0 -0.39649482716E-02  0.22640877612E-01  0.70104739026E-02  0.24036181460E-01  0.51100000000E-03 0.  1.
</event>
<event>
 8    1  0.1051655E+005  0.1043930E+01  0.7957747E-01            NaN
         13   -1    0    0    0    0  0.00000000000E+00  0.00000000000E+00  0.74505805969E-08  0.10566000000E+00  0.10566000000E+00 0.  1.
     999900   -1    0    0    0    0 -0.00000000000E+00 -0.00000000000E+00 -0.74505805969E-08  0.93827000000E+00  0.93827000000E+00 0. -1.
     999902    2    1    2    0    0  0.20997602290E-01  0.37351900148E-02 -0.97092107991E-02  0.10204966963E+01  0.10202276155E+01 0.  0.
     999903    2    3    3    0    0  0.62529323628E-01 -0.82691939741E-01  0.77568257272E-01  0.13099577499E+00  0.19879268550E-01 0.  0.
         14    1    1    2    0    0 -0.20997602290E-01 -0.37351900148E-02  0.97092107991E-02  0.23433303666E-01  0.00000000000E+00 0. -1.
     999901    1    3    3    0    0 -0.41531721338E-01  0.86427129756E-01 -0.87277468071E-01  0.88950092134E+00  0.88000000000E+00 0.  1.
        -11    1    4    4    0    0  0.11938442145E-01 -0.60961644859E-02  0.13648341780E-01  0.19137083807E-01  0.51100000000E-03 0. -1.
         11    1    4    4    0    0  0.50590881482E-01 -0.76595775255E-01  0.63919915492E-01  0.11185869118E+00  0.51100000000E-03 0.  1.
</event>
<event>
 8    1  0.1051655E+005  0.1043930E+01  0.7957747E-01            NaN
         13   -1    0    0    0    0  0.00000000000E+00  0.00000000000E+00  0.74505805969E-08  0.10566000000E+00  0.10566000000E+00 0. -1.
     999900   -1    0    0    0    0 -0.00000000000E+00 -0.00000000000E+00 -0.74505805969E-08  0.93827000000E+00  0.93827000000E+00 0. -1.
     999902    2    1    2    0    0 -0.13130143760E-01 -0.87155592557E-02 -0.17696841708E-01  0.10202331678E+01  0.10199579290E+01 0.  0.
     999903    2    3    3    0    0  0.77435148308E-01  0.38785644675E-01 -0.96060560383E-01  0.13085174858E+00  0.19849947606E-01 0.  0.
         14    1    1    2    0    0  0.13130143760E-01  0.87155592557E-02  0.17696841708E-01  0.23696832167E-01  0.00000000000E+00 0. -1.
     999901    1    3    3    0    0 -0.90565292068E-01 -0.47501203930E-01  0.78363718674E-01  0.88938141925E+00  0.88000000000E+00 0.  1.
        -11    1    4    4    0    0  0.32456391717E-01  0.75236334610E-02 -0.44772262993E-01  0.55810743395E-01  0.51100000000E-03 0.  1.
         11    1    4    4    0    0  0.44978756591E-01  0.31262011214E-01 -0.51288297390E-01  0.75041005189E-01  0.51100000000E-03 0. -1.
</event>
<event>
 8    1  0.1051655E+005  0.1043930E+01  0.7957747E-01            NaN
         13   -1    0    0    0    0  0.00000000000E+00  0.00000000000E+00  0.74505805969E-08  0.10566000000E+00  0.10566000000E+00 0. -1.
     999900   -1    0    0    0    0 -0.00000000000E+00 -0.00000000000E+00 -0.74505805969E-08  0.93827000000E+00  0.93827000000E+00 0.  1.
     999902    2    1    2    0    0  0.18971910951E-01  0.12057786372E-02 -0.12265168162E-01  0.10213065242E+01  0.10210559214E+01 0.  0.
     999903    2    3    3    0    0 -0.11476288361E+00  0.26232939792E-01  0.48131961975E-01  0.12880488980E+00  0.20379580199E-01 0.  0.
         14    1    1    2    0    0 -0.18971910951E-01 -0.12057786372E-02  0.12265168162E-01  0.22623475801E-01  0.00000000000E+00 0. -1.
     999901    1    3    3    0    0  0.13373479456E+00 -0.25027161155E-01 -0.60397130137E-01  0.89250163440E+00  0.88000000000E+00 0. -1.
        -11    1    4    4    0    0 -0.48909232542E-01  0.10574005323E-02  0.21494815644E-01  0.53437059652E-01  0.51100000000E-03 0. -1.
         11    1    4    4    0    0 -0.65853651068E-01  0.25175539259E-01  0.26637146331E-01  0.75367830151E-01  0.51100000000E-03 0.  1.
</event>
<event>
 8    1  0.1051655E+005  0.1043930E+01  0.7957747E-01            NaN
         13   -1    0    0    0    0  0.00000000000E+00  0.00000000000E+00  0.74505805969E-08  0.10566000000E+00  0.10566000000E+00 0.  1.
     999900   -1    0    0    0    0 -0.00000000000E+00 -0.00000000000E+00 -0.74505805969E-08  0.93827000000E+00  0.93827000000E+00 0.  1.
     999902    2    1    2    0    0  0.48836626473E-02  0.22163904957E-01  0.73009526979E-02  0.10200890111E+01  0.10198103734E+01 0.  0.
     999903    2    3    3    0    0  0.85952460103E-01  0.33441758884E-01  0.92579987759E-01  0.13218594555E+00  0.19897070928E-01 0.  0.
         14    1    1    2    0    0 -0.48836626473E-02 -0.22163904957E-01 -0.73009526979E-02  0.23840988949E-01  0.00000000000E+00 0. -1.
     999901    1    3    3    0    0 -0.81068797456E-01 -0.11277853927E-01 -0.85279035061E-01  0.88790306550E+00  0.88000000000E+00 0.  1.
        -11    1    4    4    0    0  0.39717493066E-01  0.62047296480E-02  0.46341551839E-01  0.61349641183E-01  0.51100000000E-03 0. -1.
         11    1    4    4    0    0  0.46234967038E-01  0.27237029236E-01  0.46238435920E-01  0.70836304363E-01  0.51100000000E-03 0.  1.
</event>
<event>
 8    1  0.1051655E+005  0.1043930E+01  0.7957747E-01            NaN
         13   -1    0    0    0    0  0.00000000000E+00  0.00000000000E+00  0.74505805969E-08  0.10566000000E+00  0.10566000000E+00 0. -1.
     999900   -1    0    0    0    0 -0.00000000000E+00 -0.00000000000E+00 -0.74505805969E-08  0.93827000000E+00  0.93827000000E+00 0. -1.
     999902    2    1    2    0    0  0.18740971842E-01 -0.13651420523E-01 -0.67133962946E-02  0.10197917524E+01  0.10195060388E+01 0.  0.
     999903    2    3    3    0    0 -0.27706337557E-02 -0.65026966704E-01  0.11082700107E+00  0.13023121992E+00  0.21008656877E-01 0.  0.
         14    1    1    2    0    0 -0.18740971842E-01  0.13651420523E-01  0.67133962946E-02  0.24138247610E-01  0.00000000000E+00 0. -1.
     999901    1    3    3    0    0  0.21511605597E-01  0.51375546181E-01 -0.11754039737E+00  0.88956053247E+00  0.88000000000E+00 0. -1.
        -11    1    4    4    0    0  0.78473149800E-02 -0.31414439906E-01  0.62756799575E-01  0.70619575196E-01  0.51100000000E-03 0.  1.
         11    1    4    4    0    0 -0.10617948736E-01 -0.33612526798E-01  0.48070201499E-01  0.59611644721E-01  0.51100000000E-03 0. -1.
</event>
<event>
 8    1  0.1051655E+005  0.1043930E+01  0.7957747E-01            NaN
         13   -1    0    0    0    0  0.00000000000E+00  0.00000000000E+00  0.74505805969E-08  0.10566000000E+00  0.10566000000E+00 0.  1.
     999900   -1    0    0    0    0 -0.00000000000E+00 -0.00000000000E+00 -0.74505805969E-08  0.93827000000E+00  0.93827000000E+00 0. -1.
     999902    2    1    2    0    0 -0.35288636896E-03  0.13169303262E-01  0.19468398946E-01  0.10204231152E+01  0.10201523221E+01 0.  0.
     999903    2    3    3    0    0 -0.12550332018E-01  0.97121735440E-01  0.88783689166E-01  0.13363035583E+00  0.19605769775E-01 0.  0.
         14    1    1    2    0    0  0.35288636896E-03 -0.13169303262E-01 -0.19468398946E-01  0.23506884837E-01  0.00000000000E+00 0. -1.
     999901    1    3    3    0    0  0.12197445649E-01 -0.83952432178E-01 -0.69315290219E-01  0.88679275933E+00  0.88000000000E+00 0.  1.
        -11    1    4    4    0    0  0.26693834422E-02  0.47048074460E-01  0.36059858496E-01  0.59339880638E-01  0.51100000000E-03 0. -1.
         11    1    4    4    0    0 -0.15219715460E-01  0.50073660980E-01  0.52723830670E-01  0.74290475191E-01  0.51100000000E-03 0.  1.
</event>
<event>
 8    1  0.1051655E+005  0.1043930E+01  0.7957747E-01            NaN
         13   -1    0    0    0    0  0.00000000000E+00  0.00000000000E+00  0.74505805969E-08  0.10566000000E+00  0.10566000000E+00 0.  1.
     999900   -1    0    0    0    0 -0.00000000000E+00 -0.00000000000E+00 -0.74505805969E-08  0.93827000000E+00  0.93827000000E+00 0.  1.
     999902    2    1    2    0    0 -0.32102252910E-02 -0.10213099764E-01 -0.21183413148E-01  0.10201950059E+01  0.10199188694E+01 0.  0.
     999903    2    3    3    0    0  0.60770300731E-01  0.68256444501E-01 -0.92444902113E-01  0.13152792711E+00  0.20039062244E-01 0.  0.
         14    1    1    2    0    0  0.32102252910E-02  0.10213099764E-01  0.21183413148E-01  0.23734994119E-01  0.00000000000E+00 0.  1.
     999901    1    3    3    0    0 -0.63980526022E-01 -0.78469544264E-01  0.71261488965E-01  0.88866707877E+00  0.88000000000E+00 0. -1.
        -11    1    4    4    0    0  0.42623524588E-01  0.39079967537E-01 -0.68490723331E-01  0.89639550503E-01  0.51100000000E-03 0.  1.
         11    1    4    4    0    0  0.18146776144E-01  0.29176476964E-01 -0.23954178782E-01  0.41888376605E-01  0.51100000000E-03 0. -1.
</event>
<event>
 8    1  0.1051655E+005  0.1043930E+01  0.7957747E-01            NaN
         13   -1    0    0    0    0  0.00000000000E+00  0.00000000000E+00  0.74505805969E-08  0.10566000000E+00  0.10566000000E+00 0.  1.
     999900   -1    0    0    0    0 -0.00000000000E+00 -0.00000000000E+00 -0.74505805969E-08  0.93827000000E+00  0.93827000000E+00 0. -1.
     999902    2    1    2    0    0  0.61965062859E-03  0.22780152612E-01 -0.61977623800E-02  0.10203136587E+01  0.10200403083E+01 0.  0.
     999903    2    3    3    0    0 -0.13952190096E-01  0.62791200536E-01  0.11247528436E+00  0.13132743012E+00  0.21419753439E-01 0.  0.
         14    1    1    2    0    0 -0.61965062859E-03 -0.22780152612E-01  0.61977623800E-02  0.23616341343E-01  0.00000000000E+00 0.  1.
     999901    1    3    3    0    0  0.14571840725E-01 -0.40011047925E-01 -0.11867304674E+00  0.88898622853E+00  0.88000000000E+00 0. -1.
        -11    1    4    4    0    0 -0.39598949823E-02  0.36975350407E-01  0.44912238925E-01  0.58311470846E-01  0.51100000000E-03 0.  1.
         11    1    4    4    0    0 -0.99922951137E-02  0.25815850130E-01  0.67563045437E-01  0.73015959278E-01  0.51100000000E-03 0. -1.
</event>
<event>
 8    1  0.1051655E+005  0.1043930E+01  0.7957747E-01            NaN
         13   -1    0    0    0    0  0.00000000000E+00  0.00000000000E+00  0.74505805969E-08  0.10566000000E+00  0.10566000000E+00 0.  1.
     999900   -1    0    0    0    0 -0.00000000000E+00 -0.00000000000E+00 -0.74505805969E-08  0.93827000000E+00  0.93827000000E+00 0.  1.
     999902    2    1    2    0    0 -0.21057630586E-01  0.76858934308E-02  0.66179491346E-02  0.10205570666E+01  0.10202893865E+01 0.  0.
     999903    2    3    3    0    0 -0.12293278509E+00  0.39676357996E-01 -0.30047772950E-01  0.13334440210E+00  0.13826708821E-01 0.  0.
         14    1    1    2    0    0  0.21057630586E-01 -0.76858934308E-02 -0.66179491346E-02  0.23372933373E-01  0.00000000000E+00 0. -1.
     999901    1    3    3    0    0  0.10187515451E+00 -0.31990464565E-01  0.36665722085E-01  0.88721266453E+00  0.88000000000E+00 0. -1.
        -11    1    4    4    0    0 -0.48544690357E-01  0.21534541794E-01 -0.83683800788E-02  0.53764433954E-01  0.51100000000E-03 0. -1.
         11    1    4    4    0    0 -0.74388094734E-01  0.18141816202E-01 -0.21679392871E-01  0.79579968142E-01  0.51100000000E-03 0.  1.
</event>
<event>
 8    1  0.1051655E+005  0.1043930E+01  0.7957747E-01            NaN
         13   -1    0    0    0    0  0.00000000000E+00  0.00000000000E+00  0.74505805969E-08  0.10566000000E+00  0.10566000000E+00 0. -1.
     999900   -1    0    0    0    0 -0.00000000000E+00 -0.00000000000E+00 -0.74505805969E-08  0.93827000000E+00  0.93827000000E+00 0.  1.
     999902    2    1    2    0    0 -0.15382771993E-01 -0.15507981078E-01  0.11799077263E-01  0.10191036959E+01  0.10188012552E+01 0.  0.
     999903    2    3    3    0    0 -0.84240069852E-01 -0.94519379542E-01  0.33125639298E-01  0.13262811766E+00  0.21508303924E-01 0.  0.
         14    1    1    2    0    0  0.15382771993E-01  0.15507981078E-01 -0.11799077263E-01  0.24826304106E-01  0.00000000000E+00 0. -1.
     999901    1    3    3    0    0  0.68857297859E-01  0.79011398464E-01 -0.21326562035E-01  0.88647557823E+00  0.88000000000E+00 0. -1.
        -11    1    4    4    0    0 -0.86823478133E-02 -0.17506317641E-01  0.11212818072E-01  0.22535366228E-01  0.51100000000E-03 0.  1.
         11    1    4    4    0    0 -0.75557722039E-01 -0.77013061901E-01  0.21912821226E-01  0.11009275143E+00  0.51100000000E-03 0. -1.
</event>
<event>
 8    1  0.1051655E+005  0.1043930E+01  0.7957747E-01            NaN
         13   -1    0    0    0    0  0.00000000000E+00  0.00000000000E+00  0.74505805969E-08  0.10566000000E+00  0.10566000000E+00 0.  1.
     999900   -1    0    0    0    0 -0.00000000000E+00 -0.00000000000E+00 -0.74505805969E-08  0.93827000000E+00  0.93827000000E+00 0.  1.
     999902    2    1    2    0    0  0.13457332288E-01  0.70317284824E-02  0.18099382721E-01  0.10203051687E+01  0.10200316195E+01 0.  0.
     999903    2    3    3    0    0 -0.63499679710E-01  0.10331498747E+00 -0.42339266947E-01  0.12966176195E+00  0.17702062826E-01 0.  0.
         14    1    1    2    0    0 -0.13457332288E-01 -0.70317284824E-02 -0.18099382721E-01  0.23624831273E-01  0.00000000000E+00 0. -1.
     999901    1    3    3    0    0  0.76957011998E-01 -0.96283258986E-01  0.60438649669E-01  0.89064340677E+00  0.88000000000E+00 0. -1.
        -11    1    4    4    0    0 -0.38473240276E-01  0.59982221807E-01 -0.33889955334E-01  0.78910375388E-01  0.51100000000E-03 0. -1.
         11    1    4    4    0    0 -0.25026439434E-01  0.43332765661E-01 -0.84493116130E-02  0.50751386565E-01  0.51100000000E-03 0.  1.
</event>
<event>
 8    1  0.1051655E+005  0.1043930E+01  0.7957747E-01            NaN
         13   -1    0    0    0    0  0.00000000000E+00  0.00000000000E+00  0.74505805969E-08  0.10566000000E+00  0.10566000000E+00 0.  1.
     999900   -1    0    0    0    0 -0.00000000000E+00 -0.00000000000E+00 -0.74505805969E-08  0.93827000000E+00  0.93827000000E+00 0.  1.
     999902    2    1    2    0    0 -0.99637865180E-02 -0.18813161220E-01 -0.73951199109E-02  0.10213933659E+01  0.10211447048E+01 0.  0.
     999903    2    3    3    0    0 -0.16368416771E-01 -0.12947442591E+00 -0.23467155028E-01  0.13429402250E+00  0.21274987275E-01 0.  0.
         14    1    1    2    0    0  0.99637865180E-02  0.18813161220E-01  0.73951199109E-02  0.22536634073E-01  0.00000000000E+00 0.  1.
     999901    1    3    3    0    0  0.64046302528E-02  0.11066126469E+00  0.16072035117E-01  0.88709934342E+00  0.88000000000E+00 0. -1.
        -11    1    4    4    0    0 -0.14043901736E-01 -0.91761569537E-01 -0.26052223566E-01  0.96417821452E-01  0.51100000000E-03 0. -1.
         11    1    4    4    0    0 -0.23245150346E-02 -0.37712856369E-01  0.25850685379E-02  0.37876201051E-01  0.51100000000E-03 0.  1.
</event>
<event>
 8    1  0.1051655E+005  0.1043930E+01  0.7957747E-01            NaN
         13   -1    0    0    0    0  0.00000000000E+00  0.00000000000E+00  0.74505805969E-08  0.10566000000E+00  0.10566000000E+00 0. -1.
     999900   -1    0    0    0    0 -0.00000000000E+00 -0.00000000000E+00 -0.74505805969E-08  0.93827000000E+00  0.93827000000E+00 0. -1.
     999902    2    1    2    0    0 -0.75634562622E-02  0.14991785805E-01 -0.16641308948E-01  0.10202890889E+01  0.10200151628E+01 0.  0.
     999903    2    3    3    0    0  0.11004333427E+00  0.60859330561E-01  0.27441803926E-01  0.13018880825E+00  0.19562199693E-01 0.  0.
         14    1    1    2    0    0  0.75634562622E-02 -0.14991785805E-01  0.16641308948E-01  0.23640911060E-01  0.00000000000E+00 0. -1.
     999901    1    3    3    0    0 -0.11760679053E+00 -0.45867544756E-01 -0.44083112874E-01  0.89010028069E+00  0.88000000000E+00 0.  1.
        -11    1    4    4    0    0  0.93281338434E-01  0.57614006492E-01  0.27777770909E-01  0.11310458665E+00  0.51100000000E-03 0.  1.
         11    1    4    4    0    0  0.16761995839E-01  0.32453240687E-02 -0.33596698292E-03  0.17084221598E-01  0.51100000000E-03 0. -1.
</event>
<event>
 8    1  0.1051655E+005  0.1043930E+01  0.7957747E-01            NaN
         13   -1    0    0    0    0  0.00000000000E+00  0.00000000000E+00  0.74505805969E-08  0.10566000000E+00  0.10566000000E+00 0.  1.
     999900   -1    0    0    0    0 -0.00000000000E+00 -0.00000000000E+00 -0.74505805969E-08  0.93827000000E+00  0.93827000000E+00 0.  1.
     999902    2    1    2    0    0 -0.70884154752E-02  0.16529319607E-01  0.15013293674E-01  0.10205021741E+01  0.10202332205E+01 0.  0.
     999903    2    3    3    0    0  0.86499960151E-01 -0.32562581696E-01 -0.86741553645E-01  0.12835709183E+00  0.20220807617E-01 0.  0.
         14    1    1    2    0    0  0.70884154752E-02 -0.16529319607E-01 -0.15013293674E-01  0.23427825925E-01  0.00000000000E+00 0. -1.
     999901    1    3    3    0    0 -0.93588375626E-01  0.49091901303E-01  0.10175484732E+00  0.89214508225E+00  0.88000000000E+00 0. -1.
        -11    1    4    4    0    0  0.39736080614E-01 -0.21043693306E-01 -0.53230661391E-01  0.69681830943E-01  0.51100000000E-03 0. -1.
         11    1    4    4    0    0  0.46763879537E-01 -0.11518888389E-01 -0.33510892255E-01  0.58675260884E-01  0.51100000000E-03 0.  1.
</event>
<event>
 8    1  0.1051655E+005  0.1043930E+01  0.7957747E-01            NaN
         13   -1    0    0    0    0  0.00000000000E+00  0.00000000000E+00  0.74505805969E-08  0.10566000000E+00  0.10566000000E+00 0. -1.
     999900   -1    0    0    0    0 -0.00000000000E+00 -0.00000000000E+00 -0.74505805969E-08  0.93827000000E+00  0.93827000000E+00 0. -1.
     999902    2    1    2    0    0 -0.10641985970E-01  0.21422907414E-01 -0.62380615871E-03  0.10200013151E+01  0.10197205994E+01 0.  0.
     999903    2    3    3    0    0  0.10307280492E+00 -0.71041036199E-01  0.18845324098E-01  0.12766747534E+00  0.16522895636E-01 0.  0.
         14    1    1    2    0    0  0.10641985970E-01 -0.21422907414E-01  0.62380615871E-03  0.23928684911E-01  0.00000000000E+00 0.  1.
     999901    1    3    3    0    0 -0.11371479089E+00  0.92463943613E-01 -0.19469130256E-01  0.89233383975E+00  0.88000000000E+00 0.  1.
        -11    1    4    4    0    0  0.35455258539E-01 -0.33995698044E-01  0.56931116726E-02  0.49451546843E-01  0.51100000000E-03 0. -1.
         11    1    4    4    0    0  0.67617546379E-01 -0.37045338155E-01  0.13152212425E-01  0.78215928493E-01  0.51100000000E-03 0.  1.
</event>
<event>
 8    1  0.1051655E+005  0.1043930E+01  0.7957747E-01            NaN
         13   -1    0    0    0    0  0.00000000000E+00  0.00000000000E+00  0.74505805969E-08  0.10566000000E+00  0.10566000000E+00 0. -1.
     999900   -1    0    0    0    0 -0.00000000000E+00 -0.00000000000E+00 -0.74505805969E-08  0.93827000000E+00  0.93827000000E+00 0. -1.
     999902    2    1    2    0    0  0.13626794174E-01  0.12896179993E-01 -0.14855156534E-01  0.10199993365E+01  0.10197185739E+01 0.  0.
     999903    2    3    3    0    0 -0.85956603359E-01  0.34818529172E-01  0.86608201971E-01  0.12831987868E+00  0.19082530775E-01 0.  0.
         14    1    1    2    0    0 -0.13626794174E-01 -0.12896179993E-01  0.14855156534E-01  0.23930663457E-01  0.00000000000E+00 0. -1.
     999901    1    3    3    0    0  0.99583397533E-01 -0.21922349179E-01 -0.10146335850E+00  0.89167945786E+00  0.88000000000E+00 0. -1.
        -11    1    4    4    0    0 -0.30209497903E-01  0.21591698112E-01  0.38667404446E-01  0.53611980736E-01  0.51100000000E-03 0. -1.
         11    1    4    4    0    0 -0.55747105456E-01  0.13226831060E-01  0.47940797525E-01  0.74707897943E-01  0.51100000000E-03 0.  1.
</event>
<event>
 8    1  0.1051655E+005  0.1043930E+01  0.7957747E-01            NaN
         13   -1    0    0    0    0  0.00000000000E+00  0.00000000000E+00  0.74505805969E-08  0.10566000000E+00  0.10566000000E+00 0.  1.
     999900   -1    0    0    0    0 -0.00000000000E+00 -0.00000000000E+00 -0.74505805969E-08  0.93827000000E+00  0.93827000000E+00 0. -1.
     999902    2    1    2    0    0  0.74186317438E-02 -0.35923130049E-02 -0.24233310835E-01  0.10183332392E+01  0.10180114891E+01 0.  0.
     999903    2    3    3    0    0 -0.48780481099E-01  0.45063365436E-01  0.10480524999E+00  0.12582180201E+00  0.20898401740E-01 0.  0.
         14    1    1    2    0    0 -0.74186317438E-02  0.35923130049E-02  0.24233310835E-01  0.25596760804E-01  0.00000000000E+00 0.  1.
     999901    1    3    3    0    0  0.56199112843E-01 -0.48655678441E-01 -0.12903856082E+00  0.89251143719E+00  0.88000000000E+00 0. -1.
        -11    1    4    4    0    0 -0.14696584194E-01  0.23845949957E-01  0.56048603027E-01  0.62660401679E-01  0.51100000000E-03 0. -1.
         11    1    4    4    0    0 -0.34083896905E-01  0.21217415478E-01  0.48756646961E-01  0.63161400331E-01  0.51100000000E-03 0.  1.
</event>
<event>
 8    1  0.1051655E+005  0.1043930E+01  0.7957747E-01            NaN
         13   -1    0    0    0    0  0.00000000000E+00  0.00000000000E+00  0.74505805969E-08  0.10566000000E+00  0.10566000000E+00 0.  1.
     999900   -1    0    0    0    0 -0.00000000000E+00 -0.00000000000E+00 -0.74505805969E-08  0.93827000000E+00  0.93827000000E+00 0. -1.
     999902    2    1    2    0    0 -0.21889437115E-01  0.14206515805E-03 -0.15285754279E-01  0.10172312749E+01  0.10168808409E+01 0.  0.
     999903    2    3    3    0    0  0.13189304930E-01  0.89231056201E-01  0.86146575221E-01  0.12624536929E+00  0.19506965172E-01 0.  0.
         14    1    1    2    0    0  0.21889437115E-01 -0.14206515805E-03  0.15285754279E-01  0.26698725131E-01  0.00000000000E+00 0. -1.
     999901    1    3    3    0    0 -0.35078742045E-01 -0.89088991043E-01 -0.10143232950E+00  0.89098590558E+00  0.88000000000E+00 0. -1.
        -11    1    4    4    0    0 -0.20015749420E-02  0.48334908298E-01  0.50167484794E-01  0.69694385097E-01  0.51100000000E-03 0. -1.
         11    1    4    4    0    0  0.15190879872E-01  0.40896147903E-01  0.35979090427E-01  0.56550984196E-01  0.51100000000E-03 0.  1.
</event>
<event>
 8    1  0.1051655E+005  0.1043930E+01  0.7957747E-01            NaN
         13   -1    0    0    0    0  0.00000000000E+00  0.00000000000E+00  0.74505805969E-08  0.10566000000E+00  0.10566000000E+00 0.  1.
     999900   -1    0    0    0    0 -0.00000000000E+00 -0.00000000000E+00 -0.74505805969E-08  0.93827000000E+00  0.93827000000E+00 0. -1.
     999902    2    1    2    0    0  0.24319037137E-01 -0.13065709204E-02 -0.10077249799E-02  0.10195550497E+01  0.10192636367E+01 0.  0.
     999903    2    3    3    0    0  0.69180655095E-01  0.90773074674E-01  0.62084979266E-01  0.13137043189E+00  0.19440462946E-01 0.  0.
         14    1    1    2    0    0 -0.24319037137E-01  0.13065709204E-02  0.10077249799E-02  0.24374950348E-01  0.00000000000E+00 0. -1.
     999901    1    3    3    0    0 -0.44861617959E-01 -0.92079645595E-01 -0.63092704246E-01  0.88818461776E+00  0.88000000000E+00 0. -1.
        -11    1    4    4    0    0  0.14853026678E-01  0.33587428196E-01  0.16480075107E-01  0.40256449556E-01  0.51100000000E-03 0.  1.
         11    1    4    4    0    0  0.54327628417E-01  0.57185646478E-01  0.45604904159E-01  0.91113982335E-01  0.51100000000E-03 0. -1.
</event>
<event>
 8    1  0.1051655E+005  0.1043930E+01  0.7957747E-01            NaN
         13   -1    0    0    0    0  0.00000000000E+00  0.00000000000E+00  0.74505805969E-08  0.10566000000E+00  0.10566000000E+00 0.  1.
     999900   -1    0    0    0    0 -0.00000000000E+00 -0.00000000000E+00 -0.74505805969E-08  0.93827000000E+00  0.93827000000E+00 0.  1.
     999902    2    1    2    0    0  0.12310252273E-01 -0.20311940032E-01 -0.39139324309E-02  0.10198585213E+01  0.10195744050E+01 0.  0.
     999903    2    3    3    0    0  0.41920781977E-01  0.97776938048E-01  0.71325544635E-01  0.12829655179E+00  0.74155450685E-02 0.  0.
         14    1    1    2    0    0 -0.12310252273E-01  0.20311940032E-01  0.39139324309E-02  0.24071478682E-01  0.00000000000E+00 0. -1.
     999901    1    3    3    0    0 -0.29610529704E-01 -0.11808887808E+00 -0.75239477066E-01  0.89156196953E+00  0.88000000000E+00 0. -1.
        -11    1    4    4    0    0  0.37079125042E-01  0.91175283084E-01  0.65316883497E-01  0.11812853233E+00  0.51100000000E-03 0.  1.
         11    1    4    4    0    0  0.48416569354E-02  0.66016549640E-02  0.60086611375E-02  0.10168019463E-01  0.51100000000E-03 0. -1.
</event>
<event>
 8    1  0.1051655E+005  0.1043930E+01  0.7957747E-01            NaN
         13   -1    0    0    0    0  0.00000000000E+00  0.00000000000E+00  0.74505805969E-08  0.10566000000E+00  0.10566000000E+00 0.  1.
     999900   -1    0    0    0    0 -0.00000000000E+00 -0.00000000000E+00 -0.74505805969E-08  0.93827000000E+00  0.93827000000E+00 0. -1.
     999902    2    1    2    0    0 -0.21878079762E-01  0.32245611102E-02 -0.10507117839E-01  0.10194463791E+01  0.10191523302E+01 0.  0.
     999903    2    3    3    0    0  0.97868051317E-01 -0.58948557871E-01  0.51618900479E-01  0.12699790729E+00  0.20269919247E-01 0.  0.
         14    1    1    2    0    0  0.21878079762E-01 -0.32245611102E-02  0.10507117839E-01  0.24483620927E-01  0.00000000000E+00 0.  1.
     999901    1    3    3    0    0 -0.11974613108E+00  0.62173118981E-01 -0.62126018319E-01  0.89244847178E+00  0.88000000000E+00 0. -1.
        -11    1    4    4    0    0  0.45578921243E-01 -0.39198929425E-01  0.27888490830E-01  0.66272340924E-01  0.51100000000E-03 0. -1.
         11    1    4    4    0    0  0.52289130074E-01 -0.19749628446E-01  0.23730409649E-01  0.60725566368E-01  0.51100000000E-03 0.  1.
</event>
<event>
 8    1  0.1051655E+005  0.1043930E+01  0.7957747E-01            NaN
         13   -1    0    0    0    0  0.00000000000E+00  0.00000000000E+00  0.74505805969E-08  0.10566000000E+00  0.10566000000E+00 0. -1.
     999900   -1    0    0    0    0 -0.00000000000E+00 -0.00000000000E+00 -0.74505805969E-08  0.93827000000E+00  0.93827000000E+00 0.  1.
     999902    2    1    2    0    0  0.61082666997E-03 -0.89395771848E-02  0.22293336479E-01  0.10199033065E+01  0.10196202590E+01 0.  0.
     999903    2    3    3    0    0  0.12108012580E+00 -0.44275905272E-01  0.12401502209E-01  0.13093797730E+00  0.19240685850E-01 0.  0.
         14    1    1    2    0    0 -0.61082666997E-03  0.89395771848E-02 -0.22293336479E-01  0.24026693506E-01  0.00000000000E+00 0.  1.
     999901    1    3    3    0    0 -0.12046929913E+00  0.35336328087E-01  0.98918342702E-02  0.88896532919E+00  0.88000000000E+00 0. -1.
        -11    1    4    4    0    0  0.56065502533E-01 -0.11881679275E-01  0.10541309257E-01  0.58274309936E-01  0.51100000000E-03 0. -1.
         11    1    4    4    0    0  0.65014623268E-01 -0.32394225998E-01  0.18601929513E-02  0.72663667369E-01  0.51100000000E-03 0.  1.
</event>
<event>
 8    1  0.1051655E+005  0.1043930E+01  0.7957747E-01            NaN
         13   -1    0    0    0    0  0.00000000000E+00  0.00000000000E+00  0.74505805969E-08  0.10566000000E+00  0.10566000000E+00 0. -1.
     999900   -1    0    0    0    0 -0.00000000000E+00 -0.00000000000E+00 -0.74505805969E-08  0.93827000000E+00  0.93827000000E+00 0. -1.
     999902    2    1    2    0    0 -0.67600982454E-02  0.47876080677E-03 -0.22149041970E-01  0.10207673533E+01  0.10205045230E+01 0.  0.
     999903    2    3    3    0    0  0.54426927712E-02 -0.12888471722E+00  0.72902756288E-02  0.13073898807E+00  0.19966012258E-01 0.  0.
         14    1    1    2    0    0  0.67600982454E-02 -0.47876080677E-03  0.22149041970E-01  0.23162646662E-01  0.00000000000E+00 0. -1.
     999901    1    3    3    0    0 -0.12202791017E-01  0.12936347803E+00 -0.29439317598E-01  0.89002836527E+00  0.88000000000E+00 0. -1.
        -11    1    4    4    0    0  0.12356887790E-01 -0.61510622364E-01  0.14594146378E-02  0.62758587871E-01  0.51100000000E-03 0.  1.
         11    1    4    4    0    0 -0.69141950183E-02 -0.67374094858E-01  0.58308609910E-02  0.67980400202E-01  0.51100000000E-03 0. -1.
</event>
<event>
 8    1  0.1051655E+005  0.1043930E+01  0.7957747E-01            NaN
         13   -1    0    0    0    0  0.00000000000E+00  0.00000000000E+00  0.74505805969E-08  0.10566000000E+00  0.10566000000E+00 0.  1.
     999900   -1    0    0    0    0 -0.00000000000E+00 -0.00000000000E+00 -0.74505805969E-08  0.93827000000E+00  0.93827000000E+00 0. -1.
     999902    2    1    2    0    0  0.23513308115E-02  0.21047910127E-01  0.97453306186E-02  0.10206165973E+01  0.10203502947E+01 0.  0.
     999903    2    3    3    0    0 -0.72603599009E-01  0.17168059983E-01  0.10714386561E+00  0.13206734746E+00  0.19898528975E-01 0.  0.
         14    1    1    2    0    0 -0.23513308115E-02 -0.21047910127E-01 -0.97453306186E-02  0.23313402715E-01  0.00000000000E+00 0. -1.
     999901    1    3    3    0    0  0.74954929821E-01  0.38798501440E-02 -0.97398534991E-01  0.88854924982E+00  0.88000000000E+00 0. -1.
        -11    1    4    4    0    0 -0.50061455083E-01  0.12188451337E-01  0.88423260054E-01  0.10234081136E+00  0.51100000000E-03 0. -1.
         11    1    4    4    0    0 -0.22542143927E-01  0.49796086459E-02  0.18720605555E-01  0.29726536099E-01  0.51100000000E-03 0.  1.
</event>
<event>
 8    1  0.1051655E+005  0.1043930E+01  0.7957747E-01            NaN
         13   -1    0    0    0    0  0.00000000000E+00  0.00000000000E+00  0.74505805969E-08  0.10566000000E+00  0.10566000000E+00 0.  1.
     999900   -1    0    0    0    0 -0.00000000000E+00 -0.00000000000E+00 -0.74505805969E-08  0.93827000000E+00  0.93827000000E+00 0.  1.
     999902    2    1    2    0    0  0.12170797689E-01 -0.63036846510E-02 -0.19655966183E-01  0.10199670752E+01  0.10196855460E+01 0.  0.
     999903    2    3    3    0    0  0.66604987310E-01  0.96007242388E-01  0.52218813360E-01  0.12946351504E+00  0.19503392835E-01 0.  0.
         14    1    1    2    0    0 -0.12170797689E-01  0.63036846510E-02  0.19655966183E-01  0.23962924762E-01  0.00000000000E+00 0.  1.
     999901    1    3    3    0    0 -0.54434189622E-01 -0.10231092704E+00 -0.71874779544E-01  0.89050356020E+00  0.88000000000E+00 0.  1.
        -11    1    4    4    0    0  0.47987609840E-01  0.54009956869E-01  0.36175944567E-01  0.80801276137E-01  0.51100000000E-03 0.  1.
         11    1    4    4    0    0  0.18617377470E-01  0.41997285519E-01  0.16042868794E-01  0.48662238902E-01  0.51100000000E-03 0. -1.
</event>
<event>
 8    1  0.1051655E+005  0.1043930E+01  0.7957747E-01            NaN
         13   -1    0    0    0    0  0.00000000000E+00  0.00000000000E+00  0.74505805969E-08  0.10566000000E+00  0.10566000000E+00 0. -1.
     999900   -1    0    0    0    0 -0.00000000000E+00 -0.00000000000E+00 -0.74505805969E-08  0.93827000000E+00  0.93827000000E+00 0.  1.
     999902    2    1    2    0    0  0.10473829672E-01  0.95833360769E-02  0.18617477208E-01  0.10205173561E+01  0.10202487550E+01 0.  0.
     999903    2    3    3    0    0  0.14459066469E-03  0.12315942308E+00 -0.40067800236E-01  0.13121977791E+00  0.21093532185E-01 0.  0.
         14    1    1    2    0    0 -0.10473829672E-01 -0.95833360769E-02 -0.18617477208E-01  0.23412643934E-01  0.00000000000E+00 0.  1.
     999901    1    3    3    0    0  0.10329239008E-01 -0.11357608700E+00  0.58685277444E-01  0.88929757815E+00  0.88000000000E+00 0.  1.
        -11    1    4    4    0    0  0.46498482059E-02  0.94709885412E-02 -0.72177629062E-02  0.12793667756E-01  0.51100000000E-03 0. -1.
         11    1    4    4    0    0 -0.45052575412E-02  0.11368843454E+00 -0.32850037330E-01  0.11842611016E+00  0.51100000000E-03 0.  1.
</event>
<event>
 8    1  0.1051655E+005  0.1043930E+01  0.7957747E-01            NaN
         13   -1    0    0    0    0  0.00000000000E+00  0.00000000000E+00  0.74505805969E-08  0.10566000000E+00  0.10566000000E+00 0. -1.
     999900   -1    0    0    0    0 -0.00000000000E+00 -0.00000000000E+00 -0.74505805969E-08  0.93827000000E+00  0.93827000000E+00 0. -1.
     999902    2    1    2    0    0  0.47734667141E-02  0.14227338122E-01  0.17202023555E-01  0.10211021059E+01  0.10208469023E+01 0.  0.
     999903    2    3    3    0    0  0.12674409083E+00  0.30576469353E-01  0.12357568532E-01  0.13252594373E+00  0.20283767454E-01 0.  0.
         14    1    1    2    0    0 -0.47734667141E-02 -0.14227338122E-01 -0.17202023555E-01  0.22827894097E-01  0.00000000000E+00 0.  1.
     999901    1    3    3    0    0 -0.12197062412E+00 -0.16349131231E-01  0.48444550228E-02  0.88857616217E+00  0.88000000000E+00 0.  1.
        -11    1    4    4    0    0  0.61953017237E-01  0.25314330056E-01  0.52731120837E-02  0.67134629537E-01  0.51100000000E-03 0. -1.
         11    1    4    4    0    0  0.64791073595E-01  0.52621392970E-02  0.70844564486E-02  0.65391314192E-01  0.51100000000E-03 0.  1.
</event>
<event>
 8    1  0.1051655E+005  0.1043930E+01  0.7957747E-01            NaN
         13   -1    0    0    0    0  0.00000000000E+00  0.00000000000E+00  0.74505805969E-08  0.10566000000E+00  0.10566000000E+00 0.  1.
     999900   -1    0    0    0    0 -0.00000000000E+00 -0.00000000000E+00 -0.74505805969E-08  0.93827000000E+00  0.93827000000E+00 0. -1.
     999902    2    1    2    0    0  0.74884499141E-02 -0.22180508880E-01 -0.15520686649E-02  0.10204680995E+01  0.10201983539E+01 0.  0.
     999903    2    3    3    0    0 -0.51394352621E-01  0.31548676752E-01 -0.11325551951E+00  0.12983255637E+00  0.19823761168E-01 0.  0.
         14    1    1    2    0    0 -0.74884499141E-02  0.22180508880E-01  0.15520686649E-02  0.23461900465E-01  0.00000000000E+00 0.  1.
     999901    1    3    3    0    0  0.58882802536E-01 -0.53729185632E-01  0.11170345085E+00  0.89063554317E+00  0.88000000000E+00 0.  1.
        -11    1    4    4    0    0 -0.29124388351E-01  0.28642872427E-01 -0.68539207635E-01  0.79790527269E-01  0.51100000000E-03 0. -1.
         11    1    4    4    0    0 -0.22269964271E-01  0.29058043250E-02 -0.44716311877E-01  0.50042029098E-01  0.51100000000E-03 0.  1.
</event>
<event>
 8    1  0.1051655E+005  0.1043930E+01  0.7957747E-01            NaN
         13   -1    0    0    0    0  0.00000000000E+00  0.00000000000E+00  0.74505805969E-08  0.10566000000E+00  0.10566000000E+00 0. -1.
     999900   -1    0    0    0    0 -0.00000000000E+00 -0.00000000000E+00 -0.74505805969E-08  0.93827000000E+00  0.93827000000E+00 0. -1.
     999902    2    1    2    0    0 -0.12973528530E-01 -0.18060424540E-01  0.76990253581E-02  0.10203977590E+01  0.10201263746E+01 0.  0.
     999903    2    3    3    0    0 -0.26199066869E-01 -0.11252326447E+00 -0.61749285601E-01  0.13252321214E+00  0.20038745726E-01 0.  0.
         14    1    1    2    0    0  0.12973528530E-01  0.18060424540E-01 -0.76990253581E-02  0.23532241044E-01  0.00000000000E+00 0.  1.
     999901    1    3    3    0    0  0.13225538339E-01  0.94462839933E-01  0.69448310959E-01  0.88787454682E+00  0.88000000000E+00 0.  1.
        -11    1    4    4    0    0  0.13095290089E-02 -0.33380561868E-01 -0.15717294851E-01  0.36922503372E-01  0.51100000000E-03 0.  1.
         11    1    4    4    0    0 -0.27508595878E-01 -0.79142702606E-01 -0.46031990750E-01  0.95600708765E-01  0.51100000000E-03 0. -1.
</event>
<event>
 8    1  0.1051655E+005  0.1043930E+01  0.7957747E-01            NaN
         13   -1    0    0    0    0  0.00000000000E+00  0.00000000000E+00  0.74505805969E-08  0.10566000000E+00  0.10566000000E+00 0.  1.
     999900   -1    0    0    0    0 -0.00000000000E+00 -0.00000000000E+00 -0.74505805969E-08  0.93827000000E+00  0.93827000000E+00 0. -1.
     999902    2    1    2    0    0 -0.66598480901E-02  0.17310552044E-01  0.14268763480E-01  0.10205290086E+01  0.10202606779E+01 0.  0.
     999903    2    3    3    0    0  0.42035860163E-01 -0.11628470545E+00  0.31601590686E-01  0.12894648759E+00  0.18422536920E-01 0.  0.
         14    1    1    2    0    0  0.66598480901E-02 -0.17310552044E-01 -0.14268763480E-01  0.23400991430E-01  0.00000000000E+00 0. -1.
     999901    1    3    3    0    0 -0.48695708253E-01  0.13359525749E+00 -0.17332827206E-01  0.89158252098E+00  0.88000000000E+00 0. -1.
        -11    1    4    4    0    0  0.16143717291E-01 -0.69713669171E-01  0.14815159697E-01  0.73077803437E-01  0.51100000000E-03 0.  1.
         11    1    4    4    0    0  0.25892142872E-01 -0.46571036274E-01  0.16786430988E-01  0.55868684149E-01  0.51100000000E-03 0. -1.
</event>
<event>
 8    1  0.1051655E+005  0.1043930E+01  0.7957747E-01            NaN
         13   -1    0    0    0    0  0.00000000000E+00  0.00000000000E+00  0.74505805969E-08  0.10566000000E+00  0.10566000000E+00 0.  1.
     999900   -1    0    0    0    0 -0.00000000000E+00 -0.00000000000E+00 -0.74505805969E-08  0.93827000000E+00  0.93827000000E+00 0.  1.
     999902    2    1    2    0    0 -0.23147844134E-01  0.18086372571E-02 -0.29718372373E-02  0.10205221878E+01  0.10202536989E+01 0.  0.
     999903    2    3    3    0    0 -0.82318750252E-01 -0.10071562361E+00 -0.15512214716E-01  0.13250772772E+00  0.19941304296E-01 0.  0.
         14    1    1    2    0    0  0.23147844134E-01 -0.18086372571E-02  0.29718372373E-02  0.23407812229E-01  0.00000000000E+00 0.  1.
     999901    1    3    3    0    0  0.59170906118E-01  0.10252426087E+00  0.12540377478E-01  0.88801446005E+00  0.88000000000E+00 0. -1.
        -11    1    4    4    0    0 -0.32210947280E-01 -0.34024155653E-01 -0.14619880120E-01  0.49083503424E-01  0.51100000000E-03 0.  1.
         11    1    4    4    0    0 -0.50107802972E-01 -0.66691467957E-01 -0.89233459583E-03  0.83424224293E-01  0.51100000000E-03 0. -1.
</event>
<event>
 8    1  0.1051655E+005  0.1043930E+01  0.7957747E-01            NaN
         13   -1    0    0    0    0  0.00000000000E+00  0.00000000000E+00  0.74505805969E-08  0.10566000000E+00  0.10566000000E+00 0.  1.
     999900   -1    0    0    0    0 -0.00000000000E+00 -0.00000000000E+00 -0.74505805969E-08  0.93827000000E+00  0.93827000000E+00 0.  1.
     999902    2    1    2    0    0 -0.18427778447E-01  0.13449553156E-01 -0.52466850169E-02  0.10205205745E+01  0.10202520482E+01 0.  0.
     999903    2    3    3    0    0 -0.49525183155E-02  0.43962336025E-01 -0.12283813034E+00  0.13207228643E+00  0.19916529588E-01 0.  0.
         14    1    1    2    0    0  0.18427778447E-01 -0.13449553156E-01  0.52466850169E-02  0.23409425501E-01  0.00000000000E+00 0. -1.
     999901    1    3    3    0    0 -0.13475260132E-01 -0.30512782869E-01  0.11759144533E+00  0.88844828807E+00  0.88000000000E+00 0. -1.
        -11    1    4    4    0    0 -0.10706692339E-01  0.12503774728E-01 -0.44989029323E-01  0.47908783368E-01  0.51100000000E-03 0. -1.
         11    1    4    4    0    0  0.57541740236E-02  0.31458561297E-01 -0.77849101021E-01  0.84163503065E-01  0.51100000000E-03 0.  1.
</event>
<event>
 8    1  0.1051655E+005  0.1043930E+01  0.7957747E-01            NaN
         13   -1    0    0    0    0  0.00000000000E+00  0.00000000000E+00  0.74505805969E-08  0.10566000000E+00  0.10566000000E+00 0. -1.
     999900   -1    0    0    0    0 -0.00000000000E+00 -0.00000000000E+00 -0.74505805969E-08  0.93827000000E+00  0.93827000000E+00 0. -1.
     999902    2    1    2    0    0 -0.46086318408E-02  0.19873732314E-01  0.11538812201E-01  0.10204918066E+01  0.10202226122E+01 0.  0.
     999903    2    3    3    0    0  0.30034509017E-01 -0.11919396912E+00  0.32300549943E-01  0.12865604674E+00  0.19994469931E-01 0.  0.
         14    1    1    2    0    0  0.46086318408E-02 -0.19873732314E-01 -0.11538812201E-01  0.23438193415E-01  0.00000000000E+00 0.  1.
     999901    1    3    3    0    0 -0.34643140858E-01  0.13906770144E+00 -0.20761737742E-01  0.89183575985E+00  0.88000000000E+00 0. -1.
        -11    1    4    4    0    0  0.24610809334E-01 -0.79067657475E-01  0.30066014046E-01  0.88100015416E-01  0.51100000000E-03 0.  1.
         11    1    4    4    0    0  0.54236996831E-02 -0.40126311648E-01  0.22345358968E-02  0.40556031320E-01  0.51100000000E-03 0. -1.
</event>
<event>
 8    1  0.1051655E+005  0.1043930E+01  0.7957747E-01            NaN
         13   -1    0    0    0    0  0.00000000000E+00  0.00000000000E+00  0.74505805969E-08  0.10566000000E+00  0.10566000000E+00 0.  1.
     999900   -1    0    0    0    0 -0.00000000000E+00 -0.00000000000E+00 -0.74505805969E-08  0.93827000000E+00  0.93827000000E+00 0. -1.
     999902    2    1    2    0    0  0.80548850683E-02 -0.26248925520E-02  0.22224622719E-01  0.10201454443E+01  0.10198681397E+01 0.  0.
     999903    2    3    3    0    0  0.13608126668E-01 -0.73604028641E-01  0.10821858795E+00  0.13309198577E+00  0.19986989612E-01 0.  0.
         14    1    1    2    0    0 -0.80548850683E-02  0.26248925520E-02 -0.22224622719E-01  0.23784555690E-01  0.00000000000E+00 0. -1.
     999901    1    3    3    0    0 -0.55532415994E-02  0.70979136089E-01 -0.85993965235E-01  0.88705345854E+00  0.88000000000E+00 0. -1.
        -11    1    4    4    0    0 -0.39339207676E-03 -0.32550821440E-01  0.59768527480E-01  0.68060625414E-01  0.51100000000E-03 0.  1.
         11    1    4    4    0    0  0.14001518744E-01 -0.41053207201E-01  0.48450060474E-01  0.65031360355E-01  0.51100000000E-03 0. -1.
</event>
<event>
 8    1  0.1051655E+005  0.1043930E+01  0.7957747E-01            NaN
         13   -1    0    0    0    0  0.00000000000E+00  0.00000000000E+00  0.74505805969E-08  0.10566000000E+00  0.10566000000E+00 0. -1.
     999900   -1    0    0    0    0 -0.00000000000E+00 -0.00000000000E+00 -0.74505805969E-08  0.93827000000E+00  0.93827000000E+00 0.  1.
     999902    2    1    2    0    0  0.17646647021E-01 -0.11747547002E-01  0.92973976510E-02  0.10207815526E+01  0.10205190481E+01 0.  0.
     999903    2    3    3    0    0  0.12749195359E+00 -0.33112850482E-01  0.11402709263E-01  0.13369254928E+00  0.19824652719E-01 0.  0.
         14    1    1    2    0    0 -0.17646647021E-01  0.11747547002E-01 -0.92973976510E-02  0.23148447350E-01  0.00000000000E+00 0.  1.
     999901    1    3    3    0    0 -0.10984530657E+00  0.21365303480E-01 -0.21053116123E-02  0.88708900337E+00  0.88000000000E+00 0.  1.
        -11    1    4    4    0    0  0.54982422464E-01 -0.15016043638E-01 -0.48700790339E-02  0.57206006130E-01  0.51100000000E-03 0. -1.
         11    1    4    4    0    0  0.72509531129E-01 -0.18096806845E-01  0.16272788297E-01  0.76486543147E-01  0.51100000000E-03 0.  1.
</event>
<event>
 8    1  0.1051655E+005  0.1043930E+01  0.7957747E-01            NaN
         13   -1    0    0    0    0  0.00000000000E+00  0.00000000000E+00  0.74505805969E-08  0.10566000000E+00  0.10566000000E+00 0. -1.
     999900   -1    0    0    0    0 -0.00000000000E+00 -0.00000000000E+00 -0.74505805969E-08  0.93827000000E+00  0.93827000000E+00 0. -1.
     999902    2    1    2    0    0  0.65024625560E-02 -0.75180033429E-02  0.10782224993E-01  0.10292651178E+01  0.10291606405E+01 0.  0.
     999903    2    3    3    0    0 -0.19784471242E-01  0.13419477398E+00 -0.79054995069E-02  0.13734430004E+00  0.20032402904E-01 0.  0.
         14    1    1    2    0    0 -0.65024625560E-02  0.75180033429E-02 -0.10782224993E-01  0.14664882180E-01  0.00000000000E+00 0.  1.
     999901    1    3    3    0    0  0.26286933798E-01 -0.14171277732E+00  0.18687724500E-01  0.89192081778E+00  0.88000000000E+00 0. -1.
        -11    1    4    4    0    0 -0.17474465436E-01  0.67473379067E-01  0.26500519081E-02  0.69751686152E-01  0.51100000000E-03 0. -1.
         11    1    4    4    0    0 -0.23100058061E-02  0.66721394909E-01 -0.10555551415E-01  0.67592613887E-01  0.51100000000E-03 0.  1.
</event>
<event>
 8    1  0.1051655E+005  0.1043930E+01  0.7957747E-01            NaN
         13   -1    0    0    0    0  0.00000000000E+00  0.00000000000E+00  0.74505805969E-08  0.10566000000E+00  0.10566000000E+00 0.  1.
     999900   -1    0    0    0    0 -0.00000000000E+00 -0.00000000000E+00 -0.74505805969E-08  0.93827000000E+00  0.93827000000E+00 0.  1.
     999902    2    1    2    0    0  0.11586151756E-02  0.11922213960E-01  0.20121136131E-01  0.10205133031E+01  0.10202446080E+01 0.  0.
     999903    2    3    3    0    0 -0.60216408483E-01  0.40382419105E-02 -0.11240672339E+00  0.12844117367E+00  0.14816895198E-01 0.  0.
         14    1    1    2    0    0 -0.11586151756E-02 -0.11922213960E-01 -0.20121136131E-01  0.23416696907E-01  0.00000000000E+00 0. -1.
     999901    1    3    3    0    0  0.61375023659E-01  0.78839720491E-02  0.13252785952E+00  0.89207212942E+00  0.88000000000E+00 0. -1.
        -11    1    4    4    0    0 -0.34525072816E-02 -0.93871202746E-03 -0.16428294259E-01  0.16821146218E-01  0.51100000000E-03 0. -1.
         11    1    4    4    0    0 -0.56763901202E-01  0.49769539380E-02 -0.95978429126E-01  0.11162002745E+00  0.51100000000E-03 0.  1.
</event>
<event>
 8    1  0.1051655E+005  0.1043930E+01  0.7957747E-01            NaN
         13   -1    0    0    0    0  0.00000000000E+00  0.00000000000E+00  0.74505805969E-08  0.10566000000E+00  0.10566000000E+00 0.  1.
     999900   -1    0    0    0    0 -0.00000000000E+00 -0.00000000000E+00 -0.74505805969E-08  0.93827000000E+00  0.93827000000E+00 0. -1.
     999902    2    1    2    0    0 -0.38655862910E-02 -0.14941609171E-01  0.18670117485E-01  0.10197067110E+01  0.10194189565E+01 0.  0.
     999903    2    3    3    0    0  0.32671701878E-01  0.79084395077E-01  0.96244419585E-01  0.13055338608E+00  0.21434007286E-01 0.  0.
         14    1    1    2    0    0  0.38655862910E-02  0.14941609171E-01 -0.18670117485E-01  0.24223288978E-01  0.00000000000E+00 0. -1.
     999901    1    3    3    0    0 -0.36537288169E-01 -0.94026004249E-01 -0.77574302100E-01  0.88915332494E+00  0.88000000000E+00 0. -1.
        -11    1    4    4    0    0  0.15143448641E-01  0.61483379711E-01  0.67274605378E-01  0.92388655512E-01  0.51100000000E-03 0.  1.
         11    1    4    4    0    0  0.17528253237E-01  0.17601015366E-01  0.28969814207E-01  0.38164730573E-01  0.51100000000E-03 0. -1.
</event>
<event>
 8    1  0.1051655E+005  0.1043930E+01  0.7957747E-01            NaN
         13   -1    0    0    0    0  0.00000000000E+00  0.00000000000E+00  0.74505805969E-08  0.10566000000E+00  0.10566000000E+00 0.  1.
     999900   -1    0    0    0    0 -0.00000000000E+00 -0.00000000000E+00 -0.74505805969E-08  0.93827000000E+00  0.93827000000E+00 0.  1.
     999902    2    1    2    0    0 -0.16475459952E-01  0.74917135847E-03 -0.16226612130E-01  0.10207933412E+01  0.10205311071E+01 0.  0.
     999903    2    3    3    0    0  0.12557501330E+00  0.19194692185E-01  0.78995870434E-02  0.12888491112E+00  0.20282915601E-01 0.  0.
         14    1    1    2    0    0  0.16475459952E-01 -0.74917135847E-03  0.16226612130E-01  0.23136658782E-01  0.00000000000E+00 0.  1.
     999901    1    3    3    0    0 -0.14205047326E+00 -0.18445520827E-01 -0.24126199174E-01  0.89190843010E+00  0.88000000000E+00 0. -1.
        -11    1    4    4    0    0  0.44667760972E-01 -0.25936105978E-02  0.26660116813E-03  0.44746708073E-01  0.51100000000E-03 0. -1.
         11    1    4    4    0    0  0.80907252331E-01  0.21788302783E-01  0.76329858753E-02  0.84138203049E-01  0.51100000000E-03 0.  1.
</event>
<event>
 8    1  0.1051655E+005  0.1043930E+01  0.7957747E-01            NaN
         13   -1    0    0    0    0  0.00000000000E+00  0.00000000000E+00  0.74505805969E-08  0.10566000000E+00  0.10566000000E+00 0. -1.
     999900   -1    0    0    0    0 -0.00000000000E+00 -0.00000000000E+00 -0.74505805969E-08  0.93827000000E+00  0.93827000000E+00 0. -1.
     999902    2    1    2    0    0  0.82607555153E-02 -0.29956308346E-02 -0.22316249841E-01  0.10199460701E+01  0.10196640413E+01 0.  0.
     999903    2    3    3    0    0  0.81520003838E-01  0.50719793581E-01 -0.89969532832E-01  0.13268667682E+00  0.17123927166E-01 0.  0.
         14    1    1    2    0    0 -0.82607555153E-02  0.29956308346E-02  0.22316249841E-01  0.23983929885E-01  0.00000000000E+00 0. -1.
     999901    1    3    3    0    0 -0.73259248323E-01 -0.53715424416E-01  0.67653282992E-01  0.88725939329E+00  0.88000000000E+00 0.  1.
        -11    1    4    4    0    0  0.52173135001E-01  0.32834763587E-01 -0.46218041841E-01  0.77048856113E-01  0.51100000000E-03 0.  1.
         11    1    4    4    0    0  0.29346868837E-01  0.17885029994E-01 -0.43751490991E-01  0.55637820710E-01  0.51100000000E-03 0. -1.
</event>
<event>
 8    1  0.1051655E+005  0.1043930E+01  0.7957747E-01            NaN
         13   -1    0    0    0    0  0.00000000000E+00  0.00000000000E+00  0.74505805969E-08  0.10566000000E+00  0.10566000000E+00 0.  1.
     999900   -1    0    0    0    0 -0.00000000000E+00 -0.00000000000E+00 -0.74505805969E-08  0.93827000000E+00  0.93827000000E+00 0.  1.
     999902    2    1    2    0    0 -0.21860872906E-01 -0.44619751752E-02 -0.21478563870E-02  0.10215152666E+01  0.10212693179E+01 0.  0.
     999903    2    3    3    0    0 -0.11382962544E+00  0.66042021304E-01 -0.14629431775E-01  0.13383015650E+00  0.19436005452E-01 0.  0.
         14    1    1    2    0    0  0.21860872906E-01  0.44619751752E-02  0.21478563870E-02  0.22414733408E-01  0.00000000000E+00 0. -1.
     999901    1    3    3    0    0  0.91968752534E-01 -0.70503996480E-01  0.12481575388E-01  0.88768511010E+00  0.88000000000E+00 0.  1.
        -11    1    4    4    0    0 -0.35239232879E-01  0.30961961046E-01 -0.69273110879E-02  0.47420410433E-01  0.51100000000E-03 0.  1.
         11    1    4    4    0    0 -0.78590392561E-01  0.35080060258E-01 -0.77021206872E-02  0.86409746063E-01  0.51100000000E-03 0. -1.
</event>
<event>
 8    1  0.1051655E+005  0.1043930E+01  0.7957747E-01            NaN
         13   -1    0    0    0    0  0.00000000000E+00  0.00000000000E+00  0.74505805969E-08  0.10566000000E+00  0.10566000000E+00 0.  1.
     999900   -1    0    0    0    0 -0.00000000000E+00 -0.00000000000E+00 -0.74505805969E-08  0.93827000000E+00  0.93827000000E+00 0. -1.
     999902    2    1    2    0    0  0.12760711354E-02 -0.21098920620E-01 -0.98163460812E-02  0.10206243471E+01  0.10203582235E+01 0.  0.
     999903    2    3    3    0    0 -0.32455144168E-02 -0.82094168768E-01 -0.10422510204E+00  0.13346377634E+00  0.14132295987E-01 0.  0.
         14    1    1    2    0    0 -0.12760711354E-02  0.21098920620E-01  0.98163460812E-02  0.23305652947E-01  0.00000000000E+00 0. -1.
     999901    1    3    3    0    0  0.45215855522E-02  0.60995248148E-01  0.94408755956E-01  0.88716057072E+00  0.88000000000E+00 0.  1.
        -11    1    4    4    0    0 -0.42342726615E-02 -0.69200185371E-01 -0.78973676027E-01  0.10508899727E+00  0.51100000000E-03 0.  1.
         11    1    4    4    0    0  0.98875824470E-03 -0.12893983397E-01 -0.25251426010E-01  0.28374779070E-01  0.51100000000E-03 0. -1.
</event>
<event>
 8    1  0.1051655E+005  0.1043930E+01  0.7957747E-01            NaN
         13   -1    0    0    0    0  0.00000000000E+00  0.00000000000E+00  0.74505805969E-08  0.10566000000E+00  0.10566000000E+00 0. -1.
     999900   -1    0    0    0    0 -0.00000000000E+00 -0.00000000000E+00 -0.74505805969E-08  0.93827000000E+00  0.93827000000E+00 0.  1.
     999902    2    1    2    0    0 -0.71545540088E-02  0.20473553282E-01 -0.79810514557E-02  0.10208204520E+01  0.10205588391E+01 0.  0.
     999903    2    3    3    0    0 -0.66401427328E-01 -0.78847286841E-01 -0.77619245838E-01  0.13052595049E+00  0.19652791989E-01 0.  0.
         14    1    1    2    0    0  0.71545540088E-02 -0.20473553282E-01  0.79810514557E-02  0.23109548014E-01  0.00000000000E+00 0. -1.
     999901    1    3    3    0    0  0.59246873319E-01  0.99320840123E-01  0.69638194383E-01  0.89029450150E+00  0.88000000000E+00 0.  1.
        -11    1    4    4    0    0 -0.25784190487E-01 -0.45118897668E-01 -0.42240763847E-01  0.66970759718E-01  0.51100000000E-03 0.  1.
         11    1    4    4    0    0 -0.40617236841E-01 -0.33728389173E-01 -0.35378481991E-01  0.63555190770E-01  0.51100000000E-03 0. -1.
</event>
<event>
 8    1  0.1531590E+005  0.1043930E+01  0.7957747E-01            NaN
         13   -1    0    0    0    0  0.00000000000E+00  0.00000000000E+00  0.74505805969E-08  0.10566000000E+00  0.10566000000E+00 0. -1.
     999900   -1    0    0    0    0 -0.00000000000E+00 -0.00000000000E+00 -0.74505805969E-08  0.93827000000E+00  0.93827000000E+00 0.  1.
     999902    2    1    2    0    0 -0.23375129568E-01  0.20607168519E-02 -0.11554909490E-02  0.10204357795E+01  0.10201652816E+01 0.  0.
     999903    2    3    3    0    0 -0.40730089129E-01 -0.11930692160E+00 -0.31466708830E-01  0.13141943085E+00  0.19693433911E-01 0.  0.
         14    1    1    2    0    0  0.23375129568E-01 -0.20607168519E-02  0.11554909490E-02  0.23494220472E-01  0.00000000000E+00 0. -1.
     999901    1    3    3    0    0  0.17354959561E-01  0.12136763845E+00  0.30311217881E-01  0.88901634868E+00  0.88000000000E+00 0. -1.
        -11    1    4    4    0    0 -0.21640353999E-01 -0.36831209011E-01 -0.14195409815E-01  0.45017925976E-01  0.51100000000E-03 0. -1.
         11    1    4    4    0    0 -0.19089735130E-01 -0.82475712587E-01 -0.17271299015E-01  0.86401504876E-01  0.51100000000E-03 0.  1.
</event>
<event>
 8    1  0.1051655E+005  0.1043930E+01  0.7957747E-01            NaN
         13   -1    0    0    0    0  0.00000000000E+00  0.00000000000E+00  0.74505805969E-08  0.10566000000E+00  0.10566000000E+00 0.  1.
     999900   -1    0    0    0    0 -0.00000000000E+00 -0.00000000000E+00 -0.74505805969E-08  0.93827000000E+00  0.93827000000E+00 0.  1.
     999902    2    1    2    0    0  0.11611716791E-01 -0.48142862916E-02 -0.22528711891E-01  0.10181317020E+01  0.10178047998E+01 0.  0.
     999903    2    3    3    0    0  0.12114337001E+00  0.32355991490E-01  0.23619697371E-01  0.12936374114E+00  0.21318094066E-01 0.  0.
         14    1    1    2    0    0 -0.11611716791E-01  0.48142862916E-02  0.22528711891E-01  0.25798297982E-01  0.00000000000E+00 0.  1.
     999901    1    3    3    0    0 -0.10953165322E+00 -0.37170277781E-01 -0.46148409262E-01  0.88876796088E+00  0.88000000000E+00 0. -1.
        -11    1    4    4    0    0  0.82397121944E-01  0.13400110434E-01  0.21341586516E-01  0.86165962540E-01  0.51100000000E-03 0.  1.
         11    1    4    4    0    0  0.38746248066E-01  0.18955881056E-01  0.22781108558E-02  0.43197778599E-01  0.51100000000E-03 0. -1.
</event>
<event>
 8    1  0.1051655E+005  0.1043930E+01  0.7957747E-01            NaN
         13   -1    0    0    0    0  0.00000000000E+00  0.00000000000E+00  0.74505805969E-08  0.10566000000E+00  0.10566000000E+00 0.  1.
     999900   -1    0    0    0    0 -0.00000000000E+00 -0.00000000000E+00 -0.74505805969E-08  0.93827000000E+00  0.93827000000E+00 0. -1.
     999902    2    1    2    0    0  0.32948291309E-02 -0.22795980011E-01  0.84951007578E-02  0.10193804717E+01  0.10190848182E+01 0.  0.
     999903    2    3    3    0    0  0.50097658567E-01 -0.40333120957E-01 -0.11090103862E+00  0.12991237543E+00  0.21015443894E-01 0.  0.
         14    1    1    2    0    0 -0.32948291309E-02  0.22795980011E-01 -0.84951007578E-02  0.24549528316E-01  0.00000000000E+00 0. -1.
     999901    1    3    3    0    0 -0.46802829437E-01  0.17537140946E-01  0.11939613938E+00  0.88946809625E+00  0.88000000000E+00 0.  1.
        -11    1    4    4    0    0  0.25188023049E-01 -0.30353808477E-01 -0.52765959236E-01  0.65880936312E-01  0.51100000000E-03 0.  1.
         11    1    4    4    0    0  0.24909635518E-01 -0.99793124798E-02 -0.58135079386E-01  0.64031439117E-01  0.51100000000E-03 0. -1.
</event>
<event>
 8    1  0.1051655E+005  0.1043930E+01  0.7957747E-01            NaN
         13   -1    0    0    0    0  0.00000000000E+00  0.00000000000E+00  0.74505805969E-08  0.10566000000E+00  0.10566000000E+00 0.  1.
     999900   -1    0    0    0    0 -0.00000000000E+00 -0.00000000000E+00 -0.74505805969E-08  0.93827000000E+00  0.93827000000E+00 0.  1.
     999902    2    1    2    0    0 -0.19253969704E-01 -0.64425922327E-02  0.12646178898E-01  0.10200103808E+01  0.10197298802E+01 0.  0.
     999903    2    3    3    0    0  0.76706706471E-01  0.18241840920E-01  0.10166920886E+00  0.12998629542E+00  0.18523644057E-01 0.  0.
         14    1    1    2    0    0  0.19253969704E-01  0.64425922327E-02 -0.12646178898E-01  0.23919619244E-01  0.00000000000E+00 0. -1.
     999901    1    3    3    0    0 -0.95960676174E-01 -0.24684433153E-01 -0.89023029964E-01  0.89002408533E+00  0.88000000000E+00 0.  1.
        -11    1    4    4    0    0  0.60598141712E-01  0.21864077486E-01  0.82726102397E-01  0.10485247638E+00  0.51100000000E-03 0. -1.
         11    1    4    4    0    0  0.16108564758E-01 -0.36222365655E-02  0.18943106465E-01  0.25133819046E-01  0.51100000000E-03 0.  1.
</event>
<event>
 8    1  0.1051655E+005  0.1043930E+01  0.7957747E-01            NaN
         13   -1    0    0    0    0  0.00000000000E+00  0.00000000000E+00  0.74505805969E-08  0.10566000000E+00  0.10566000000E+00 0.  1.
     999900   -1    0    0    0    0 -0.00000000000E+00 -0.00000000000E+00 -0.74505805969E-08  0.93827000000E+00  0.93827000000E+00 0.  1.
     999902    2    1    2    0    0 -0.27848145639E-02 -0.67976977536E-02 -0.23658335895E-01  0.10191574195E+01  0.10188563024E+01 0.  0.
     999903    2    3    3    0    0 -0.26719331067E-01 -0.50521984547E-01 -0.11814834188E+00  0.13269645840E+00  0.19568490169E-01 0.  0.
         14    1    1    2    0    0  0.27848145639E-02  0.67976977536E-02  0.23658335895E-01  0.24772580492E-01  0.00000000000E+00 0.  1.
     999901    1    3    3    0    0  0.23934516504E-01  0.43724286793E-01  0.94490005987E-01  0.88646096111E+00  0.88000000000E+00 0. -1.
        -11    1    4    4    0    0 -0.13595237778E-01 -0.41562165876E-01 -0.76519232665E-01  0.88134546071E-01  0.51100000000E-03 0.  1.
         11    1    4    4    0    0 -0.13124093290E-01 -0.89598186704E-02 -0.41629109217E-01  0.44561912330E-01  0.51100000000E-03 0. -1.
</event>
<event>
 8    1  0.1051655E+005  0.1043930E+01  0.7957747E-01            NaN
         13   -1    0    0    0    0  0.00000000000E+00  0.00000000000E+00  0.74505805969E-08  0.10566000000E+00  0.10566000000E+00 0.  1.
     999900   -1    0    0    0    0 -0.00000000000E+00 -0.00000000000E+00 -0.74505805969E-08  0.93827000000E+00  0.93827000000E+00 0.  1.
     999902    2    1    2    0    0  0.47913810196E-02  0.21205560255E-01  0.92851073494E-02  0.10202900690E+01  0.10200161659E+01 0.  0.
     999903    2    3    3    0    0  0.87416185718E-02 -0.12293278382E+00  0.29790374314E-01  0.12831925528E+00  0.19735238540E-01 0.  0.
         14    1    1    2    0    0 -0.47913810196E-02 -0.21205560255E-01 -0.92851073494E-02  0.23639930970E-01  0.00000000000E+00 0. -1.
     999901    1    3    3    0    0 -0.39502375522E-02  0.14413834408E+00 -0.20505266964E-01  0.89197081375E+00  0.88000000000E+00 0. -1.
        -11    1    4    4    0    0  0.19376318691E-02 -0.10956001396E+00  0.28657532655E-01  0.11326370281E+00  0.51100000000E-03 0.  1.
         11    1    4    4    0    0  0.68039867027E-02 -0.13372769863E-01  0.11328416590E-02  0.15055552467E-01  0.51100000000E-03 0. -1.
</event>
<event>
 8    1  0.1051655E+005  0.1043930E+01  0.7957747E-01            NaN
         13   -1    0    0    0    0  0.00000000000E+00  0.00000000000E+00  0.74505805969E-08  0.10566000000E+00  0.10566000000E+00 0. -1.
     999900   -1    0    0    0    0 -0.00000000000E+00 -0.00000000000E+00 -0.74505805969E-08  0.93827000000E+00  0.93827000000E+00 0. -1.
     999902    2    1    2    0    0  0.14742512079E-01  0.16471916828E-01 -0.11927155322E-01  0.10188118245E+01  0.10185021409E+01 0.  0.
     999903    2    3    3    0    0 -0.38347694067E-01 -0.10881000357E+00 -0.49907234875E-01  0.12754496435E+00  0.21606094508E-01 0.  0.
         14    1    1    2    0    0 -0.14742512079E-01 -0.16471916828E-01  0.11927155322E-01  0.25118175500E-01  0.00000000000E+00 0. -1.
     999901    1    3    3    0    0  0.53090206146E-01  0.12528192040E+00  0.37980079554E-01  0.89126686015E+00  0.88000000000E+00 0. -1.
        -11    1    4    4    0    0 -0.15599234740E-01 -0.69818779328E-01 -0.23812493945E-01  0.75400888988E-01  0.51100000000E-03 0. -1.
         11    1    4    4    0    0 -0.22748459327E-01 -0.38991224241E-01 -0.26094740931E-01  0.52144075357E-01  0.51100000000E-03 0.  1.
</event>
<event>
 8    1  0.1051655E+005  0.1043930E+01  0.7957747E-01            NaN
         13   -1    0    0    0    0  0.00000000000E+00  0.00000000000E+00  0.74505805969E-08  0.10566000000E+00  0.10566000000E+00 0.  1.
     999900   -1    0    0    0    0 -0.00000000000E+00 -0.00000000000E+00 -0.74505805969E-08  0.93827000000E+00  0.93827000000E+00 0.  1.
     999902    2    1    2    0    0 -0.56305447823E-02  0.13264440704E-01 -0.20098247685E-01  0.10191996951E+01  0.10188996175E+01 0.  0.
     999903    2    3    3    0    0  0.12550401125E+00  0.17719842857E-02  0.16311481711E-01  0.12866389190E+00  0.23107052508E-01 0.  0.
         14    1    1    2    0    0  0.56305447823E-02 -0.13264440704E-01  0.20098247685E-01  0.24730304926E-01  0.00000000000E+00 0.  1.
     999901    1    3    3    0    0 -0.13113455603E+00  0.11492456419E-01 -0.36409729396E-01  0.89053580317E+00  0.88000000000E+00 0.  1.
        -11    1    4    4    0    0  0.49198107893E-01 -0.27352888074E-02 -0.43837372956E-02  0.49471344218E-01  0.51100000000E-03 0.  1.
         11    1    4    4    0    0  0.76305903355E-01  0.45072730931E-02  0.20695219007E-01  0.79192547682E-01  0.51100000000E-03 0. -1.
</event>
<event>
 8    1  0.1051655E+005  0.1043930E+01  0.7957747E-01            NaN
         13   -1    0    0    0    0  0.00000000000E+00  0.00000000000E+00  0.74505805969E-08  0.10566000000E+00  0.10566000000E+00 0.  1.
     999900   -1    0    0    0    0 -0.00000000000E+00 -0.00000000000E+00 -0.74505805969E-08  0.93827000000E+00  0.93827000000E+00 0. -1.
     999902    2    1    2    0    0 -0.16193824647E-01  0.12722772036E-01  0.12829408023E-01  0.10196668058E+01  0.10193780909E+01 0.  0.
     999903    2    3    3    0    0 -0.39338638188E-01  0.10822317636E+00 -0.59673215976E-01  0.13123411831E+00  0.20042872741E-01 0.  0.
         14    1    1    2    0    0  0.16193824647E-01 -0.12722772036E-01 -0.12829408023E-01  0.24263194250E-01  0.00000000000E+00 0. -1.
     999901    1    3    3    0    0  0.23144813541E-01 -0.95500404328E-01  0.72502623999E-01  0.88843268744E+00  0.88000000000E+00 0. -1.
        -11    1    4    4    0    0 -0.99556574670E-02  0.10904267286E-01 -0.11585953970E-01  0.18775345831E-01  0.51100000000E-03 0. -1.
         11    1    4    4    0    0 -0.29382980721E-01  0.97318909077E-01 -0.48087262006E-01  0.11245877248E+00  0.51100000000E-03 0.  1.
</event>
<event>
 8    1  0.1051655E+005  0.1043930E+01  0.7957747E-01            NaN
         13   -1    0    0    0    0  0.00000000000E+00  0.00000000000E+00  0.74505805969E-08  0.10566000000E+00  0.10566000000E+00 0.  1.
     999900   -1    0    0    0    0 -0.00000000000E+00 -0.00000000000E+00 -0.74505805969E-08  0.93827000000E+00  0.93827000000E+00 0.  1.
     999902    2    1    2    0    0  0.68939837170E-02 -0.19497377021E-01  0.51652270804E-03  0.10232432526E+01  0.10230341209E+01 0.  0.
     999903    2    3    3    0    0  0.15348619067E-01  0.10725853655E+00 -0.71068996828E-01  0.13124379683E+00  0.20836461512E-01 0.  0.
         14    1    1    2    0    0 -0.68939837170E-02  0.19497377021E-01 -0.51652270804E-03  0.20686747397E-01  0.00000000000E+00 0. -1.
     999901    1    3    3    0    0 -0.84546353502E-02 -0.12675591357E+00  0.71585519536E-01  0.89199945577E+00  0.88000000000E+00 0.  1.
        -11    1    4    4    0    0  0.17559725070E-01  0.10498376222E+00 -0.66007450770E-01  0.12524846886E+00  0.51100000000E-03 0. -1.
         11    1    4    4    0    0 -0.22111060031E-02  0.22747743251E-02 -0.50615460581E-02  0.59953279714E-02  0.51100000000E-03 0.  1.
</event>
<event>
 8    1  0.1051655E+005  0.1043930E+01  0.7957747E-01            NaN
         13   -1    0    0    0    0  0.00000000000E+00  0.00000000000E+00  0.74505805969E-08  0.10566000000E+00  0.10566000000E+00 0. -1.
     999900   -1    0    0    0    0 -0.00000000000E+00 -0.00000000000E+00 -0.74505805969E-08  0.93827000000E+00  0.93827000000E+00 0. -1.
     999902    2    1    2    0    0  0.10843754813E-01 -0.98877214922E-02  0.19524787416E-01  0.10195051893E+01  0.10192125684E+01 0.  0.
     999903    2    3    3    0    0 -0.10009356482E+00  0.72285922709E-01  0.29668130809E-01  0.12868394790E+00  0.20865860170E-01 0.  0.
         14    1    1    2    0    0 -0.10843754813E-01  0.98877214922E-02 -0.19524787416E-01  0.24424810713E-01  0.00000000000E+00 0.  1.
     999901    1    3    3    0    0  0.11093731964E+00 -0.82173644202E-01 -0.10143343393E-01  0.89082124139E+00  0.88000000000E+00 0.  1.
        -11    1    4    4    0    0 -0.48832499991E-01  0.33055102951E-01  0.24720186871E-01  0.63942174239E-01  0.51100000000E-03 0.  1.
         11    1    4    4    0    0 -0.51261064832E-01  0.39230819758E-01  0.49479439378E-02  0.64741773662E-01  0.51100000000E-03 0. -1.
</event>
<event>
 8    1  0.1051655E+005  0.1043930E+01  0.7957747E-01            NaN
         13   -1    0    0    0    0  0.00000000000E+00  0.00000000000E+00  0.74505805969E-08  0.10566000000E+00  0.10566000000E+00 0.  1.
     999900   -1    0    0    0    0 -0.00000000000E+00 -0.00000000000E+00 -0.74505805969E-08  0.93827000000E+00  0.93827000000E+00 0. -1.
     999902    2    1    2    0    0  0.22136256275E-01 -0.21434419228E-02 -0.75963210759E-02  0.10204286750E+01  0.10201580115E+01 0.  0.
     999903    2    3    3    0    0  0.69766385656E-01  0.99306524164E-01 -0.49740339159E-01  0.13232009876E+00  0.17474921672E-01 0.  0.
         14    1    1    2    0    0 -0.22136256275E-01  0.21434419228E-02  0.75963210759E-02  0.23501325049E-01  0.00000000000E+00 0. -1.
     999901    1    3    3    0    0 -0.47630129381E-01 -0.10144996609E+00  0.42144018083E-01  0.88810857619E+00  0.88000000000E+00 0. -1.
        -11    1    4    4    0    0  0.47757720754E-01  0.54306172522E-01 -0.25671030453E-01  0.76741274365E-01  0.51100000000E-03 0.  1.
         11    1    4    4    0    0  0.22008664901E-01  0.45000351642E-01 -0.24069308706E-01  0.55578824396E-01  0.51100000000E-03 0. -1.
</event>
<event>
 8    1  0.1051655E+005  0.1043930E+01  0.7957747E-01            NaN
         13   -1    0    0    0    0  0.00000000000E+00  0.00000000000E+00  0.74505805969E-08  0.10566000000E+00  0.10566000000E+00 0.  1.
     999900   -1    0    0    0    0 -0.00000000000E+00 -0.00000000000E+00 -0.74505805969E-08  0.93827000000E+00  0.93827000000E+00 0.  1.
     999902    2    1    2    0    0  0.26841806019E-02 -0.20829062146E-01 -0.78157050994E-02  0.10215215217E+01  0.10212757117E+01 0.  0.
     999903    2    3    3    0    0  0.90357649740E-01  0.72672270007E-01 -0.55895892554E-01  0.13093697164E+00  0.23966143689E-01 0.  0.
         14    1    1    2    0    0 -0.26841806019E-02  0.20829062146E-01  0.78157050994E-02  0.22408478342E-01  0.00000000000E+00 0.  1.
     999901    1    3    3    0    0 -0.87673469138E-01 -0.93501332154E-01  0.48080187455E-01  0.89058455002E+00  0.88000000000E+00 0.  1.
        -11    1    4    4    0    0  0.50141546075E-01  0.26401795667E-01 -0.32425087561E-01  0.65290710530E-01  0.51100000000E-03 0.  1.
         11    1    4    4    0    0  0.40216103665E-01  0.46270474340E-01 -0.23470804993E-01  0.65646261110E-01  0.51100000000E-03 0. -1.
</event>
<event>
 8    1  0.1051655E+005  0.1043930E+01  0.7957747E-01            NaN
         13   -1    0    0    0    0  0.00000000000E+00  0.00000000000E+00  0.74505805969E-08  0.10566000000E+00  0.10566000000E+00 0.  1.
     999900   -1    0    0    0    0 -0.00000000000E+00 -0.00000000000E+00 -0.74505805969E-08  0.93827000000E+00  0.93827000000E+00 0.  1.
     999902    2    1    2    0    0 -0.21877028256E-01 -0.84881358713E-02 -0.17854163361E-02  0.10203961833E+01  0.10201247622E+01 0.  0.
     999903    2    3    3    0    0 -0.12551081082E+00  0.31612157159E-01  0.23844266328E-01  0.13303781433E+00  0.19447850563E-01 0.  0.
         14    1    1    2    0    0  0.21877028256E-01  0.84881358713E-02  0.17854163361E-02  0.23533816676E-01  0.00000000000E+00 0. -1.
     999901    1    3    3    0    0  0.10363378257E+00 -0.40100293030E-01 -0.25629682664E-01  0.88735836899E+00  0.88000000000E+00 0. -1.
        -11    1    4    4    0    0 -0.15534571467E-01  0.10594805436E-01  0.15683978867E-02  0.18875746497E-01  0.51100000000E-03 0.  1.
         11    1    4    4    0    0 -0.10997623935E+00  0.21017351723E-01  0.22275868441E-01  0.11416206783E+00  0.51100000000E-03 0. -1.
</event>
<event>
 8    1  0.1051655E+005  0.1043930E+01  0.7957747E-01            NaN
         13   -1    0    0    0    0  0.00000000000E+00  0.00000000000E+00  0.74505805969E-08  0.10566000000E+00  0.10566000000E+00 0.  1.
     999900   -1    0    0    0    0 -0.00000000000E+00 -0.00000000000E+00 -0.74505805969E-08  0.93827000000E+00  0.93827000000E+00 0. -1.
     999902    2    1    2    0    0  0.13259938146E-01  0.18349484606E-01  0.99055425150E-03  0.10212692246E+01  0.10210177855E+01 0.  0.
     999903    2    3    3    0    0  0.42254534598E-01  0.76119079893E-02  0.12342380948E+00  0.13225522910E+00  0.20362270046E-01 0.  0.
         14    1    1    2    0    0 -0.13259938146E-01 -0.18349484606E-01 -0.99055425150E-03  0.22660775420E-01  0.00000000000E+00 0. -1.
     999901    1    3    3    0    0 -0.28994596452E-01  0.10737576616E-01 -0.12243325522E+00  0.88901399548E+00  0.88000000000E+00 0. -1.
        -11    1    4    4    0    0  0.14486670355E-01  0.11722554285E-01  0.61517309205E-01  0.64280030723E-01  0.51100000000E-03 0. -1.
         11    1    4    4    0    0  0.27767864243E-01 -0.41106462957E-02  0.61906500270E-01  0.67975198377E-01  0.51100000000E-03 0.  1.
</event>
<event>
 8    1  0.1051655E+005  0.1043930E+01  0.7957747E-01            NaN
         13   -1    0    0    0    0  0.00000000000E+00  0.00000000000E+00  0.74505805969E-08  0.10566000000E+00  0.10566000000E+00 0. -1.
     999900   -1    0    0    0    0 -0.00000000000E+00 -0.00000000000E+00 -0.74505805969E-08  0.93827000000E+00  0.93827000000E+00 0. -1.
     999902    2    1    2    0    0  0.87149740587E-02 -0.17930599815E-01 -0.13045026074E-01  0.10201050155E+01  0.10198267562E+01 0.  0.
     999903    2    3    3    0    0  0.34883854664E-01 -0.84688922719E-01 -0.94878313936E-01  0.13340429313E+00  0.20142344045E-01 0.  0.
         14    1    1    2    0    0 -0.87149740587E-02  0.17930599815E-01  0.13045026074E-01  0.23824984530E-01  0.00000000000E+00 0. -1.
     999901    1    3    3    0    0 -0.26168880606E-01  0.66758322904E-01  0.81833287862E-01  0.88670072234E+00  0.88000000000E+00 0. -1.
        -11    1    4    4    0    0  0.34064249137E-01 -0.79906894409E-01 -0.81301816244E-01  0.11897786050E+00  0.51100000000E-03 0.  1.
         11    1    4    4    0    0  0.81960552742E-03 -0.47820283100E-02 -0.13576497693E-01  0.14426432635E-01  0.51100000000E-03 0. -1.
</event>
<event>
 8    1  0.1051655E+005  0.1043930E+01  0.7957747E-01            NaN
         13   -1    0    0    0    0  0.00000000000E+00  0.00000000000E+00  0.74505805969E-08  0.10566000000E+00  0.10566000000E+00 0. -1.
     999900   -1    0    0    0    0 -0.00000000000E+00 -0.00000000000E+00 -0.74505805969E-08  0.93827000000E+00  0.93827000000E+00 0.  1.
     999902    2    1    2    0    0  0.16868183644E-01  0.11403722845E-01 -0.11659075010E-01  0.10204669536E+01  0.10201971814E+01 0.  0.
     999903    2    3    3    0    0 -0.19393077775E-01 -0.12541694748E+00 -0.12716007954E-01  0.12915562082E+00  0.20346384199E-01 0.  0.
         14    1    1    2    0    0 -0.16868183644E-01 -0.11403722845E-01  0.11659075010E-01  0.23463046355E-01  0.00000000000E+00 0. -1.
     999901    1    3    3    0    0  0.36261261420E-01  0.13682067033E+00  0.10569329438E-02  0.89131133282E+00  0.88000000000E+00 0.  1.
        -11    1    4    4    0    0 -0.18921709059E-01 -0.74884539079E-01 -0.14490518259E-01  0.78587285913E-01  0.51100000000E-03 0.  1.
         11    1    4    4    0    0 -0.47136871626E-03 -0.50532408406E-01  0.17745103051E-02  0.50568334910E-01  0.51100000000E-03 0. -1.
</event>
<event>
 8    1  0.1051655E+005  0.1043930E+01  0.7957747E-01            NaN
         13   -1    0    0    0    0  0.00000000000E+00  0.00000000000E+00  0.74505805969E-08  0.10566000000E+00  0.10566000000E+00 0.  1.
     999900   -1    0    0    0    0 -0.00000000000E+00 -0.00000000000E+00 -0.74505805969E-08  0.93827000000E+00  0.93827000000E+00 0.  1.
     999902    2    1    2    0    0 -0.11686585982E-01  0.17167611408E-01 -0.63931542111E-02  0.10222003982E+01  0.10219694117E+01 0.  0.
     999903    2    3    3    0    0  0.94835143950E-01  0.79792732944E-01  0.41373402531E-01  0.13228443097E+00  0.20659803527E-01 0.  0.
         14    1    1    2    0    0  0.11686585982E-01 -0.17167611408E-01  0.63931542111E-02  0.21729601794E-01  0.00000000000E+00 0. -1.
     999901    1    3    3    0    0 -0.10652172993E+00 -0.62625121536E-01 -0.47766556743E-01  0.88991596723E+00  0.88000000000E+00 0.  1.
        -11    1    4    4    0    0  0.20942484904E-01  0.22979066724E-01  0.21862278066E-02  0.31171555856E-01  0.51100000000E-03 0. -1.
         11    1    4    4    0    0  0.73892659046E-01  0.56813666220E-01  0.39187174725E-01  0.10111287512E+00  0.51100000000E-03 0.  1.
</event>
<event>
 8    1  0.1051655E+005  0.1043930E+01  0.7957747E-01            NaN
         13   -1    0    0    0    0  0.00000000000E+00  0.00000000000E+00  0.74505805969E-08  0.10566000000E+00  0.10566000000E+00 0. -1.
     999900   -1    0    0    0    0 -0.00000000000E+00 -0.00000000000E+00 -0.74505805969E-08  0.93827000000E+00  0.93827000000E+00 0. -1.
     999902    2    1    2    0    0  0.93089347603E-02  0.75279507175E-02 -0.22840024290E-01  0.10181425415E+01  0.10178159174E+01 0.  0.
     999903    2    3    3    0    0  0.78894045078E-01  0.27612667824E-01 -0.99927408287E-01  0.13180854786E+00  0.20031889302E-01 0.  0.
         14    1    1    2    0    0 -0.93089347603E-02 -0.75279507175E-02  0.22840024290E-01  0.25787458540E-01  0.00000000000E+00 0. -1.
     999901    1    3    3    0    0 -0.69585110318E-01 -0.20084717106E-01  0.77087383997E-01  0.88633399360E+00  0.88000000000E+00 0.  1.
        -11    1    4    4    0    0  0.48969963428E-01  0.27118665455E-01 -0.67041068008E-01  0.87339826281E-01  0.51100000000E-03 0. -1.
         11    1    4    4    0    0  0.29924081651E-01  0.49400236937E-03 -0.32886340279E-01  0.44468721579E-01  0.51100000000E-03 0.  1.
</event>
<event>
 8    1  0.1051655E+005  0.1043930E+01  0.7957747E-01            NaN
         13   -1    0    0    0    0  0.00000000000E+00  0.00000000000E+00  0.74505805969E-08  0.10566000000E+00  0.10566000000E+00 0. -1.
     999900   -1    0    0    0    0 -0.00000000000E+00 -0.00000000000E+00 -0.74505805969E-08  0.93827000000E+00  0.93827000000E+00 0.  1.
     999902    2    1    2    0    0  0.12275119340E-01  0.30036990153E-02  0.20378387883E-01  0.10199512708E+01  0.10196693657E+01 0.  0.
     999903    2    3    3    0    0 -0.60231606838E-01  0.68476828158E-01 -0.87664969124E-01  0.12797743541E+00  0.19394708187E-01 0.  0.
         14    1    1    2    0    0 -0.12275119340E-01 -0.30036990153E-02 -0.20378387883E-01  0.23978729226E-01  0.00000000000E+00 0.  1.
     999901    1    3    3    0    0  0.72506726178E-01 -0.65473129143E-01  0.10804335701E+00  0.89197383536E+00  0.88000000000E+00 0. -1.
        -11    1    4    4    0    0 -0.40549048921E-01  0.35733494616E-01 -0.60319774942E-01  0.80992866204E-01  0.51100000000E-03 0. -1.
         11    1    4    4    0    0 -0.19682557917E-01  0.32743333543E-01 -0.27345194182E-01  0.46984569206E-01  0.51100000000E-03 0.  1.
</event>
<event>
 8    1  0.1051655E+005  0.1043930E+01  0.7957747E-01            NaN
         13   -1    0    0    0    0  0.00000000000E+00  0.00000000000E+00  0.74505805969E-08  0.10566000000E+00  0.10566000000E+00 0. -1.
     999900   -1    0    0    0    0 -0.00000000000E+00 -0.00000000000E+00 -0.74505805969E-08  0.93827000000E+00  0.93827000000E+00 0.  1.
     999902    2    1    2    0    0  0.21572515995E-01  0.38793427570E-02 -0.87358879927E-02  0.10203346936E+01  0.10200618356E+01 0.  0.
     999903    2    3    3    0    0  0.46896756841E-01 -0.10229403600E+00 -0.65302669168E-01  0.13178874413E+00  0.20987112137E-01 0.  0.
         14    1    1    2    0    0 -0.21572515995E-01 -0.38793427570E-02  0.87358879927E-02  0.23595306431E-01  0.00000000000E+00 0. -1.
     999901    1    3    3    0    0 -0.25324240846E-01  0.10617337876E+00  0.56566781175E-01  0.88854594944E+00  0.88000000000E+00 0.  1.
        -11    1    4    4    0    0  0.18798158880E-01 -0.59113815939E-01 -0.43923558115E-01  0.76008907969E-01  0.51100000000E-03 0. -1.
         11    1    4    4    0    0  0.28098597961E-01 -0.43180220060E-01 -0.21379111053E-01  0.55779836162E-01  0.51100000000E-03 0.  1.
</event>
<event>
 8    1  0.1051655E+005  0.1043930E+01  0.7957747E-01            NaN
         13   -1    0    0    0    0  0.00000000000E+00  0.00000000000E+00  0.74505805969E-08  0.10566000000E+00  0.10566000000E+00 0.  1.
     999900   -1    0    0    0    0 -0.00000000000E+00 -0.00000000000E+00 -0.74505805969E-08  0.93827000000E+00  0.93827000000E+00 0. -1.
     999902    2    1    2    0    0 -0.52295897629E-02 -0.21175896833E-01  0.98460214839E-02  0.10199986115E+01  0.10197178316E+01 0.  0.
     999903    2    3    3    0    0 -0.32378275352E-01 -0.11530615586E+00  0.54865377740E-01  0.13341849713E+00  0.21128734157E-01 0.  0.
         14    1    1    2    0    0  0.52295897629E-02  0.21175896833E-01 -0.98460214839E-02  0.23931388485E-01  0.00000000000E+00 0.  1.
     999901    1    3    3    0    0  0.27148685589E-01  0.94130259025E-01 -0.45019356256E-01  0.88658011439E+00  0.88000000000E+00 0. -1.
        -11    1    4    4    0    0 -0.21413340388E-02 -0.26134550761E-02  0.60303074512E-02  0.69311750704E-02  0.51100000000E-03 0.  1.
         11    1    4    4    0    0 -0.30236941314E-01 -0.11269270078E+00  0.48835070289E-01  0.12648732205E+00  0.51100000000E-03 0. -1.
</event>
<event>
 8    1  0.1051655E+005  0.1043930E+01  0.7957747E-01            NaN
         13   -1    0    0    0    0  0.00000000000E+00  0.00000000000E+00  0.74505805969E-08  0.10566000000E+00  0.10566000000E+00 0.  1.
     999900   -1    0    0    0    0 -0.00000000000E+00 -0.00000000000E+00 -0.74505805969E-08  0.93827000000E+00  0.93827000000E+00 0. -1.
     999902    2    1    2    0    0 -0.43433953113E-02  0.20318644757E-01 -0.12756013587E-01  0.10195490999E+01  0.10192575429E+01 0.  0.
     999903    2    3    3    0    0 -0.12522236673E+00  0.24398095717E-01  0.20048359171E-01  0.13067087734E+00  0.19925693880E-01 0.  0.
         14    1    1    2    0    0  0.43433953113E-02 -0.20318644757E-01  0.12756013587E-01  0.24380900110E-01  0.00000000000E+00 0.  1.
     999901    1    3    3    0    0  0.12087897141E+00 -0.40794509605E-02 -0.32804372758E-01  0.88887822255E+00  0.88000000000E+00 0. -1.
        -11    1    4    4    0    0 -0.14891872946E-01  0.28743413051E-02 -0.40475065641E-02  0.15705831661E-01  0.51100000000E-03 0. -1.
         11    1    4    4    0    0 -0.11033049378E+00  0.21523754412E-01  0.24095865735E-01  0.11496504568E+00  0.51100000000E-03 0.  1.
</event>
<event>
 8    1  0.1051655E+005  0.1043930E+01  0.7957747E-01            NaN
         13   -1    0    0    0    0  0.00000000000E+00  0.00000000000E+00  0.74505805969E-08  0.10566000000E+00  0.10566000000E+00 0.  1.
     999900   -1    0    0    0    0 -0.00000000000E+00 -0.00000000000E+00 -0.74505805969E-08  0.93827000000E+00  0.93827000000E+00 0. -1.
     999902    2    1    2    0    0 -0.10635789507E-01 -0.20999668259E-01  0.25539393592E-02  0.10202524011E+01  0.10199776141E+01 0.  0.
     999903    2    3    3    0    0  0.64846418978E-02  0.12501759107E+00 -0.16301667894E-01  0.12785692644E+00  0.20253409679E-01 0.  0.
         14    1    1    2    0    0  0.10635789507E-01  0.20999668259E-01 -0.25539393592E-02  0.23677598943E-01  0.00000000000E+00 0.  1.
     999901    1    3    3    0    0 -0.17120431405E-01 -0.14601725933E+00  0.18855607253E-01  0.89239547462E+00  0.88000000000E+00 0.  1.
        -11    1    4    4    0    0  0.49542195351E-02  0.65512462980E-02 -0.23659609896E-02  0.85628273172E-02  0.51100000000E-03 0.  1.
         11    1    4    4    0    0  0.15304223627E-02  0.11846634478E+00 -0.13935706905E-01  0.11929409912E+00  0.51100000000E-03 0. -1.
</event>
<event>
 8    1  0.1051655E+005  0.1043930E+01  0.7957747E-01            NaN
         13   -1    0    0    0    0  0.00000000000E+00  0.00000000000E+00  0.74505805969E-08  0.10566000000E+00  0.10566000000E+00 0.  1.
     999900   -1    0    0    0    0 -0.00000000000E+00 -0.00000000000E+00 -0.74505805969E-08  0.93827000000E+00  0.93827000000E+00 0. -1.
     999902    2    1    2    0    0  0.26067281409E-02 -0.21439113913E-01 -0.73338584663E-02  0.10211217533E+01  0.10208669938E+01 0.  0.
     999903    2    3    3    0    0 -0.31720107901E-01 -0.81873593733E-01 -0.98789831827E-01  0.13365634380E+00  0.19878047404E-01 0.  0.
         14    1    1    2    0    0 -0.26067281409E-02  0.21439113913E-01  0.73338584663E-02  0.22808246688E-01  0.00000000000E+00 0.  1.
     999901    1    3    3    0    0  0.34326836042E-01  0.60434479820E-01  0.91455973361E-01  0.88746540952E+00  0.88000000000E+00 0.  1.
        -11    1    4    4    0    0 -0.24123670898E-01 -0.68323715832E-01 -0.90838835846E-01  0.11619826531E+00  0.51100000000E-03 0.  1.
         11    1    4    4    0    0 -0.75964370035E-02 -0.13549877901E-01 -0.79509959810E-02  0.17458078484E-01  0.51100000000E-03 0. -1.
</event>
<event>
 8    1  0.1051655E+005  0.1043930E+01  0.7957747E-01            NaN
         13   -1    0    0    0    0  0.00000000000E+00  0.00000000000E+00  0.74505805969E-08  0.10566000000E+00  0.10566000000E+00 0.  1.
     999900   -1    0    0    0    0 -0.00000000000E+00 -0.00000000000E+00 -0.74505805969E-08  0.93827000000E+00  0.93827000000E+00 0.  1.
     999902    2    1    2    0    0  0.92429648618E-02  0.89242505608E-02  0.20670905441E-01  0.10195915329E+01  0.10193010022E+01 0.  0.
     999903    2    3    3    0    0  0.16308109346E-01  0.12408545254E+00  0.36946207465E-01  0.13191090108E+00  0.19295326263E-01 0.  0.
         14    1    1    2    0    0 -0.92429648618E-02 -0.89242505608E-02 -0.20670905441E-01  0.24338467069E-01  0.00000000000E+00 0. -1.
     999901    1    3    3    0    0 -0.70651444847E-02 -0.11516120198E+00 -0.16275302024E-01  0.88768063185E+00  0.88000000000E+00 0. -1.
        -11    1    4    4    0    0 -0.40811317765E-03  0.69108819642E-01  0.18232723632E-01  0.71476491525E-01  0.51100000000E-03 0. -1.
         11    1    4    4    0    0  0.16716222524E-01  0.54976632897E-01  0.18713483833E-01  0.60434409555E-01  0.51100000000E-03 0.  1.
</event>
<event>
 8    1  0.1051655E+005  0.1043930E+01  0.7957747E-01            NaN
         13   -1    0    0    0    0  0.00000000000E+00  0.00000000000E+00  0.74505805969E-08  0.10566000000E+00  0.10566000000E+00 0. -1.
     999900   -1    0    0    0    0 -0.00000000000E+00 -0.00000000000E+00 -0.74505805969E-08  0.93827000000E+00  0.93827000000E+00 0.  1.
     999902    2    1    2    0    0 -0.18925693304E-02 -0.15076203027E-01  0.18068840815E-01  0.10203215963E+01  0.10200484318E+01 0.  0.
     999903    2    3    3    0    0 -0.10339999365E+00 -0.20668182076E-01  0.77789017969E-01  0.13245813441E+00  0.19372496392E-01 0.  0.
         14    1    1    2    0    0  0.18925693304E-02  0.15076203027E-01 -0.18068840815E-01  0.23608403690E-01  0.00000000000E+00 0.  1.
     999901    1    3    3    0    0  0.10150742432E+00  0.55919790485E-02 -0.59720177155E-01  0.88786346190E+00  0.88000000000E+00 0.  1.
        -11    1    4    4    0    0 -0.74047549250E-01 -0.65541872213E-02  0.58548369420E-01  0.94626474112E-01  0.51100000000E-03 0.  1.
         11    1    4    4    0    0 -0.29352444403E-01 -0.14113994854E-01  0.19240648549E-01  0.37831660296E-01  0.51100000000E-03 0. -1.
</event>
<event>
 8    1  0.1051655E+005  0.1043930E+01  0.7957747E-01            NaN
         13   -1    0    0    0    0  0.00000000000E+00  0.00000000000E+00  0.74505805969E-08  0.10566000000E+00  0.10566000000E+00 0.  1.
     999900   -1    0    0    0    0 -0.00000000000E+00 -0.00000000000E+00 -0.74505805969E-08  0.93827000000E+00  0.93827000000E+00 0. -1.
     999902    2    1    2    0    0  0.12052948601E-01 -0.12869496260E-01 -0.80808031048E-02  0.10245342045E+01  0.10243505939E+01 0.  0.
     999903    2    3    3    0    0 -0.10432559758E-01  0.84107888045E-01 -0.10186179891E+00  0.13396972827E+00  0.19725285346E-01 0.  0.
         14    1    1    2    0    0 -0.12052948601E-01  0.12869496260E-01  0.80808031048E-02  0.19395795492E-01  0.00000000000E+00 0.  1.
     999901    1    3    3    0    0  0.22485508359E-01 -0.96977384305E-01  0.93780995808E-01  0.89056447623E+00  0.88000000000E+00 0. -1.
        -11    1    4    4    0    0 -0.53117967073E-02  0.77005495227E-01 -0.84059857988E-01  0.11412441599E+00  0.51100000000E-03 0.  1.
         11    1    4    4    0    0 -0.51207630507E-02  0.71023928177E-02 -0.17801940924E-01  0.19845312283E-01  0.51100000000E-03 0. -1.
</event>
<event>
 8    1  0.1051655E+005  0.1043930E+01  0.7957747E-01            NaN
         13   -1    0    0    0    0  0.00000000000E+00  0.00000000000E+00  0.74505805969E-08  0.10566000000E+00  0.10566000000E+00 0. -1.
     999900   -1    0    0    0    0 -0.00000000000E+00 -0.00000000000E+00 -0.74505805969E-08  0.93827000000E+00  0.93827000000E+00 0.  1.
     999902    2    1    2    0    0  0.16433319595E-01 -0.11640334140E-01 -0.11403709384E-01  0.10207870538E+01  0.10205246755E+01 0.  0.
     999903    2    3    3    0    0  0.10174635766E+00 -0.62548235796E-01  0.54367344064E-01  0.13275790990E+00  0.20106005127E-01 0.  0.
         14    1    1    2    0    0 -0.16433319595E-01  0.11640334140E-01  0.11403709384E-01  0.23142946215E-01  0.00000000000E+00 0.  1.
     999901    1    3    3    0    0 -0.85313038066E-01  0.50907901657E-01 -0.65771053448E-01  0.88802914388E+00  0.88000000000E+00 0.  1.
        -11    1    4    4    0    0  0.38776887850E-01 -0.24479581918E-01  0.10351615040E-01  0.47013976827E-01  0.51100000000E-03 0.  1.
         11    1    4    4    0    0  0.62969469812E-01 -0.38068653879E-01  0.44015729024E-01  0.85743933074E-01  0.51100000000E-03 0. -1.
</event>
<event>
 8    1  0.1051655E+005  0.1043930E+01  0.7957747E-01            NaN
         13   -1    0    0    0    0  0.00000000000E+00  0.00000000000E+00  0.74505805969E-08  0.10566000000E+00  0.10566000000E+00 0. -1.
     999900   -1    0    0    0    0 -0.00000000000E+00 -0.00000000000E+00 -0.74505805969E-08  0.93827000000E+00  0.93827000000E+00 0.  1.
     999902    2    1    2    0    0  0.93762326817E-02 -0.17961242416E-01 -0.10046445621E-01  0.10213147167E+01  0.10210642975E+01 0.  0.
     999903    2    3    3    0    0  0.10502370831E+00  0.40988961315E-01 -0.66508379823E-01  0.13237629583E+00  0.19749553228E-01 0.  0.
         14    1    1    2    0    0 -0.93762326817E-02  0.17961242416E-01  0.10046445621E-01  0.22615283285E-01  0.00000000000E+00 0. -1.
     999901    1    3    3    0    0 -0.95647475633E-01 -0.58950203731E-01  0.56461934202E-01  0.88893842089E+00  0.88000000000E+00 0.  1.
        -11    1    4    4    0    0  0.81075342145E-01  0.39255919245E-01 -0.48112017007E-01  0.10212377589E+00  0.51100000000E-03 0. -1.
         11    1    4    4    0    0  0.23948366170E-01  0.17330420699E-02 -0.18396362816E-01  0.30252519943E-01  0.51100000000E-03 0.  1.
</event>
<event>
 8    1  0.1051655E+005  0.1043930E+01  0.7957747E-01            NaN
         13   -1    0    0    0    0  0.00000000000E+00  0.00000000000E+00  0.74505805969E-08  0.10566000000E+00  0.10566000000E+00 0. -1.
     999900   -1    0    0    0    0 -0.00000000000E+00 -0.00000000000E+00 -0.74505805969E-08  0.93827000000E+00  0.93827000000E+00 0. -1.
     999902    2    1    2    0    0  0.17599641213E-01 -0.45748135161E-03  0.15251125141E-01  0.10206372226E+01  0.10203713965E+01 0.  0.
     999903    2    3    3    0    0  0.51166967780E-01 -0.10940120117E+00 -0.46774393985E-01  0.13111900216E+00  0.20436912330E-01 0.  0.
         14    1    1    2    0    0 -0.17599641213E-01  0.45748135161E-03 -0.15251125141E-01  0.23292777380E-01  0.00000000000E+00 0.  1.
     999901    1    3    3    0    0 -0.33567326566E-01  0.10894371982E+00  0.62025519126E-01  0.88951822046E+00  0.88000000000E+00 0.  1.
        -11    1    4    4    0    0  0.42011073410E-01 -0.77300691341E-01 -0.25772576676E-01  0.91677772663E-01  0.51100000000E-03 0.  1.
         11    1    4    4    0    0  0.91558943695E-02 -0.32100509832E-01 -0.21001817309E-01  0.39441229500E-01  0.51100000000E-03 0. -1.
</event>
<event>
 8    1  0.1051655E+005  0.1043930E+01  0.7957747E-01            NaN
         13   -1    0    0    0    0  0.00000000000E+00  0.00000000000E+00  0.74505805969E-08  0.10566000000E+00  0.10566000000E+00 0. -1.
     999900   -1    0    0    0    0 -0.00000000000E+00 -0.00000000000E+00 -0.74505805969E-08  0.93827000000E+00  0.93827000000E+00 0. -1.
     999902    2    1    2    0    0 -0.15950184279E-01 -0.16271640901E-01  0.77856243760E-02  0.10198511582E+01  0.10195668660E+01 0.  0.
     999903    2    3    3    0    0  0.39832768159E-01  0.11808250263E+00  0.19838739272E-01  0.12782646613E+00  0.20393700459E-01 0.  0.
         14    1    1    2    0    0  0.15950184279E-01  0.16271640901E-01 -0.77856243760E-02  0.24078841814E-01  0.00000000000E+00 0. -1.
     999901    1    3    3    0    0 -0.55782952439E-01 -0.13435414354E+00 -0.12053114896E-01  0.89202469206E+00  0.88000000000E+00 0. -1.
        -11    1    4    4    0    0  0.19593700239E-01  0.35291955593E-01  0.12597458261E-01  0.42289387490E-01  0.51100000000E-03 0.  1.
         11    1    4    4    0    0  0.20239067920E-01  0.82790547042E-01  0.72412810112E-02  0.85537078636E-01  0.51100000000E-03 0. -1.
</event>
<event>
 8    1  0.1051655E+005  0.1043930E+01  0.7957747E-01            NaN
         13   -1    0    0    0    0  0.00000000000E+00  0.00000000000E+00  0.74505805969E-08  0.10566000000E+00  0.10566000000E+00 0.  1.
     999900   -1    0    0    0    0 -0.00000000000E+00 -0.00000000000E+00 -0.74505805969E-08  0.93827000000E+00  0.93827000000E+00 0. -1.
     999902    2    1    2    0    0 -0.46864117765E-02  0.22466987495E-01  0.65838606433E-02  0.10200537523E+01  0.10197742801E+01 0.  0.
     999903    2    3    3    0    0  0.10759867684E+00  0.59374010995E-01  0.42531062729E-01  0.13142431839E+00  0.18992412330E-01 0.  0.
         14    1    1    2    0    0  0.46864117765E-02 -0.22466987495E-01 -0.65838606433E-02  0.23876247683E-01  0.00000000000E+00 0. -1.
     999901    1    3    3    0    0 -0.11228508862E+00 -0.36907023500E-01 -0.35947202085E-01  0.88862943393E+00  0.88000000000E+00 0.  1.
        -11    1    4    4    0    0  0.20651951122E-01  0.20468242874E-01  0.10822779003E-01  0.31029755362E-01  0.51100000000E-03 0. -1.
         11    1    4    4    0    0  0.86946725722E-01  0.38905768121E-01  0.31708283726E-01  0.10039456302E+00  0.51100000000E-03 0.  1.
</event>
<event>
 8    1  0.1051655E+005  0.1043930E+01  0.7957747E-01            NaN
         13   -1    0    0    0    0  0.00000000000E+00  0.00000000000E+00  0.74505805969E-08  0.10566000000E+00  0.10566000000E+00 0.  1.
     999900   -1    0    0    0    0 -0.00000000000E+00 -0.00000000000E+00 -0.74505805969E-08  0.93827000000E+00  0.93827000000E+00 0. -1.
     999902    2    1    2    0    0 -0.11517377409E-01 -0.81352107848E-02 -0.19004536741E-01  0.10202655952E+01  0.10199911180E+01 0.  0.
     999903    2    3    3    0    0 -0.12370074203E+00 -0.81693195511E-02  0.38208337463E-01  0.13130079196E+00  0.20283233354E-01 0.  0.
         14    1    1    2    0    0  0.11517377409E-01  0.81352107848E-02  0.19004536741E-01  0.23664404781E-01  0.00000000000E+00 0.  1.
     999901    1    3    3    0    0  0.11218336463E+00  0.34108766266E-04 -0.57212874204E-01  0.88896480326E+00  0.88000000000E+00 0. -1.
        -11    1    4    4    0    0 -0.58923593923E-01  0.53376315079E-02  0.22408654242E-01  0.63268389713E-01  0.51100000000E-03 0. -1.
         11    1    4    4    0    0 -0.64777148112E-01 -0.13506951059E-01  0.15799683221E-01  0.68032402245E-01  0.51100000000E-03 0.  1.
</event>
<event>
 8    1  0.1051655E+005  0.1043930E+01  0.7957747E-01            NaN
         13   -1    0    0    0    0  0.00000000000E+00  0.00000000000E+00  0.74505805969E-08  0.10566000000E+00  0.10566000000E+00 0. -1.
     999900   -1    0    0    0    0 -0.00000000000E+00 -0.00000000000E+00 -0.74505805969E-08  0.93827000000E+00  0.93827000000E+00 0. -1.
     999902    2    1    2    0    0  0.14687741346E-01 -0.10192090501E-01 -0.15130932671E-01  0.10205087793E+01  0.10202399792E+01 0.  0.
     999903    2    3    3    0    0  0.40110482938E-01  0.47382366499E-02  0.12145200708E+00  0.12948457657E+00  0.19605198698E-01 0.  0.
         14    1    1    2    0    0 -0.14687741346E-01  0.10192090501E-01  0.15130932671E-01  0.23421220680E-01  0.00000000000E+00 0. -1.
     999901    1    3    3    0    0 -0.25422741592E-01 -0.14930327151E-01 -0.13658293976E+00  0.89102420275E+00  0.88000000000E+00 0. -1.
        -11    1    4    4    0    0  0.10852019447E-01 -0.27998568951E-02  0.14429664221E-01  0.18277906205E-01  0.51100000000E-03 0.  1.
         11    1    4    4    0    0  0.29258463491E-01  0.75380935451E-02  0.10702234286E+00  0.11120667036E+00  0.51100000000E-03 0. -1.
</event>
<event>
 8    1  0.1051655E+005  0.1043930E+01  0.7957747E-01            NaN
         13   -1    0    0    0    0  0.00000000000E+00  0.00000000000E+00  0.74505805969E-08  0.10566000000E+00  0.10566000000E+00 0. -1.
     999900   -1    0    0    0    0 -0.00000000000E+00 -0.00000000000E+00 -0.74505805969E-08  0.93827000000E+00  0.93827000000E+00 0. -1.
     999902    2    1    2    0    0 -0.85859171834E-02  0.20209315669E-01  0.12890612711E-01  0.10184682186E+01  0.10181498957E+01 0.  0.
     999903    2    3    3    0    0  0.11752225897E+00  0.50216698903E-01  0.14094098573E-03  0.12888052242E+00  0.16642445562E-01 0.  0.
         14    1    1    2    0    0  0.85859171834E-02 -0.20209315669E-01 -0.12890612711E-01  0.25461781355E-01  0.00000000000E+00 0.  1.
     999901    1    3    3    0    0 -0.12610817615E+00 -0.30007383234E-01  0.12749671726E-01  0.88958769622E+00  0.88000000000E+00 0. -1.
        -11    1    4    4    0    0  0.39137058576E-01  0.20595101155E-01 -0.70046784064E-02  0.44779394660E-01  0.51100000000E-03 0. -1.
         11    1    4    4    0    0  0.78385200391E-01  0.29621597748E-01  0.71456193921E-02  0.84101127763E-01  0.51100000000E-03 0.  1.
</event>
<event>
 8    1  0.1051655E+005  0.1043930E+01  0.7957747E-01            NaN
         13   -1    0    0    0    0  0.00000000000E+00  0.00000000000E+00  0.74505805969E-08  0.10566000000E+00  0.10566000000E+00 0.  1.
     999900   -1    0    0    0    0 -0.00000000000E+00 -0.00000000000E+00 -0.74505805969E-08  0.93827000000E+00  0.93827000000E+00 0. -1.
     999902    2    1    2    0    0 -0.19637642334E-01  0.12166822514E-01 -0.90218249120E-02  0.10191295586E+01  0.10188277555E+01 0.  0.
     999903    2    3    3    0    0  0.11470838470E+00  0.46452106358E-01 -0.26780107808E-01  0.12809662307E+00  0.19384503152E-01 0.  0.
         14    1    1    2    0    0  0.19637642334E-01 -0.12166822514E-01  0.90218249120E-02  0.24800441353E-01  0.00000000000E+00 0. -1.
     999901    1    3    3    0    0 -0.13434602704E+00 -0.34285283844E-01  0.17758282896E-01  0.89103293558E+00  0.88000000000E+00 0.  1.
        -11    1    4    4    0    0  0.38228105386E-01  0.24685534801E-01 -0.59598935096E-02  0.45897114522E-01  0.51100000000E-03 0. -1.
         11    1    4    4    0    0  0.76480279315E-01  0.21766571557E-01 -0.20820214298E-01  0.82199508550E-01  0.51100000000E-03 0.  1.
</event>
<event>
 8    1  0.1051655E+005  0.1043930E+01  0.7957747E-01            NaN
         13   -1    0    0    0    0  0.00000000000E+00  0.00000000000E+00  0.74505805969E-08  0.10566000000E+00  0.10566000000E+00 0. -1.
     999900   -1    0    0    0    0 -0.00000000000E+00 -0.00000000000E+00 -0.74505805969E-08  0.93827000000E+00  0.93827000000E+00 0.  1.
     999902    2    1    2    0    0  0.11915772006E-01  0.14844305296E-01 -0.13491069119E-01  0.10205987341E+01  0.10203320186E+01 0.  0.
     999903    2    3    3    0    0  0.10865002398E+00  0.40865726416E-01  0.59286496154E-01  0.13193051488E+00  0.20394529271E-01 0.  0.
         14    1    1    2    0    0 -0.11915772006E-01 -0.14844305296E-01  0.13491069119E-01  0.23331265894E-01  0.00000000000E+00 0.  1.
     999901    1    3    3    0    0 -0.96734251969E-01 -0.26021421119E-01 -0.72777565273E-01  0.88866821923E+00  0.88000000000E+00 0.  1.
        -11    1    4    4    0    0  0.91905460049E-01  0.35360093908E-01  0.41430535564E-01  0.10683492044E+00  0.51100000000E-03 0.  1.
         11    1    4    4    0    0  0.16744563927E-01  0.55056325078E-02  0.17855960590E-01  0.25095594434E-01  0.51100000000E-03 0. -1.
</event>
<event>
 8    1  0.1051655E+005  0.1043930E+01  0.7957747E-01            NaN
         13   -1    0    0    0    0  0.00000000000E+00  0.00000000000E+00  0.74505805969E-08  0.10566000000E+00  0.10566000000E+00 0.  1.
     999900   -1    0    0    0    0 -0.00000000000E+00 -0.00000000000E+00 -0.74505805969E-08  0.93827000000E+00  0.93827000000E+00 0.  1.
     999902    2    1    2    0    0  0.18247890632E-01  0.59675499647E-02  0.12506548058E-01  0.10210168835E+01  0.10207597491E+01 0.  0.
     999903    2    3    3    0    0 -0.42482550334E-01  0.95977715762E-01  0.77837344391E-01  0.13193976119E+00  0.18247174964E-01 0.  0.
         14    1    1    2    0    0 -0.18247890632E-01 -0.59675499647E-02 -0.12506548058E-01  0.22913116537E-01  0.00000000000E+00 0. -1.
     999901    1    3    3    0    0  0.60730440966E-01 -0.90010165798E-01 -0.65330796333E-01  0.88907712228E+00  0.88000000000E+00 0.  1.
        -11    1    4    4    0    0 -0.24079322680E-01  0.70601132581E-01  0.48313990113E-01  0.88875398531E-01  0.51100000000E-03 0. -1.
         11    1    4    4    0    0 -0.18403227654E-01  0.25376583181E-01  0.29523354279E-01  0.43064362655E-01  0.51100000000E-03 0.  1.
</event>
<event>
 8    1  0.1051655E+005  0.1043930E+01  0.7957747E-01            NaN
         13   -1    0    0    0    0  0.00000000000E+00  0.00000000000E+00  0.74505805969E-08  0.10566000000E+00  0.10566000000E+00 0. -1.
     999900   -1    0    0    0    0 -0.00000000000E+00 -0.00000000000E+00 -0.74505805969E-08  0.93827000000E+00  0.93827000000E+00 0. -1.
     999902    2    1    2    0    0  0.18287958145E-01 -0.13060111632E-01 -0.72177630761E-02  0.10203267792E+01  0.10200537360E+01 0.  0.
     999903    2    3    3    0    0  0.13644179949E-01 -0.12680443173E+00  0.30964130504E-01  0.13217296817E+00  0.15664883814E-01 0.  0.
         14    1    1    2    0    0 -0.18287958145E-01  0.13060111632E-01  0.72177630761E-02  0.23603220813E-01  0.00000000000E+00 0. -1.
     999901    1    3    3    0    0  0.46437781963E-02  0.11374432009E+00 -0.38181893580E-01  0.88815381102E+00  0.88000000000E+00 0. -1.
        -11    1    4    4    0    0  0.80143169555E-04 -0.45771606319E-01  0.17019741010E-01  0.48836247532E-01  0.51100000000E-03 0.  1.
         11    1    4    4    0    0  0.13564036779E-01 -0.81032825406E-01  0.13944389494E-01  0.83336720636E-01  0.51100000000E-03 0. -1.
</event>
<event>
 8    1  0.1051655E+005  0.1043930E+01  0.7957747E-01            NaN
         13   -1    0    0    0    0  0.00000000000E+00  0.00000000000E+00  0.74505805969E-08  0.10566000000E+00  0.10566000000E+00 0. -1.
     999900   -1    0    0    0    0 -0.00000000000E+00 -0.00000000000E+00 -0.74505805969E-08  0.93827000000E+00  0.93827000000E+00 0.  1.
     999902    2    1    2    0    0 -0.37434675107E-02  0.12385672847E-04  0.26352316295E-01  0.10173131205E+01  0.10169648602E+01 0.  0.
     999903    2    3    3    0    0  0.11592458505E+00  0.24920588022E-01  0.46013362584E-01  0.12864703126E+00  0.19320558744E-01 0.  0.
         14    1    1    2    0    0  0.37434675107E-02 -0.12385672847E-04 -0.26352316295E-01  0.26616879541E-01  0.00000000000E+00 0.  1.
     999901    1    3    3    0    0 -0.11966805256E+00 -0.24908202350E-01 -0.19661046290E-01  0.88866608920E+00  0.88000000000E+00 0.  1.
        -11    1    4    4    0    0  0.10943957755E+00  0.18845374787E-01  0.44414020260E-01  0.11960366049E+00  0.51100000000E-03 0. -1.
         11    1    4    4    0    0  0.64850074980E-02  0.60752132350E-02  0.15993423242E-02  0.90433707748E-02  0.51100000000E-03 0.  1.
</event>
<event>
 8    1  0.1051655E+005  0.1043930E+01  0.7957747E-01            NaN
         13   -1    0    0    0    0  0.00000000000E+00  0.00000000000E+00  0.74505805969E-08  0.10566000000E+00  0.10566000000E+00 0. -1.
     999900   -1    0    0    0    0 -0.00000000000E+00 -0.00000000000E+00 -0.74505805969E-08  0.93827000000E+00  0.93827000000E+00 0.  1.
     999902    2    1    2    0    0 -0.96073356653E-02 -0.21248052266E-01 -0.48789606494E-02  0.10201059600E+01  0.10198277231E+01 0.  0.
     999903    2    3    3    0    0 -0.73355398286E-01  0.51380192652E-01 -0.91824094965E-01  0.13055656071E+00  0.24339524906E-01 0.  0.
         14    1    1    2    0    0  0.96073356653E-02  0.21248052266E-01  0.48789606494E-02  0.23824039975E-01  0.00000000000E+00 0.  1.
     999901    1    3    3    0    0  0.63748062620E-01 -0.72628244918E-01  0.86945134316E-01  0.88954939932E+00  0.88000000000E+00 0. -1.
        -11    1    4    4    0    0 -0.30488609807E-01  0.33317624601E-01 -0.35124879879E-01  0.57215712392E-01  0.51100000000E-03 0.  1.
         11    1    4    4    0    0 -0.42866788479E-01  0.18062568052E-01 -0.56699215086E-01  0.73340848314E-01  0.51100000000E-03 0. -1.
</event>
<event>
 8    1  0.1051655E+005  0.1043930E+01  0.7957747E-01            NaN
         13   -1    0    0    0    0  0.00000000000E+00  0.00000000000E+00  0.74505805969E-08  0.10566000000E+00  0.10566000000E+00 0.  1.
     999900   -1    0    0    0    0 -0.00000000000E+00 -0.00000000000E+00 -0.74505805969E-08  0.93827000000E+00  0.93827000000E+00 0.  1.
     999902    2    1    2    0    0  0.27490708182E-01  0.49176005956E-02 -0.93178761246E-02  0.10144894727E+01  0.10140622001E+01 0.  0.
     999903    2    3    3    0    0  0.37675212713E-01  0.15618296845E-01  0.11692073027E+00  0.12535820299E+00  0.19515866439E-01 0.  0.
         14    1    1    2    0    0 -0.27490708182E-01 -0.49176005956E-02  0.93178761246E-02  0.29440527296E-01  0.00000000000E+00 0.  1.
     999901    1    3    3    0    0 -0.10184504531E-01 -0.10700696249E-01 -0.12623860639E+00  0.88913126971E+00  0.88000000000E+00 0.  1.
        -11    1    4    4    0    0  0.16520597241E-01  0.40928994642E-02  0.75876344264E-01  0.77763504930E-01  0.51100000000E-03 0. -1.
         11    1    4    4    0    0  0.21154615472E-01  0.11525397381E-01  0.41044386002E-01  0.47594698064E-01  0.51100000000E-03 0.  1.
</event>
<event>
 8    1  0.1051655E+005  0.1043930E+01  0.7957747E-01            NaN
         13   -1    0    0    0    0  0.00000000000E+00  0.00000000000E+00  0.74505805969E-08  0.10566000000E+00  0.10566000000E+00 0.  1.
     999900   -1    0    0    0    0 -0.00000000000E+00 -0.00000000000E+00 -0.74505805969E-08  0.93827000000E+00  0.93827000000E+00 0.  1.
     999902    2    1    2    0    0 -0.32992351937E-03  0.15487610438E-01 -0.16278258701E-01  0.10214587599E+01  0.10212115557E+01 0.  0.
     999903    2    3    3    0    0 -0.13406983646E-01 -0.10348057376E+00 -0.77765125303E-01  0.13123121979E+00  0.16918687221E-01 0.  0.
         14    1    1    2    0    0  0.32992351937E-03 -0.15487610438E-01  0.16278258701E-01  0.22471240129E-01  0.00000000000E+00 0.  1.
     999901    1    3    3    0    0  0.13077060126E-01  0.11896818420E+00  0.61486866602E-01  0.89022754008E+00  0.88000000000E+00 0. -1.
        -11    1    4    4    0    0 -0.14747127536E-01 -0.93458213703E-01 -0.64353039030E-01  0.11442678984E+00  0.51100000000E-03 0.  1.
         11    1    4    4    0    0  0.13401438905E-02 -0.10022360060E-01 -0.13412086273E-01  0.16804429952E-01  0.51100000000E-03 0. -1.
</event>
<event>
 7    1  0.1532141E+005  0.1043930E+01  0.7957747E-01            NaN
         13   -1    0    0    0    0  0.00000000000E+00  0.00000000000E+00  0.74505805969E-08  0.10566000000E+00  0.10566000000E+00 0.  1.
     999900   -1    0    0    0    0 -0.00000000000E+00 -0.00000000000E+00 -0.74505805969E-08  0.93827000000E+00  0.93827000000E+00 0.  1.
     999903    2    1    2    0    0 -0.65295129659E-01  0.61835796448E-01 -0.47015445112E-01  0.10346152304E+00  0.20167176084E-01 0.  0.
         14    1    1    2    0    0 -0.46248340047E-01  0.15541883121E-01  0.53847982153E-02  0.49086201115E-01  0.00000000000E+00 0. -1.
     999901    1    1    2    0    0  0.11154346971E+00 -0.77377679570E-01  0.41630646897E-01  0.89138227585E+00  0.88000000000E+00 0. -1.
        -11    1    3    3    0    0 -0.23488603957E-01  0.35427155535E-01 -0.25144671806E-01  0.49389406824E-01  0.51100000000E-03 0. -1.
         11    1    3    3    0    0 -0.41806525702E-01  0.26408640913E-01 -0.21870773306E-01  0.54072116217E-01  0.51100000000E-03 0.  1.
</event>
<event>
 8    1  0.1051655E+005  0.1043930E+01  0.7957747E-01            NaN
         13   -1    0    0    0    0  0.00000000000E+00  0.00000000000E+00  0.74505805969E-08  0.10566000000E+00  0.10566000000E+00 0.  1.
     999900   -1    0    0    0    0 -0.00000000000E+00 -0.00000000000E+00 -0.74505805969E-08  0.93827000000E+00  0.93827000000E+00 0. -1.
     999902    2    1    2    0    0 -0.25441317717E-02  0.22184430710E-01 -0.10460878295E-01  0.10192712988E+01  0.10189729775E+01 0.  0.
     999903    2    3    3    0    0  0.20607610251E-01  0.41515211286E-01 -0.12172239318E+00  0.13175295701E+00  0.19857349044E-01 0.  0.
         14    1    1    2    0    0  0.25441317717E-02 -0.22184430710E-01  0.10460878295E-01  0.24658701245E-01  0.00000000000E+00 0. -1.
     999901    1    3    3    0    0 -0.23151742023E-01 -0.19330780576E-01  0.11126151489E+00  0.88751834174E+00  0.88000000000E+00 0.  1.
        -11    1    4    4    0    0  0.13195150508E-02  0.24852480357E-01 -0.57626871355E-01  0.62773436444E-01  0.51100000000E-03 0. -1.
         11    1    4    4    0    0  0.19288095200E-01  0.16662730929E-01 -0.64095521826E-01  0.68979520567E-01  0.51100000000E-03 0.  1.
</event>
<event>
 8    1  0.1051655E+005  0.1043930E+01  0.7957747E-01            NaN
         13   -1    0    0    0    0  0.00000000000E+00  0.00000000000E+00  0.74505805969E-08  0.10566000000E+00  0.10566000000E+00 0.  1.
     999900   -1    0    0    0    0 -0.00000000000E+00 -0.00000000000E+00 -0.74505805969E-08  0.93827000000E+00  0.93827000000E+00 0. -1.
     999902    2    1    2    0    0  0.11555085151E-01 -0.31597046820E-02  0.20826914026E-01  0.10199036796E+01  0.10196206410E+01 0.  0.
     999903    2    3    3    0    0  0.10565927277E+00 -0.13101906868E-01 -0.71826680062E-01  0.12999405829E+00  0.20095803936E-01 0.  0.
         14    1    1    2    0    0 -0.11555085151E-01  0.31597046820E-02 -0.20826914026E-01  0.24026320450E-01  0.00000000000E+00 0. -1.
     999901    1    3    3    0    0 -0.94104187622E-01  0.99422021858E-02  0.92653594087E-01  0.88990962126E+00  0.88000000000E+00 0. -1.
        -11    1    4    4    0    0  0.68520305486E-01 -0.10323106086E-01 -0.57650441068E-01  0.90141185146E-01  0.51100000000E-03 0. -1.
         11    1    4    4    0    0  0.37138967287E-01 -0.27788007817E-02 -0.14176238994E-01  0.39852873145E-01  0.51100000000E-03 0.  1.
</event>
<event>
 8    1  0.1051655E+005  0.1043930E+01  0.7957747E-01            NaN
         13   -1    0    0    0    0  0.00000000000E+00  0.00000000000E+00  0.74505805969E-08  0.10566000000E+00  0.10566000000E+00 0.  1.
     999900   -1    0    0    0    0 -0.00000000000E+00 -0.00000000000E+00 -0.74505805969E-08  0.93827000000E+00  0.93827000000E+00 0. -1.
     999902    2    1    2    0    0  0.27375116263E-01 -0.32478300465E-02 -0.94828971383E-02  0.10147774576E+01  0.10143586238E+01 0.  0.
     999903    2    3    3    0    0  0.20265300538E-01 -0.11258524879E+00  0.48928845158E-01  0.12606088171E+00  0.20277903205E-01 0.  0.
         14    1    1    2    0    0 -0.27375116263E-01  0.32478300465E-02  0.94828971383E-02  0.29152542403E-01  0.00000000000E+00 0.  1.
     999901    1    3    3    0    0  0.71098157249E-02  0.10933741874E+00 -0.58411742296E-01  0.88871657589E+00  0.88000000000E+00 0. -1.
        -11    1    4    4    0    0  0.12416267068E-01 -0.93304671347E-01  0.46823399437E-01  0.10513142841E+00  0.51100000000E-03 0. -1.
         11    1    4    4    0    0  0.78490334697E-02 -0.19280577442E-01  0.21054457213E-02  0.20929453304E-01  0.51100000000E-03 0.  1.
</event>
<event>
 8    1  0.1051655E+005  0.1043930E+01  0.7957747E-01            NaN
         13   -1    0    0    0    0  0.00000000000E+00  0.00000000000E+00  0.74505805969E-08  0.10566000000E+00  0.10566000000E+00 0. -1.
     999900   -1    0    0    0    0 -0.00000000000E+00 -0.00000000000E+00 -0.74505805969E-08  0.93827000000E+00  0.93827000000E+00 0. -1.
     999902    2    1    2    0    0  0.15484746984E-01  0.17287116168E-01 -0.56848589852E-02  0.10200356618E+01  0.10197557610E+01 0.  0.
     999903    2    3    3    0    0 -0.12340895857E+00 -0.19939041274E-01  0.18587741119E-01  0.12803431242E+00  0.20492550264E-01 0.  0.
         14    1    1    2    0    0 -0.15484746984E-01 -0.17287116168E-01  0.56848589852E-02  0.23894338163E-01  0.00000000000E+00 0.  1.
     999901    1    3    3    0    0  0.13889370555E+00  0.37226157442E-01 -0.24272600104E-01  0.89200134941E+00  0.88000000000E+00 0.  1.
        -11    1    4    4    0    0 -0.90292482428E-01 -0.21019933775E-01  0.71729945242E-02  0.92985391167E-01  0.51100000000E-03 0. -1.
         11    1    4    4    0    0 -0.33116476139E-01  0.10808925013E-02  0.11414746595E-01  0.35048921257E-01  0.51100000000E-03 0.  1.
</event>
<event>
 8    1  0.1051655E+005  0.1043930E+01  0.7957747E-01            NaN
         13   -1    0    0    0    0  0.00000000000E+00  0.00000000000E+00  0.74505805969E-08  0.10566000000E+00  0.10566000000E+00 0.  1.
     999900   -1    0    0    0    0 -0.00000000000E+00 -0.00000000000E+00 -0.74505805969E-08  0.93827000000E+00  0.93827000000E+00 0.  1.
     999902    2    1    2    0    0  0.77378924571E-02  0.21802371510E-01 -0.53610038538E-02  0.10201821844E+01  0.10199057460E+01 0.  0.
     999903    2    3    3    0    0  0.51409788235E-01  0.75257122143E-01  0.93517418597E-01  0.13195834591E+00  0.18997281772E-01 0.  0.
         14    1    1    2    0    0 -0.77378924571E-02 -0.21802371510E-01  0.53610038538E-02  0.23747815594E-01  0.00000000000E+00 0.  1.
     999901    1    3    3    0    0 -0.43671895778E-01 -0.53454750632E-01 -0.98878422451E-01  0.88822383850E+00  0.88000000000E+00 0.  1.
        -11    1    4    4    0    0  0.29429349194E-01  0.36977683564E-01  0.60814996390E-01  0.77020520530E-01  0.51100000000E-03 0.  1.
         11    1    4    4    0    0  0.21980439041E-01  0.38279438579E-01  0.32702422207E-01  0.54937825380E-01  0.51100000000E-03 0. -1.
</event>
<event>
 8    1  0.1051655E+005  0.1043930E+01  0.7957747E-01            NaN
         13   -1    0    0    0    0  0.00000000000E+00  0.00000000000E+00  0.74505805969E-08  0.10566000000E+00  0.10566000000E+00 0. -1.
     999900   -1    0    0    0    0 -0.00000000000E+00 -0.00000000000E+00 -0.74505805969E-08  0.93827000000E+00  0.93827000000E+00 0. -1.
     999902    2    1    2    0    0 -0.78978960949E-02  0.18160687029E-01 -0.14265108930E-01  0.10195234302E+01  0.10192312515E+01 0.  0.
     999903    2    3    3    0    0 -0.90891257090E-01  0.16851077806E-01  0.88816369024E-01  0.12962714179E+00  0.19226779336E-01 0.  0.
         14    1    1    2    0    0  0.78978960949E-02 -0.18160687029E-01  0.14265108930E-01  0.24406569789E-01  0.00000000000E+00 0. -1.
     999901    1    3    3    0    0  0.82993360995E-01  0.13096092229E-02 -0.10308147795E+00  0.88989628842E+00  0.88000000000E+00 0. -1.
        -11    1    4    4    0    0 -0.69817877560E-01  0.15282097001E-01  0.56949477425E-01  0.91386993690E-01  0.51100000000E-03 0. -1.
         11    1    4    4    0    0 -0.21073379531E-01  0.15689808043E-02  0.31866891600E-01  0.38240148101E-01  0.51100000000E-03 0.  1.
</event>
<event>
 8    1  0.1051655E+005  0.1043930E+01  0.7957747E-01            NaN
         13   -1    0    0    0    0  0.00000000000E+00  0.00000000000E+00  0.74505805969E-08  0.10566000000E+00  0.10566000000E+00 0.  1.
     999900   -1    0    0    0    0 -0.00000000000E+00 -0.00000000000E+00 -0.74505805969E-08  0.93827000000E+00  0.93827000000E+00 0. -1.
     999902    2    1    2    0    0  0.10111185720E-01 -0.21359272915E-01 -0.47668141675E-02  0.10198223843E+01  0.10195374041E+01 0.  0.
     999903    2    3    3    0    0  0.12039781537E+00 -0.21269448126E-01  0.42802796759E-01  0.13166360537E+00  0.23562729043E-01 0.  0.
         14    1    1    2    0    0 -0.10111185720E-01  0.21359272915E-01  0.47668141675E-02  0.24107615673E-01  0.00000000000E+00 0. -1.
     999901    1    3    3    0    0 -0.11028662965E+00 -0.89824789471E-04 -0.47569610926E-01  0.88815877895E+00  0.88000000000E+00 0.  1.
        -11    1    4    4    0    0  0.11521046285E-01 -0.83081598216E-02  0.76315225859E-03  0.14233887364E-01  0.51100000000E-03 0. -1.
         11    1    4    4    0    0  0.10887676909E+00 -0.12961288304E-01  0.42039644500E-01  0.11742971801E+00  0.51100000000E-03 0.  1.
</event>
<event>
 8    1  0.1051655E+005  0.1043930E+01  0.7957747E-01            NaN
         13   -1    0    0    0    0  0.00000000000E+00  0.00000000000E+00  0.74505805969E-08  0.10566000000E+00  0.10566000000E+00 0. -1.
     999900   -1    0    0    0    0 -0.00000000000E+00 -0.00000000000E+00 -0.74505805969E-08  0.93827000000E+00  0.93827000000E+00 0.  1.
     999902    2    1    2    0    0  0.13463938688E-01 -0.19934267360E-01 -0.19852116714E-02  0.10197930216E+01  0.10195073385E+01 0.  0.
     999903    2    3    3    0    0  0.53908844586E-01 -0.97296175904E-01 -0.70042987016E-01  0.13285868578E+00  0.19305465176E-01 0.  0.
         14    1    1    2    0    0 -0.13463938688E-01  0.19934267360E-01  0.19852116714E-02  0.24136978385E-01  0.00000000000E+00 0. -1.
     999901    1    3    3    0    0 -0.40444905898E-01  0.77361908544E-01  0.68057775345E-01  0.88693433584E+00  0.88000000000E+00 0. -1.
        -11    1    4    4    0    0  0.21813753629E-01 -0.26609395062E-01 -0.14196692004E-01  0.37225084792E-01  0.51100000000E-03 0.  1.
         11    1    4    4    0    0  0.32095090957E-01 -0.70686780842E-01 -0.55846295013E-01  0.95633600983E-01  0.51100000000E-03 0. -1.
</event>
<event>
 8    1  0.1051655E+005  0.1043930E+01  0.7957747E-01            NaN
         13   -1    0    0    0    0  0.00000000000E+00  0.00000000000E+00  0.74505805969E-08  0.10566000000E+00  0.10566000000E+00 0.  1.
     999900   -1    0    0    0    0 -0.00000000000E+00 -0.00000000000E+00 -0.74505805969E-08  0.93827000000E+00  0.93827000000E+00 0. -1.
     999902    2    1    2    0    0  0.13912689997E-01 -0.16672431928E-01  0.92714289062E-02  0.10203187247E+01  0.10200454929E+01 0.  0.
     999903    2    3    3    0    0  0.58154189860E-01  0.49518016864E-01 -0.10216605484E+00  0.12972521547E+00  0.23596291529E-01 0.  0.
         14    1    1    2    0    0 -0.13912689997E-01  0.16672431928E-01 -0.92714289062E-02  0.23611275343E-01  0.00000000000E+00 0.  1.
     999901    1    3    3    0    0 -0.44241499863E-01 -0.66190448792E-01  0.11143748375E+00  0.89059350919E+00  0.88000000000E+00 0.  1.
        -11    1    4    4    0    0  0.26457997170E-01  0.97744113611E-02 -0.27508084603E-01  0.39402037653E-01  0.51100000000E-03 0.  1.
         11    1    4    4    0    0  0.31696192690E-01  0.39743605503E-01 -0.74657970242E-01  0.90323177817E-01  0.51100000000E-03 0. -1.
</event>
<event>
 8    1  0.1051655E+005  0.1043930E+01  0.7957747E-01            NaN
         13   -1    0    0    0    0  0.00000000000E+00  0.00000000000E+00  0.74505805969E-08  0.10566000000E+00  0.10566000000E+00 0. -1.
     999900   -1    0    0    0    0 -0.00000000000E+00 -0.00000000000E+00 -0.74505805969E-08  0.93827000000E+00  0.93827000000E+00 0.  1.
     999902    2    1    2    0    0 -0.99205268118E-03  0.16318104350E-01  0.14604906597E-01  0.10220081389E+01  0.10217730022E+01 0.  0.
     999903    2    3    3    0    0 -0.17309015269E-01  0.12636991672E+00  0.38252048955E-01  0.13468811093E+00  0.20216580159E-01 0.  0.
         14    1    1    2    0    0  0.99205268118E-03 -0.16318104350E-01 -0.14604906597E-01  0.21921861116E-01  0.00000000000E+00 0. -1.
     999901    1    3    3    0    0  0.16316962588E-01 -0.11005181237E+00 -0.23647142358E-01  0.88732002796E+00  0.88000000000E+00 0.  1.
        -11    1    4    4    0    0  0.45212493987E-02  0.16744937672E-01  0.45342224119E-02  0.17934740802E-01  0.51100000000E-03 0. -1.
         11    1    4    4    0    0 -0.21830264668E-01  0.10962497905E+00  0.33717826543E-01  0.11675337012E+00  0.51100000000E-03 0.  1.
</event>
<event>
 8    1  0.1051655E+005  0.1043930E+01  0.7957747E-01            NaN
         13   -1    0    0    0    0  0.00000000000E+00  0.00000000000E+00  0.74505805969E-08  0.10566000000E+00  0.10566000000E+00 0. -1.
     999900   -1    0    0    0    0 -0.00000000000E+00 -0.00000000000E+00 -0.74505805969E-08  0.93827000000E+00  0.93827000000E+00 0. -1.
     999902    2    1    2    0    0 -0.12825218652E-01 -0.12887358161E-01 -0.90069778726E-02  0.10236397096E+01  0.10234385957E+01 0.  0.
     999903    2    3    3    0    0  0.11733913896E+00 -0.53586983920E-01 -0.26757814946E-01  0.13295777325E+00  0.17937403141E-01 0.  0.
         14    1    1    2    0    0  0.12825218652E-01  0.12887358161E-01  0.90069778726E-02  0.20290290393E-01  0.00000000000E+00 0. -1.
     999901    1    3    3    0    0 -0.13016435761E+00  0.40699625760E-01  0.17750837074E-01  0.89068193635E+00  0.88000000000E+00 0.  1.
        -11    1    4    4    0    0  0.96794376328E-01 -0.37224998912E-01 -0.24703519384E-01  0.10660852135E+00  0.51100000000E-03 0.  1.
         11    1    4    4    0    0  0.20544762628E-01 -0.16361985008E-01 -0.20542955623E-02  0.26349251908E-01  0.51100000000E-03 0. -1.
</event>
<event>
 8    1  0.1051655E+005  0.1043930E+01  0.7957747E-01            NaN
         13   -1    0    0    0    0  0.00000000000E+00  0.00000000000E+00  0.74505805969E-08  0.10566000000E+00  0.10566000000E+00 0.  1.
     999900   -1    0    0    0    0 -0.00000000000E+00 -0.00000000000E+00 -0.74505805969E-08  0.93827000000E+00  0.93827000000E+00 0.  1.
     999902    2    1    2    0    0 -0.82807921618E-02 -0.19658721848E-01 -0.11164491221E-01  0.10198533988E+01  0.10195691601E+01 0.  0.
     999903    2    3    3    0    0 -0.91713594748E-01 -0.33142383666E-01  0.84724282307E-01  0.13061917844E+00  0.19322647518E-01 0.  0.
         14    1    1    2    0    0  0.82807921618E-02  0.19658721848E-01  0.11164491221E-01  0.24076601250E-01  0.00000000000E+00 0. -1.
     999901    1    3    3    0    0  0.83432802586E-01  0.13483661818E-01 -0.95888773528E-01  0.88923422031E+00  0.88000000000E+00 0.  1.
        -11    1    4    4    0    0 -0.47088371279E-01 -0.17955675325E-01  0.56339812026E-01  0.75592040098E-01  0.51100000000E-03 0. -1.
         11    1    4    4    0    0 -0.44625223469E-01 -0.15186708341E-01  0.28384470281E-01  0.55027138341E-01  0.51100000000E-03 0.  1.
</event>
<event>
 8    1  0.1051655E+005  0.1043930E+01  0.7957747E-01            NaN
         13   -1    0    0    0    0  0.00000000000E+00  0.00000000000E+00  0.74505805969E-08  0.10566000000E+00  0.10566000000E+00 0. -1.
     999900   -1    0    0    0    0 -0.00000000000E+00 -0.00000000000E+00 -0.74505805969E-08  0.93827000000E+00  0.93827000000E+00 0.  1.
     999902    2    1    2    0    0 -0.15580946337E-01  0.95122387634E-02 -0.30518826681E-01  0.10083681193E+01  0.10077408480E+01 0.  0.
     999903    2    3    3    0    0 -0.68528583019E-01 -0.77957138339E-01  0.53316856288E-01  0.11849016932E+00  0.20585212011E-01 0.  0.
         14    1    1    2    0    0  0.15580946337E-01 -0.95122387634E-02  0.30518826681E-01  0.35561880673E-01  0.00000000000E+00 0. -1.
     999901    1    3    3    0    0  0.52947636682E-01  0.87469377103E-01 -0.83835682968E-01  0.88987795000E+00  0.88000000000E+00 0. -1.
        -11    1    4    4    0    0 -0.54569471617E-01 -0.66396604468E-01  0.51675063694E-01  0.10028414454E+00  0.51100000000E-03 0. -1.
         11    1    4    4    0    0 -0.13959111402E-01 -0.11560533871E-01  0.16417925936E-02  0.18206024784E-01  0.51100000000E-03 0.  1.
</event>
<event>
 8    1  0.1051655E+005  0.1043930E+01  0.7957747E-01            NaN
         13   -1    0    0    0    0  0.00000000000E+00  0.00000000000E+00  0.74505805969E-08  0.10566000000E+00  0.10566000000E+00 0.  1.
     999900   -1    0    0    0    0 -0.00000000000E+00 -0.00000000000E+00 -0.74505805969E-08  0.93827000000E+00  0.93827000000E+00 0.  1.
     999902    2    1    2    0    0  0.15901078248E-01 -0.16509925496E-01  0.90976076368E-02  0.10192685241E+01  0.10189701349E+01 0.  0.
     999903    2    3    3    0    0 -0.11414808826E+00  0.16920744462E-01 -0.49486968492E-01  0.12715723733E+00  0.20097395548E-01 0.  0.
         14    1    1    2    0    0 -0.15901078248E-01  0.16509925496E-01 -0.90976076368E-02  0.24661475910E-01  0.00000000000E+00 0. -1.
     999901    1    3    3    0    0  0.13004916651E+00 -0.33430669959E-01  0.58584576129E-01  0.89211128676E+00  0.88000000000E+00 0. -1.
        -11    1    4    4    0    0 -0.93331214074E-01  0.59303755019E-02 -0.37804817193E-01  0.10087294086E+00  0.51100000000E-03 0.  1.
         11    1    4    4    0    0 -0.20816874188E-01  0.10990368960E-01 -0.11682151299E-01  0.26284296468E-01  0.51100000000E-03 0. -1.
</event>
<event>
 8    1  0.1051655E+005  0.1043930E+01  0.7957747E-01            NaN
         13   -1    0    0    0    0  0.00000000000E+00  0.00000000000E+00  0.74505805969E-08  0.10566000000E+00  0.10566000000E+00 0.  1.
     999900   -1    0    0    0    0 -0.00000000000E+00 -0.00000000000E+00 -0.74505805969E-08  0.93827000000E+00  0.93827000000E+00 0.  1.
     999902    2    1    2    0    0  0.17148101467E-01  0.13311679634E-01  0.10527181668E-01  0.10198036710E+01  0.10195182429E+01 0.  0.
     999903    2    3    3    0    0  0.71614399945E-01 -0.10101297992E+00 -0.31050598281E-01  0.12976692047E+00  0.23303853835E-01 0.  0.
         14    1    1    2    0    0 -0.17148101467E-01 -0.13311679634E-01 -0.10527181668E-01  0.24126329030E-01  0.00000000000E+00 0. -1.
     999901    1    3    3    0    0 -0.54466298478E-01  0.11432465955E+00  0.41577779948E-01  0.89003675050E+00  0.88000000000E+00 0. -1.
        -11    1    4    4    0    0  0.43817003904E-01 -0.75053514689E-01 -0.29203566268E-01  0.91684618677E-01  0.51100000000E-03 0. -1.
         11    1    4    4    0    0  0.27797396041E-01 -0.25959465231E-01 -0.18470320123E-02  0.38082301795E-01  0.51100000000E-03 0.  1.
</event>
<event>
 8    1  0.1051655E+005  0.1043930E+01  0.7957747E-01            NaN
         13   -1    0    0    0    0  0.00000000000E+00  0.00000000000E+00  0.74505805969E-08  0.10566000000E+00  0.10566000000E+00 0. -1.
     999900   -1    0    0    0    0 -0.00000000000E+00 -0.00000000000E+00 -0.74505805969E-08  0.93827000000E+00  0.93827000000E+00 0. -1.
     999902    2    1    2    0    0 -0.23214189806E-01 -0.37790782905E-02 -0.32825552474E-02  0.10201822588E+01  0.10199058221E+01 0.  0.
     999903    2    3    3    0    0  0.30259904426E-01  0.27313377504E-01 -0.12185136742E+00  0.13007845435E+00  0.20272299726E-01 0.  0.
         14    1    1    2    0    0  0.23214189806E-01  0.37790782905E-02  0.32825552474E-02  0.23747741156E-01  0.00000000000E+00 0. -1.
     999901    1    3    3    0    0 -0.53474094232E-01 -0.31092455795E-01  0.11856881217E+00  0.89010380450E+00  0.88000000000E+00 0. -1.
        -11    1    4    4    0    0  0.37905013078E-02  0.16481306240E-01 -0.44638004868E-01  0.47736924442E-01  0.51100000000E-03 0. -1.
         11    1    4    4    0    0  0.26469403118E-01  0.10832071264E-01 -0.77213362553E-01  0.82341529904E-01  0.51100000000E-03 0.  1.
</event>
<event>
 8    1  0.1051655E+005  0.1043930E+01  0.7957747E-01            NaN
         13   -1    0    0    0    0  0.00000000000E+00  0.00000000000E+00  0.74505805969E-08  0.10566000000E+00  0.10566000000E+00 0. -1.
     999900   -1    0    0    0    0 -0.00000000000E+00 -0.00000000000E+00 -0.74505805969E-08  0.93827000000E+00  0.93827000000E+00 0. -1.
     999902    2    1    2    0    0  0.26800554885E-02 -0.15942024391E-02  0.22656734145E-01  0.10210596747E+01  0.10208035107E+01 0.  0.
     999903    2    3    3    0    0  0.11100039107E-01 -0.27276746457E-01  0.12944285456E+00  0.13419228621E+00  0.19618494260E-01 0.  0.
         14    1    1    2    0    0 -0.26800554885E-02  0.15942024391E-02 -0.22656734145E-01  0.22870325336E-01  0.00000000000E+00 0.  1.
     999901    1    3    3    0    0 -0.84199836188E-02  0.25682544018E-01 -0.10678612041E+00  0.88686738845E+00  0.88000000000E+00 0. -1.
        -11    1    4    4    0    0  0.25801345945E-02  0.29325717244E-02  0.16924474963E-01  0.17376882494E-01  0.51100000000E-03 0.  1.
         11    1    4    4    0    0  0.85199045128E-02 -0.30209318181E-01  0.11251837959E+00  0.11681540372E+00  0.51100000000E-03 0. -1.
</event>
<event>
 8    1  0.1051655E+005  0.1043930E+01  0.7957747E-01            NaN
         13   -1    0    0    0    0  0.00000000000E+00  0.00000000000E+00  0.74505805969E-08  0.10566000000E+00  0.10566000000E+00 0. -1.
     999900   -1    0    0    0    0 -0.00000000000E+00 -0.00000000000E+00 -0.74505805969E-08  0.93827000000E+00  0.93827000000E+00 0.  1.
     999902    2    1    2    0    0  0.15470684996E-01  0.10164505718E-01  0.73152453272E-02  0.10240259279E+01  0.10238324712E+01 0.  0.
     999903    2    3    3    0    0  0.80586579228E-01  0.20134640534E-01 -0.10393038808E+00  0.13457942913E+00  0.20260717617E-01 0.  0.
         14    1    1    2    0    0 -0.15470684996E-01 -0.10164505718E-01 -0.73152453272E-02  0.19904072069E-01  0.00000000000E+00 0.  1.
     999901    1    3    3    0    0 -0.65115894232E-01 -0.99701348157E-02  0.11124563341E+00  0.88944649880E+00  0.88000000000E+00 0. -1.
        -11    1    4    4    0    0  0.50484546806E-01  0.60192414620E-02 -0.50601292549E-01  0.71733344147E-01  0.51100000000E-03 0.  1.
         11    1    4    4    0    0  0.30102032423E-01  0.14115399072E-01 -0.53329095532E-01  0.62846084987E-01  0.51100000000E-03 0. -1.
</event>
<event>
 8    1  0.1051655E+005  0.1043930E+01  0.7957747E-01            NaN
         13   -1    0    0    0    0  0.00000000000E+00  0.00000000000E+00  0.74505805969E-08  0.10566000000E+00  0.10566000000E+00 0.  1.
     999900   -1    0    0    0    0 -0.00000000000E+00 -0.00000000000E+00 -0.74505805969E-08  0.93827000000E+00  0.93827000000E+00 0.  1.
     999902    2    1    2    0    0  0.12640601405E-01  0.18061741036E-01 -0.79962001933E-02  0.10204789763E+01  0.10202094837E+01 0.  0.
     999903    2    3    3    0    0 -0.89641411026E-01  0.76254611463E-01 -0.55518626571E-01  0.13137470729E+00  0.18073391466E-01 0.  0.
         14    1    1    2    0    0 -0.12640601405E-01 -0.18061741036E-01  0.79962001933E-02  0.23451023659E-01  0.00000000000E+00 0.  1.
     999901    1    3    3    0    0  0.10228201243E+00 -0.58192870428E-01  0.47522426378E-01  0.88910426905E+00  0.88000000000E+00 0. -1.
        -11    1    4    4    0    0 -0.19455060088E-01  0.26072540527E-01 -0.19049597840E-01  0.37701790825E-01  0.51100000000E-03 0.  1.
         11    1    4    4    0    0 -0.70186350938E-01  0.50182070936E-01 -0.36469028731E-01  0.93672916465E-01  0.51100000000E-03 0. -1.
</event>
<event>
 8    1  0.1051655E+005  0.1043930E+01  0.7957747E-01            NaN
         13   -1    0    0    0    0  0.00000000000E+00  0.00000000000E+00  0.74505805969E-08  0.10566000000E+00  0.10566000000E+00 0.  1.
     999900   -1    0    0    0    0 -0.00000000000E+00 -0.00000000000E+00 -0.74505805969E-08  0.93827000000E+00  0.93827000000E+00 0.  1.
     999902    2    1    2    0    0 -0.25995190800E-02 -0.30646696085E-01  0.17328543793E-01  0.10086276501E+01  0.10080096629E+01 0.  0.
     999903    2    3    3    0    0  0.20389144434E-02  0.10733472504E+00  0.42734832238E-01  0.11750147094E+00  0.21340792259E-01 0.  0.
         14    1    1    2    0    0  0.25995190800E-02  0.30646696085E-01 -0.17328543793E-01  0.35302349927E-01  0.00000000000E+00 0.  1.
     999901    1    3    3    0    0 -0.46384335234E-02 -0.13798142113E+00 -0.25406288446E-01  0.89112617913E+00  0.88000000000E+00 0. -1.
        -11    1    4    4    0    0  0.10331859746E-01  0.84606332486E-01  0.32375637115E-01  0.91177967855E-01  0.51100000000E-03 0. -1.
         11    1    4    4    0    0 -0.82929453031E-02  0.22728392559E-01  0.10359195124E-01  0.26323503086E-01  0.51100000000E-03 0.  1.
</event>
<event>
 8    1  0.1051655E+005  0.1043930E+01  0.7957747E-01            NaN
         13   -1    0    0    0    0  0.00000000000E+00  0.00000000000E+00  0.74505805969E-08  0.10566000000E+00  0.10566000000E+00 0. -1.
     999900   -1    0    0    0    0 -0.00000000000E+00 -0.00000000000E+00 -0.74505805969E-08  0.93827000000E+00  0.93827000000E+00 0. -1.
     999902    2    1    2    0    0 -0.13487351111E-01  0.15672158331E-01 -0.11443025659E-01  0.10202980720E+01  0.10200243564E+01 0.  0.
     999903    2    3    3    0    0 -0.36571790659E-01 -0.11802223298E+00  0.33022690235E-01  0.12879132408E+00  0.15164555348E-01 0.  0.
         14    1    1    2    0    0  0.13487351111E-01 -0.15672158331E-01  0.11443025659E-01  0.23631928042E-01  0.00000000000E+00 0. -1.
     999901    1    3    3    0    0  0.23084439548E-01  0.13369439131E+00 -0.44465715894E-01  0.89150674788E+00  0.88000000000E+00 0. -1.
        -11    1    4    4    0    0 -0.67177888579E-02 -0.11729842691E-01  0.75236094364E-02  0.15478492066E-01  0.51100000000E-03 0.  1.
         11    1    4    4    0    0 -0.29854001801E-01 -0.10629239029E+00  0.25499080799E-01  0.11331283202E+00  0.51100000000E-03 0. -1.
</event>
<event>
 8    1  0.1051655E+005  0.1043930E+01  0.7957747E-01            NaN
         13   -1    0    0    0    0  0.00000000000E+00  0.00000000000E+00  0.74505805969E-08  0.10566000000E+00  0.10566000000E+00 0.  1.
     999900   -1    0    0    0    0 -0.00000000000E+00 -0.00000000000E+00 -0.74505805969E-08  0.93827000000E+00  0.93827000000E+00 0. -1.
     999902    2    1    2    0    0  0.62042225084E-02  0.10018751325E-01  0.20354534916E-01  0.10204103306E+01  0.10201392395E+01 0.  0.
     999903    2    3    3    0    0 -0.27246819641E-01  0.14823093735E-01  0.12835749048E+00  0.13316363871E+00  0.17169625051E-01 0.  0.
         14    1    1    2    0    0 -0.62042225084E-02 -0.10018751325E-01 -0.20354534916E-01  0.23519669358E-01  0.00000000000E+00 0. -1.
     999901    1    3    3    0    0  0.33451042149E-01 -0.48043424103E-02 -0.10800295557E+00  0.88724669193E+00  0.88000000000E+00 0. -1.
        -11    1    4    4    0    0 -0.92447306910E-02 -0.44770328763E-03  0.62863558426E-01  0.63543320521E-01  0.51100000000E-03 0.  1.
         11    1    4    4    0    0 -0.18002088950E-01  0.15270797023E-01  0.65493932055E-01  0.69620318193E-01  0.51100000000E-03 0. -1.
</event>
<event>
 8    1  0.1051655E+005  0.1043930E+01  0.7957747E-01            NaN
         13   -1    0    0    0    0  0.00000000000E+00  0.00000000000E+00  0.74505805969E-08  0.10566000000E+00  0.10566000000E+00 0. -1.
     999900   -1    0    0    0    0 -0.00000000000E+00 -0.00000000000E+00 -0.74505805969E-08  0.93827000000E+00  0.93827000000E+00 0.  1.
     999902    2    1    2    0    0 -0.12560329439E-01  0.19505488218E-01  0.83284411962E-02  0.10192806820E+01  0.10189825905E+01 0.  0.
     999903    2    3    3    0    0 -0.34812474614E-01  0.78537058926E-01 -0.96511134228E-01  0.13081502655E+00  0.20449795275E-01 0.  0.
         14    1    1    2    0    0  0.12560329439E-01 -0.19505488218E-01 -0.83284411962E-02  0.24649318023E-01  0.00000000000E+00 0.  1.
     999901    1    3    3    0    0  0.22252145175E-01 -0.59031570708E-01  0.10483957542E+00  0.88846565543E+00  0.88000000000E+00 0. -1.
        -11    1    4    4    0    0 -0.20841633489E-01  0.62870840296E-01 -0.81406503813E-01  0.10494949371E+00  0.51100000000E-03 0. -1.
         11    1    4    4    0    0 -0.13970841125E-01  0.15666218630E-01 -0.15104630415E-01  0.25865532836E-01  0.51100000000E-03 0.  1.
</event>
<event>
 8    1  0.1051655E+005  0.1043930E+01  0.7957747E-01            NaN
         13   -1    0    0    0    0  0.00000000000E+00  0.00000000000E+00  0.74505805969E-08  0.10566000000E+00  0.10566000000E+00 0.  1.
     999900   -1    0    0    0    0 -0.00000000000E+00 -0.00000000000E+00 -0.74505805969E-08  0.93827000000E+00  0.93827000000E+00 0.  1.
     999902    2    1    2    0    0 -0.15079621280E-01  0.18321715135E-01 -0.15278563984E-02  0.10201515524E+01  0.10198743920E+01 0.  0.
     999903    2    3    3    0    0  0.10313701310E+00  0.12355512833E-02 -0.75079737057E-01  0.12904157674E+00  0.19390501605E-01 0.  0.
         14    1    1    2    0    0  0.15079621280E-01 -0.18321715135E-01  0.15278563984E-02  0.23778447565E-01  0.00000000000E+00 0. -1.
     999901    1    3    3    0    0 -0.11821663438E+00  0.17086163852E-01  0.73551880659E-01  0.89110997570E+00  0.88000000000E+00 0. -1.
        -11    1    4    4    0    0  0.18873943321E-01 -0.71913203147E-02 -0.16243133627E-01  0.25923760055E-01  0.51100000000E-03 0.  1.
         11    1    4    4    0    0  0.84263069776E-01  0.84268715980E-02 -0.58836603431E-01  0.10311781668E+00  0.51100000000E-03 0. -1.
</event>
<event>
 8    1  0.1051655E+005  0.1043930E+01  0.7957747E-01            NaN
         13   -1    0    0    0    0  0.00000000000E+00  0.00000000000E+00  0.74505805969E-08  0.10566000000E+00  0.10566000000E+00 0. -1.
     999900   -1    0    0    0    0 -0.00000000000E+00 -0.00000000000E+00 -0.74505805969E-08  0.93827000000E+00  0.93827000000E+00 0.  1.
     999902    2    1    2    0    0  0.22921969123E-02 -0.21116036419E-01  0.99977475033E-02  0.10204545636E+01  0.10201845030E+01 0.  0.
     999903    2    3    3    0    0  0.46428770348E-01  0.15541587408E-03  0.12188995824E+00  0.13201752099E+00  0.20391396671E-01 0.  0.
         14    1    1    2    0    0 -0.22921969123E-02  0.21116036419E-01 -0.99977475033E-02  0.23475436436E-01  0.00000000000E+00 0.  1.
     999901    1    3    3    0    0 -0.44136573436E-01 -0.21271452293E-01 -0.11189221074E+00  0.88843704258E+00  0.88000000000E+00 0.  1.
        -11    1    4    4    0    0  0.37285805584E-01  0.12726320931E-02  0.70087562462E-01  0.79400116016E-01  0.51100000000E-03 0. -1.
         11    1    4    4    0    0  0.91429647645E-02 -0.11172162191E-02  0.51802395777E-01  0.52617404972E-01  0.51100000000E-03 0.  1.
</event>
<event>
 8    1  0.1051655E+005  0.1043930E+01  0.7957747E-01            NaN
         13   -1    0    0    0    0  0.00000000000E+00  0.00000000000E+00  0.74505805969E-08  0.10566000000E+00  0.10566000000E+00 0.  1.
     999900   -1    0    0    0    0 -0.00000000000E+00 -0.00000000000E+00 -0.74505805969E-08  0.93827000000E+00  0.93827000000E+00 0.  1.
     999902    2    1    2    0    0  0.19003800966E-01  0.14112330301E-01  0.48228837390E-02  0.10197729612E+01  0.10194867973E+01 0.  0.
     999903    2    3    3    0    0  0.12332041517E+00 -0.37734462739E-01 -0.18828611370E-01  0.13178115987E+00  0.19492127021E-01 0.  0.
         14    1    1    2    0    0 -0.19003800966E-01 -0.14112330301E-01 -0.48228837390E-02  0.24157038834E-01  0.00000000000E+00 0.  1.
     999901    1    3    3    0    0 -0.10431661420E+00  0.51846793040E-01  0.23651495109E-01  0.88799180130E+00  0.88000000000E+00 0. -1.
        -11    1    4    4    0    0  0.60558412035E-01 -0.10444453296E-01 -0.14861112427E-01  0.63225957141E-01  0.51100000000E-03 0.  1.
         11    1    4    4    0    0  0.62762003131E-01 -0.27290009443E-01 -0.39674989433E-02  0.68555202729E-01  0.51100000000E-03 0. -1.
</event>
<event>
 8    1  0.1051655E+005  0.1043930E+01  0.7957747E-01            NaN
         13   -1    0    0    0    0  0.00000000000E+00  0.00000000000E+00  0.74505805969E-08  0.10566000000E+00  0.10566000000E+00 0.  1.
     999900   -1    0    0    0    0 -0.00000000000E+00 -0.00000000000E+00 -0.74505805969E-08  0.93827000000E+00  0.93827000000E+00 0.  1.
     999902    2    1    2    0    0 -0.16537840367E-01  0.13355581295E-01 -0.95290171954E-02  0.10206346381E+01  0.10203687523E+01 0.  0.
     999903    2    3    3    0    0  0.10673814293E+00 -0.67506592388E-01 -0.92484659077E-02  0.12837025024E+00  0.21052692346E-01 0.  0.
         14    1    1    2    0    0  0.16537840367E-01 -0.13355581295E-01  0.95290171954E-02  0.23295361865E-01  0.00000000000E+00 0.  1.
     999901    1    3    3    0    0 -0.12327598329E+00  0.80862173683E-01 -0.28055128770E-03  0.89226438789E+00  0.88000000000E+00 0. -1.
        -11    1    4    4    0    0  0.92023205591E-01 -0.61901723979E-01 -0.17463816981E-02  0.11092071389E+00  0.51100000000E-03 0. -1.
         11    1    4    4    0    0  0.14714937334E-01 -0.56048684094E-02 -0.75020842096E-02  0.17449536358E-01  0.51100000000E-03 0.  1.
</event>
<event>
 8    1  0.1051655E+005  0.1043930E+01  0.7957747E-01            NaN
         13   -1    0    0    0    0  0.00000000000E+00  0.00000000000E+00  0.74505805969E-08  0.10566000000E+00  0.10566000000E+00 0.  1.
     999900   -1    0    0    0    0 -0.00000000000E+00 -0.00000000000E+00 -0.74505805969E-08  0.93827000000E+00  0.93827000000E+00 0.  1.
     999902    2    1    2    0    0  0.20740575009E-01  0.47551188523E-02 -0.10380733979E-01  0.10202542266E+01  0.10199794825E+01 0.  0.
     999903    2    3    3    0    0  0.68552579952E-01 -0.67068145399E-01 -0.89172691582E-01  0.13253087913E+00  0.20373331914E-01 0.  0.
         14    1    1    2    0    0 -0.20740575009E-01 -0.47551188523E-02  0.10380733979E-01  0.23675773376E-01  0.00000000000E+00 0.  1.
     999901    1    3    3    0    0 -0.47812004943E-01  0.71823264251E-01  0.78791957603E-01  0.88772334749E+00  0.88000000000E+00 0. -1.
        -11    1    4    4    0    0  0.33083982177E-01 -0.40523937656E-01 -0.36963767440E-01  0.64057166845E-01  0.51100000000E-03 0.  1.
         11    1    4    4    0    0  0.35468597774E-01 -0.26544207743E-01 -0.52208924143E-01  0.68473712284E-01  0.51100000000E-03 0. -1.
</event>
<event>
 8    1  0.1051655E+005  0.1043930E+01  0.7957747E-01            NaN
         13   -1    0    0    0    0  0.00000000000E+00  0.00000000000E+00  0.74505805969E-08  0.10566000000E+00  0.10566000000E+00 0.  1.
     999900   -1    0    0    0    0 -0.00000000000E+00 -0.00000000000E+00 -0.74505805969E-08  0.93827000000E+00  0.93827000000E+00 0. -1.
     999902    2    1    2    0    0  0.16888503659E-01  0.79719071246E-02  0.14330030282E-01  0.10203901906E+01  0.10201186296E+01 0.  0.
     999903    2    3    3    0    0  0.24478355086E-01  0.64777048306E-01 -0.10810679636E+00  0.13006709956E+00  0.20859413075E-01 0.  0.
         14    1    1    2    0    0 -0.16888503659E-01 -0.79719071246E-02 -0.14330030282E-01  0.23539809407E-01  0.00000000000E+00 0. -1.
     999901    1    3    3    0    0 -0.75898514269E-02 -0.56805141182E-01  0.12243682664E+00  0.89032309103E+00  0.88000000000E+00 0.  1.
        -11    1    4    4    0    0  0.23557780849E-01  0.48973523932E-01 -0.68707438703E-01  0.87603358035E-01  0.51100000000E-03 0.  1.
         11    1    4    4    0    0  0.92057423715E-03  0.15803524374E-01 -0.39399357656E-01  0.42463741525E-01  0.51100000000E-03 0. -1.
</event>
<event>
 8    1  0.1051655E+005  0.1043930E+01  0.7957747E-01            NaN
         13   -1    0    0    0    0  0.00000000000E+00  0.00000000000E+00  0.74505805969E-08  0.10566000000E+00  0.10566000000E+00 0.  1.
     999900   -1    0    0    0    0 -0.00000000000E+00 -0.00000000000E+00 -0.74505805969E-08  0.93827000000E+00  0.93827000000E+00 0. -1.
     999902    2    1    2    0    0  0.15950210110E-01 -0.14734850699E-01  0.92620711296E-02  0.10203225650E+01  0.10200494231E+01 0.  0.
     999903    2    3    3    0    0 -0.46587783119E-01  0.10499740552E+00  0.56662981997E-01  0.12875447439E+00  0.13120382769E-01 0.  0.
         14    1    1    2    0    0 -0.15950210110E-01  0.14734850699E-01 -0.92620711296E-02  0.23607435043E-01  0.00000000000E+00 0.  1.
     999901    1    3    3    0    0  0.62537993229E-01 -0.11973225622E+00 -0.47400910867E-01  0.89156809057E+00  0.88000000000E+00 0.  1.
        -11    1    4    4    0    0 -0.44243985490E-02  0.12044200188E-01  0.20872411970E-02  0.13009833108E-01  0.51100000000E-03 0. -1.
         11    1    4    4    0    0 -0.42163384570E-01  0.92953205330E-01  0.54575740800E-01  0.11574464128E+00  0.51100000000E-03 0.  1.
</event>
<event>
 8    1  0.1051655E+005  0.1043930E+01  0.7957747E-01            NaN
         13   -1    0    0    0    0  0.00000000000E+00  0.00000000000E+00  0.74505805969E-08  0.10566000000E+00  0.10566000000E+00 0. -1.
     999900   -1    0    0    0    0 -0.00000000000E+00 -0.00000000000E+00 -0.74505805969E-08  0.93827000000E+00  0.93827000000E+00 0. -1.
     999902    2    1    2    0    0 -0.96045463342E-02  0.50692857720E-02 -0.20828415559E-01  0.10204402605E+01  0.10201698669E+01 0.  0.
     999903    2    3    3    0    0  0.29617514757E-01  0.58278112754E-01  0.10883087783E+00  0.12848674054E+00  0.19777434634E-01 0.  0.
         14    1    1    2    0    0  0.96045463342E-02 -0.50692857720E-02  0.20828415559E-01  0.23489739531E-01  0.00000000000E+00 0.  1.
     999901    1    3    3    0    0 -0.39222061091E-01 -0.53208826982E-01 -0.12965929339E+00  0.89195351992E+00  0.88000000000E+00 0. -1.
        -11    1    4    4    0    0  0.26224014449E-01  0.37482926295E-01  0.61272040844E-01  0.76466939312E-01  0.51100000000E-03 0. -1.
         11    1    4    4    0    0  0.33935003079E-02  0.20795186459E-01  0.47558836982E-01  0.52019801233E-01  0.51100000000E-03 0.  1.
</event>
<event>
 8    1  0.1051655E+005  0.1043930E+01  0.7957747E-01            NaN
         13   -1    0    0    0    0  0.00000000000E+00  0.00000000000E+00  0.74505805969E-08  0.10566000000E+00  0.10566000000E+00 0.  1.
     999900   -1    0    0    0    0 -0.00000000000E+00 -0.00000000000E+00 -0.74505805969E-08  0.93827000000E+00  0.93827000000E+00 0. -1.
     999902    2    1    2    0    0 -0.14244491557E-01 -0.13329658240E-01  0.15618552826E-01  0.10189395114E+01  0.10186330072E+01 0.  0.
     999903    2    3    3    0    0  0.10333111226E+00  0.63313214818E-01  0.34698709350E-01  0.12761341788E+00  0.19882204627E-01 0.  0.
         14    1    1    2    0    0  0.14244491557E-01  0.13329658240E-01 -0.15618552826E-01  0.24990488608E-01  0.00000000000E+00 0.  1.
     999901    1    3    3    0    0 -0.11757560382E+00 -0.76642873058E-01 -0.19080156524E-01  0.89132609351E+00  0.88000000000E+00 0.  1.
        -11    1    4    4    0    0  0.50651340536E-01  0.30565963964E-01  0.27254799110E-01  0.65137712937E-01  0.51100000000E-03 0. -1.
         11    1    4    4    0    0  0.52679771724E-01  0.32747250854E-01  0.74439102396E-02  0.62475704942E-01  0.51100000000E-03 0.  1.
</event>
<event>
 8    1  0.1051655E+005  0.1043930E+01  0.7957747E-01            NaN
         13   -1    0    0    0    0  0.00000000000E+00  0.00000000000E+00  0.74505805969E-08  0.10566000000E+00  0.10566000000E+00 0.  1.
     999900   -1    0    0    0    0 -0.00000000000E+00 -0.00000000000E+00 -0.74505805969E-08  0.93827000000E+00  0.93827000000E+00 0.  1.
     999902    2    1    2    0    0  0.81774410939E-02 -0.13016777691E-01 -0.19304735638E-01  0.10192524827E+01  0.10189537004E+01 0.  0.
     999903    2    3    3    0    0  0.53434984810E-01  0.11312644549E+00 -0.23787324273E-01  0.12909493951E+00  0.21137084457E-01 0.  0.
         14    1    1    2    0    0 -0.81774410939E-02  0.13016777691E-01  0.19304735638E-01  0.24677517346E-01  0.00000000000E+00 0.  1.
     999901    1    3    3    0    0 -0.45257543716E-01 -0.12614322318E+00  0.44825886347E-02  0.89015754315E+00  0.88000000000E+00 0. -1.
        -11    1    4    4    0    0  0.35721621660E-01  0.66662298829E-01 -0.24056814313E-01  0.79365532664E-01  0.51100000000E-03 0.  1.
         11    1    4    4    0    0  0.17713363150E-01  0.46464146663E-01  0.26949004025E-03  0.49729406844E-01  0.51100000000E-03 0. -1.
</event>
<event>
 8    1  0.1051655E+005  0.1043930E+01  0.7957747E-01            NaN
         13   -1    0    0    0    0  0.00000000000E+00  0.00000000000E+00  0.74505805969E-08  0.10566000000E+00  0.10566000000E+00 0. -1.
     999900   -1    0    0    0    0 -0.00000000000E+00 -0.00000000000E+00 -0.74505805969E-08  0.93827000000E+00  0.93827000000E+00 0. -1.
     999902    2    1    2    0    0 -0.71836010733E-02  0.21957148718E-01 -0.32591443428E-02  0.10205988507E+01  0.10203321379E+01 0.  0.
     999903    2    3    3    0    0  0.10881876020E+00  0.22717091442E-01  0.63663435866E-01  0.13046641279E+00  0.24715642537E-01 0.  0.
         14    1    1    2    0    0  0.71836010733E-02 -0.21957148718E-01  0.32591443428E-02  0.23331149266E-01  0.00000000000E+00 0. -1.
     999901    1    3    3    0    0 -0.11600236127E+00 -0.75994272321E-03 -0.66922580209E-01  0.89013243794E+00  0.88000000000E+00 0. -1.
        -11    1    4    4    0    0  0.73144751591E-01  0.13965295941E-01  0.55395152603E-01  0.92812004767E-01  0.51100000000E-03 0. -1.
         11    1    4    4    0    0  0.35674008608E-01  0.87517955005E-02  0.82682832627E-02  0.37654408026E-01  0.51100000000E-03 0.  1.
</event>
<event>
 8    1  0.1051655E+005  0.1043930E+01  0.7957747E-01            NaN
         13   -1    0    0    0    0  0.00000000000E+00  0.00000000000E+00  0.74505805969E-08  0.10566000000E+00  0.10566000000E+00 0. -1.
     999900   -1    0    0    0    0 -0.00000000000E+00 -0.00000000000E+00 -0.74505805969E-08  0.93827000000E+00  0.93827000000E+00 0.  1.
     999902    2    1    2    0    0  0.11647805078E-01  0.19903917340E-01 -0.29831781829E-02  0.10206762553E+01  0.10204113296E+01 0.  0.
     999903    2    3    3    0    0  0.52505019939E-01 -0.79682317999E-01 -0.86498694398E-01  0.13019235783E+00  0.19025692753E-01 0.  0.
         14    1    1    2    0    0 -0.11647805078E-01 -0.19903917340E-01  0.29831781829E-02  0.23253744659E-01  0.00000000000E+00 0. -1.
     999901    1    3    3    0    0 -0.40857214860E-01  0.99586235339E-01  0.83515516215E-01  0.89048389751E+00  0.88000000000E+00 0. -1.
        -11    1    4    4    0    0  0.37194811183E-01 -0.67687318353E-01 -0.62902570184E-01  0.99609344449E-01  0.51100000000E-03 0. -1.
         11    1    4    4    0    0  0.15310208756E-01 -0.11994999646E-01 -0.23596124214E-01  0.30583013383E-01  0.51100000000E-03 0.  1.
</event>
<event>
 8    1  0.1051655E+005  0.1043930E+01  0.7957747E-01            NaN
         13   -1    0    0    0    0  0.00000000000E+00  0.00000000000E+00  0.74505805969E-08  0.10566000000E+00  0.10566000000E+00 0. -1.
     999900   -1    0    0    0    0 -0.00000000000E+00 -0.00000000000E+00 -0.74505805969E-08  0.93827000000E+00  0.93827000000E+00 0.  1.
     999902    2    1    2    0    0 -0.20722874589E-01 -0.10946337079E-01  0.51798243875E-02  0.10199281166E+01  0.10196456603E+01 0.  0.
     999903    2    3    3    0    0  0.12226381001E-01 -0.16376977284E-02 -0.12717111663E+00  0.12937262938E+00  0.20312997800E-01 0.  0.
         14    1    1    2    0    0  0.20722874589E-01  0.10946337079E-01 -0.51798243875E-02  0.24001883413E-01  0.00000000000E+00 0. -1.
     999901    1    3    3    0    0 -0.32949255590E-01 -0.93086393504E-02  0.13235094102E+00  0.89055548721E+00  0.88000000000E+00 0. -1.
        -11    1    4    4    0    0 -0.31569092335E-02 -0.67636654595E-02 -0.35961019294E-01  0.36731039680E-01  0.51100000000E-03 0. -1.
         11    1    4    4    0    0  0.15383290234E-01  0.51259677311E-02 -0.91210097341E-01  0.92641589696E-01  0.51100000000E-03 0.  1.
</event>
<event>
 8    1  0.1051655E+005  0.1043930E+01  0.7957747E-01            NaN
         13   -1    0    0    0    0  0.00000000000E+00  0.00000000000E+00  0.74505805969E-08  0.10566000000E+00  0.10566000000E+00 0.  1.
     999900   -1    0    0    0    0 -0.00000000000E+00 -0.00000000000E+00 -0.74505805969E-08  0.93827000000E+00  0.93827000000E+00 0. -1.
     999902    2    1    2    0    0  0.40709109039E-02  0.18200297819E-01 -0.13368127441E-01  0.10209837587E+01  0.10207258719E+01 0.  0.
     999903    2    3    3    0    0  0.77263966937E-01  0.48632867196E-01 -0.95462072323E-01  0.13361530060E+00  0.20128709440E-01 0.  0.
         14    1    1    2    0    0 -0.40709109039E-02 -0.18200297819E-01  0.13368127441E-01  0.22946241252E-01  0.00000000000E+00 0.  1.
     999901    1    3    3    0    0 -0.73193056033E-01 -0.30432569377E-01  0.82093944882E-01  0.88736845815E+00  0.88000000000E+00 0.  1.
        -11    1    4    4    0    0  0.46104074060E-01  0.39256371021E-01 -0.67781669892E-01  0.90891496880E-01  0.51100000000E-03 0.  1.
         11    1    4    4    0    0  0.31159892876E-01  0.93764961757E-02 -0.27680402430E-01  0.42723803720E-01  0.51100000000E-03 0. -1.
</event>
<event>
 8    1  0.1051655E+005  0.1043930E+01  0.7957747E-01            NaN
         13   -1    0    0    0    0  0.00000000000E+00  0.00000000000E+00  0.74505805969E-08  0.10566000000E+00  0.10566000000E+00 0.  1.
     999900   -1    0    0    0    0 -0.00000000000E+00 -0.00000000000E+00 -0.74505805969E-08  0.93827000000E+00  0.93827000000E+00 0.  1.
     999902    2    1    2    0    0 -0.13247319666E-01 -0.18294630631E-01 -0.50112609001E-02  0.10207934980E+01  0.10205312675E+01 0.  0.
     999903    2    3    3    0    0 -0.97747351486E-01 -0.23165848485E-01 -0.84583475732E-01  0.13315859474E+00  0.22037371162E-01 0.  0.
         14    1    1    2    0    0  0.13247319666E-01  0.18294630631E-01  0.50112609001E-02  0.23136501984E-01  0.00000000000E+00 0.  1.
     999901    1    3    3    0    0  0.84500031820E-01  0.48712178548E-02  0.79572214832E-01  0.88763490328E+00  0.88000000000E+00 0. -1.
        -11    1    4    4    0    0 -0.63875764483E-01 -0.24388221498E-01 -0.49789299090E-01  0.84582114309E-01  0.51100000000E-03 0.  1.
         11    1    4    4    0    0 -0.33871587003E-01  0.12223730130E-02 -0.34794176641E-01  0.48576480430E-01  0.51100000000E-03 0. -1.
</event>
<event>
 8    1  0.1051655E+005  0.1043930E+01  0.7957747E-01            NaN
         13   -1    0    0    0    0  0.00000000000E+00  0.00000000000E+00  0.74505805969E-08  0.10566000000E+00  0.10566000000E+00 0. -1.
     999900   -1    0    0    0    0 -0.00000000000E+00 -0.00000000000E+00 -0.74505805969E-08  0.93827000000E+00  0.93827000000E+00 0.  1.
     999902    2    1    2    0    0 -0.12790871536E-01  0.14207580686E-01  0.14097743068E-01  0.10201769349E+01  0.10199003727E+01 0.  0.
     999903    2    3    3    0    0 -0.29028456035E-01  0.31077371327E-01  0.12432024344E+00  0.13299192114E+00  0.20563897793E-01 0.  0.
         14    1    1    2    0    0  0.12790871536E-01 -0.14207580686E-01 -0.14097743068E-01  0.23753065133E-01  0.00000000000E+00 0.  1.
     999901    1    3    3    0    0  0.16237584499E-01 -0.16869790642E-01 -0.11022250037E+00  0.88718501372E+00  0.88000000000E+00 0.  1.
        -11    1    4    4    0    0 -0.14646694268E-01  0.19989852211E-01  0.42685597248E-01  0.49360319871E-01  0.51100000000E-03 0.  1.
         11    1    4    4    0    0 -0.14381761767E-01  0.11087519116E-01  0.81634646192E-01  0.83631601273E-01  0.51100000000E-03 0. -1.
</event>
<event>
 8    1  0.1051655E+005  0.1043930E+01  0.7957747E-01            NaN
         13   -1    0    0    0    0  0.00000000000E+00  0.00000000000E+00  0.74505805969E-08  0.10566000000E+00  0.10566000000E+00 0. -1.
     999900   -1    0    0    0    0 -0.00000000000E+00 -0.00000000000E+00 -0.74505805969E-08  0.93827000000E+00  0.93827000000E+00 0. -1.
     999902    2    1    2    0    0  0.17551242124E-01  0.20311196968E-01 -0.30754002523E-02  0.10169105827E+01  0.10165515650E+01 0.  0.
     999903    2    3    3    0    0 -0.33651400410E-01  0.78772589150E-01 -0.94119163959E-01  0.12880675329E+00  0.19880269540E-01 0.  0.
         14    1    1    2    0    0 -0.17551242124E-01 -0.20311196968E-01  0.30754002523E-02  0.27019417261E-01  0.00000000000E+00 0.  1.
     999901    1    3    3    0    0  0.51202642534E-01 -0.58461392182E-01  0.91043763707E-01  0.88810382945E+00  0.88000000000E+00 0.  1.
        -11    1    4    4    0    0 -0.29328573838E-01  0.59696470746E-01 -0.82782321003E-01  0.10619325616E+00  0.51100000000E-03 0. -1.
         11    1    4    4    0    0 -0.43228265713E-02  0.19076118405E-01 -0.11336842956E-01  0.22613497124E-01  0.51100000000E-03 0.  1.
</event>
<event>
 8    1  0.1051655E+005  0.1043930E+01  0.7957747E-01            NaN
         13   -1    0    0    0    0  0.00000000000E+00  0.00000000000E+00  0.74505805969E-08  0.10566000000E+00  0.10566000000E+00 0.  1.
     999900   -1    0    0    0    0 -0.00000000000E+00 -0.00000000000E+00 -0.74505805969E-08  0.93827000000E+00  0.93827000000E+00 0.  1.
     999902    2    1    2    0    0  0.14737722439E-01 -0.99593900508E-02  0.14208540284E-01  0.10211644003E+01  0.10209106033E+01 0.  0.
     999903    2    3    3    0    0  0.11973691467E+00 -0.30852395282E-01 -0.44196529360E-01  0.13275430344E+00  0.19533889654E-01 0.  0.
         14    1    1    2    0    0 -0.14737722439E-01  0.99593900508E-02 -0.14208540284E-01  0.22765599704E-01  0.00000000000E+00 0. -1.
     999901    1    3    3    0    0 -0.10499919223E+00  0.20893005231E-01  0.58405069644E-01  0.88841009686E+00  0.88000000000E+00 0. -1.
        -11    1    4    4    0    0  0.79983677420E-01 -0.27579171878E-01 -0.23477377230E-01  0.87803460853E-01  0.51100000000E-03 0. -1.
         11    1    4    4    0    0  0.39753237250E-01 -0.32732234036E-02 -0.20719152130E-01  0.44950842587E-01  0.51100000000E-03 0.  1.
</event>
<event>
 8    1  0.1051655E+005  0.1043930E+01  0.7957747E-01            NaN
         13   -1    0    0    0    0  0.00000000000E+00  0.00000000000E+00  0.74505805969E-08  0.10566000000E+00  0.10566000000E+00 0. -1.
     999900   -1    0    0    0    0 -0.00000000000E+00 -0.00000000000E+00 -0.74505805969E-08  0.93827000000E+00  0.93827000000E+00 0.  1.
     999902    2    1    2    0    0  0.22984409133E-01 -0.47331154656E-02  0.52356121731E-02  0.10198863505E+01  0.10196028986E+01 0.  0.
     999903    2    3    3    0    0 -0.97590979151E-01 -0.66485982849E-02  0.76199155236E-01  0.12883196511E+00  0.34973717323E-01 0.  0.
         14    1    1    2    0    0 -0.22984409133E-01  0.47331154656E-02 -0.52356121731E-02  0.24043649474E-01  0.00000000000E+00 0. -1.
     999901    1    3    3    0    0  0.12057538828E+00  0.19154828193E-02 -0.70963543063E-01  0.89105438542E+00  0.88000000000E+00 0.  1.
        -11    1    4    4    0    0 -0.55440057344E-01  0.81638412114E-02  0.57812890417E-01  0.80516083368E-01  0.51100000000E-03 0.  1.
         11    1    4    4    0    0 -0.42150921807E-01 -0.14812439496E-01  0.18386264819E-01  0.48315881737E-01  0.51100000000E-03 0. -1.
</event>
<event>
 8    1  0.1051655E+005  0.1043930E+01  0.7957747E-01            NaN
         13   -1    0    0    0    0  0.00000000000E+00  0.00000000000E+00  0.74505805969E-08  0.10566000000E+00  0.10566000000E+00 0.  1.
     999900   -1    0    0    0    0 -0.00000000000E+00 -0.00000000000E+00 -0.74505805969E-08  0.93827000000E+00  0.93827000000E+00 0. -1.
     999902    2    1    2    0    0 -0.90189518843E-02 -0.76899183393E-02 -0.19443300550E-01  0.10211590037E+01  0.10209050850E+01 0.  0.
     999903    2    3    3    0    0 -0.56033697604E-01  0.80404348637E-01  0.82612438096E-01  0.12965109010E+00  0.19492452084E-01 0.  0.
         14    1    1    2    0    0  0.90189518843E-02  0.76899183393E-02  0.19443300550E-01  0.22770996321E-01  0.00000000000E+00 0.  1.
     999901    1    3    3    0    0  0.47014745720E-01 -0.88094266976E-01 -0.10205573865E+00  0.89150791358E+00  0.88000000000E+00 0.  1.
        -11    1    4    4    0    0 -0.11331175764E-01  0.31024285855E-01  0.32028953401E-01  0.46011051216E-01  0.51100000000E-03 0. -1.
         11    1    4    4    0    0 -0.44702521840E-01  0.49380062782E-01  0.50583484695E-01  0.83640038882E-01  0.51100000000E-03 0.  1.
</event>
<event>
 8    1  0.1051655E+005  0.1043930E+01  0.7957747E-01            NaN
         13   -1    0    0    0    0  0.00000000000E+00  0.00000000000E+00  0.74505805969E-08  0.10566000000E+00  0.10566000000E+00 0. -1.
     999900   -1    0    0    0    0 -0.00000000000E+00 -0.00000000000E+00 -0.74505805969E-08  0.93827000000E+00  0.93827000000E+00 0. -1.
     999902    2    1    2    0    0 -0.52148824534E-02 -0.23159630751E-01 -0.11463870377E-02  0.10201628441E+01  0.10198859499E+01 0.  0.
     999903    2    3    3    0    0 -0.26755105322E-01  0.10376165488E+00 -0.67700811636E-01  0.12830944508E+00  0.19939837384E-01 0.  0.
         14    1    1    2    0    0  0.52148824534E-02  0.23159630751E-01  0.11463870377E-02  0.23767155883E-01  0.00000000000E+00 0. -1.
     999901    1    3    3    0    0  0.21540222869E-01 -0.12692128563E+00  0.66554424598E-01  0.89185339904E+00  0.88000000000E+00 0.  1.
        -11    1    4    4    0    0 -0.10410771302E-01  0.64529824156E-01 -0.49868542784E-01  0.82216878104E-01  0.51100000000E-03 0. -1.
         11    1    4    4    0    0 -0.16344334020E-01  0.39231830726E-01 -0.17832268851E-01  0.46092566972E-01  0.51100000000E-03 0.  1.
</event>
<event>
 8    1  0.1051655E+005  0.1043930E+01  0.7957747E-01            NaN
         13   -1    0    0    0    0  0.00000000000E+00  0.00000000000E+00  0.74505805969E-08  0.10566000000E+00  0.10566000000E+00 0. -1.
     999900   -1    0    0    0    0 -0.00000000000E+00 -0.00000000000E+00 -0.74505805969E-08  0.93827000000E+00  0.93827000000E+00 0.  1.
     999902    2    1    2    0    0 -0.22187057895E-03 -0.18555494754E-01  0.12375970779E-01  0.10216248377E+01  0.10213813141E+01 0.  0.
     999903    2    3    3    0    0  0.21625695001E-01  0.12166690971E+00  0.33952413332E-01  0.12999420695E+00  0.21799538188E-01 0.  0.
         14    1    1    2    0    0  0.22187057895E-03  0.18555494754E-01 -0.12375970779E-01  0.22305162291E-01  0.00000000000E+00 0. -1.
     999901    1    3    3    0    0 -0.21847565580E-01 -0.14022240447E+00 -0.21576442553E-01  0.89163063076E+00  0.88000000000E+00 0. -1.
        -11    1    4    4    0    0  0.16997418901E-02  0.68735540066E-01  0.15322945329E-01  0.70445137272E-01  0.51100000000E-03 0. -1.
         11    1    4    4    0    0  0.19925953111E-01  0.52931369648E-01  0.18629468003E-01  0.59549069676E-01  0.51100000000E-03 0.  1.
</event>
<event>
 8    1  0.1051655E+005  0.1043930E+01  0.7957747E-01            NaN
         13   -1    0    0    0    0  0.00000000000E+00  0.00000000000E+00  0.74505805969E-08  0.10566000000E+00  0.10566000000E+00 0.  1.
     999900   -1    0    0    0    0 -0.00000000000E+00 -0.00000000000E+00 -0.74505805969E-08  0.93827000000E+00  0.93827000000E+00 0.  1.
     999902    2    1    2    0    0  0.27999215139E-02  0.44296600000E-02  0.22849033162E-01  0.10204877355E+01  0.10202184465E+01 0.  0.
     999903    2    3    3    0    0 -0.12786576135E+00 -0.12280024083E-01 -0.62347757932E-02  0.13020766600E+00  0.20364477328E-01 0.  0.
         14    1    1    2    0    0 -0.27999215139E-02 -0.44296600000E-02 -0.22849033162E-01  0.23442264495E-01  0.00000000000E+00 0. -1.
     999901    1    3    3    0    0  0.13066568287E+00  0.16709684083E-01  0.29083808955E-01  0.89028006951E+00  0.88000000000E+00 0. -1.
        -11    1    4    4    0    0 -0.91358165281E-01 -0.13157070152E-01 -0.12525583740E-01  0.93148130563E-01  0.51100000000E-03 0. -1.
         11    1    4    4    0    0 -0.36507596073E-01  0.87704606855E-03  0.62908079469E-02  0.37059535433E-01  0.51100000000E-03 0.  1.
</event>
<event>
 8    1  0.1051655E+005  0.1043930E+01  0.7957747E-01            NaN
         13   -1    0    0    0    0  0.00000000000E+00  0.00000000000E+00  0.74505805969E-08  0.10566000000E+00  0.10566000000E+00 0.  1.
     999900   -1    0    0    0    0 -0.00000000000E+00 -0.00000000000E+00 -0.74505805969E-08  0.93827000000E+00  0.93827000000E+00 0. -1.
     999902    2    1    2    0    0  0.38122039662E-02 -0.42346935979E-02 -0.23626344394E-01  0.10196263032E+01  0.10193366120E+01 0.  0.
     999903    2    3    3    0    0  0.12509940378E+00 -0.31265528591E-01 -0.93706332437E-02  0.13078184201E+00  0.19715154781E-01 0.  0.
         14    1    1    2    0    0 -0.38122039662E-02  0.42346935979E-02  0.23626344394E-01  0.24303696805E-01  0.00000000000E+00 0.  1.
     999901    1    3    3    0    0 -0.12128719981E+00  0.27030834993E-01 -0.14255711151E-01  0.88884446119E+00  0.88000000000E+00 0.  1.
        -11    1    4    4    0    0  0.12140218497E-01  0.18529927227E-02 -0.40684066790E-02  0.12947259984E-01  0.51100000000E-03 0.  1.
         11    1    4    4    0    0  0.11295918528E+00 -0.33118521314E-01 -0.53022265647E-02  0.11783458203E+00  0.51100000000E-03 0. -1.
</event>
<event>
 8    1  0.1051655E+005  0.1043930E+01  0.7957747E-01            NaN
         13   -1    0    0    0    0  0.00000000000E+00  0.00000000000E+00  0.74505805969E-08  0.10566000000E+00  0.10566000000E+00 0. -1.
     999900   -1    0    0    0    0 -0.00000000000E+00 -0.00000000000E+00 -0.74505805969E-08  0.93827000000E+00  0.93827000000E+00 0. -1.
     999902    2    1    2    0    0 -0.18681001529E-01  0.48947764561E-02 -0.13068080260E-01  0.10206123377E+01  0.10203459366E+01 0.  0.
     999903    2    3    3    0    0 -0.74637798266E-02  0.90935949494E-01 -0.94093632533E-01  0.13264046332E+00  0.20367275396E-01 0.  0.
         14    1    1    2    0    0  0.18681001529E-01 -0.48947764561E-02  0.13068080260E-01  0.23317662326E-01  0.00000000000E+00 0. -1.
     999901    1    3    3    0    0 -0.11217221702E-01 -0.86041173038E-01  0.81025552274E-01  0.88797187435E+00  0.88000000000E+00 0.  1.
        -11    1    4    4    0    0  0.60217834653E-02  0.42950973173E-01 -0.38804841438E-01  0.58199010409E-01  0.51100000000E-03 0. -1.
         11    1    4    4    0    0 -0.13485563292E-01  0.47984976322E-01 -0.55288791095E-01  0.74441452912E-01  0.51100000000E-03 0.  1.
</event>
<event>
 8    1  0.1051655E+005  0.1043930E+01  0.7957747E-01            NaN
         13   -1    0    0    0    0  0.00000000000E+00  0.00000000000E+00  0.74505805969E-08  0.10566000000E+00  0.10566000000E+00 0. -1.
     999900   -1    0    0    0    0 -0.00000000000E+00 -0.00000000000E+00 -0.74505805969E-08  0.93827000000E+00  0.93827000000E+00 0. -1.
     999902    2    1    2    0    0 -0.93812446343E-02 -0.19150456797E-02 -0.21367799527E-01  0.10205150901E+01  0.10202464364E+01 0.  0.
     999903    2    3    3    0    0 -0.11343292164E+00  0.38440229229E-01 -0.54014968056E-01  0.13286587032E+00  0.19774827075E-01 0.  0.
         14    1    1    2    0    0  0.93812446343E-02  0.19150456797E-02  0.21367799527E-01  0.23414909940E-01  0.00000000000E+00 0. -1.
     999901    1    3    3    0    0  0.10405167700E+00 -0.40355274909E-01  0.32647168529E-01  0.88764921974E+00  0.88000000000E+00 0.  1.
        -11    1    4    4    0    0 -0.82692346113E-01  0.31282328625E-01 -0.30585158509E-01  0.93553841353E-01  0.51100000000E-03 0.  1.
         11    1    4    4    0    0 -0.30740575527E-01  0.71579006038E-02 -0.23429809548E-01  0.39312028963E-01  0.51100000000E-03 0. -1.
</event>
<event>
 8    1  0.1051655E+005  0.1043930E+01  0.7957747E-01            NaN
         13   -1    0    0    0    0  0.00000000000E+00  0.00000000000E+00  0.74505805969E-08  0.10566000000E+00  0.10566000000E+00 0. -1.
     999900   -1    0    0    0    0 -0.00000000000E+00 -0.00000000000E+00 -0.74505805969E-08  0.93827000000E+00  0.93827000000E+00 0. -1.
     999902    2    1    2    0    0  0.21743291834E-01 -0.47090984632E-02  0.31251353097E-02  0.10214641856E+01  0.10212171021E+01 0.  0.
     999903    2    3    3    0    0 -0.10076464772E+00 -0.59000912960E-01  0.53300250639E-01  0.12990749158E+00  0.20010439495E-01 0.  0.
         14    1    1    2    0    0 -0.21743291834E-01  0.47090984632E-02 -0.31251353097E-02  0.22465814448E-01  0.00000000000E+00 0. -1.
     999901    1    3    3    0    0  0.12250793956E+00  0.54291814496E-01 -0.50175115329E-01  0.89155669398E+00  0.88000000000E+00 0. -1.
        -11    1    4    4    0    0 -0.59302202003E-01 -0.26339140185E-01  0.21882982188E-01  0.68480854978E-01  0.51100000000E-03 0.  1.
         11    1    4    4    0    0 -0.41462445718E-01 -0.32661772775E-01  0.31417268451E-01  0.61426636597E-01  0.51100000000E-03 0. -1.
</event>
<event>
 8    1  0.1051655E+005  0.1043930E+01  0.7957747E-01            NaN
         13   -1    0    0    0    0  0.00000000000E+00  0.00000000000E+00  0.74505805969E-08  0.10566000000E+00  0.10566000000E+00 0.  1.
     999900   -1    0    0    0    0 -0.00000000000E+00 -0.00000000000E+00 -0.74505805969E-08  0.93827000000E+00  0.93827000000E+00 0. -1.
     999902    2    1    2    0    0  0.22176539388E-01  0.19902204898E-01 -0.58822789986E-02  0.10135573500E+01  0.10131021686E+01 0.  0.
     999903    2    3    3    0    0  0.52807537594E-01 -0.10629082184E+00  0.26273046771E-01  0.12344673724E+00  0.21504630075E-01 0.  0.
         14    1    1    2    0    0 -0.22176539388E-01 -0.19902204898E-01  0.58822789986E-02  0.30372649955E-01  0.00000000000E+00 0. -1.
     999901    1    3    3    0    0 -0.30630998206E-01  0.12619302674E+00 -0.32155325770E-01  0.89011061280E+00  0.88000000000E+00 0. -1.
        -11    1    4    4    0    0  0.27992461583E-01 -0.75417291374E-01  0.23146974362E-01  0.83710150441E-01  0.51100000000E-03 0.  1.
         11    1    4    4    0    0  0.24815076011E-01 -0.30873530467E-01  0.31260724096E-02  0.39736586802E-01  0.51100000000E-03 0. -1.
</event>
<event>
 8    1  0.1051655E+005  0.1043930E+01  0.7957747E-01            NaN
         13   -1    0    0    0    0  0.00000000000E+00  0.00000000000E+00  0.74505805969E-08  0.10566000000E+00  0.10566000000E+00 0. -1.
     999900   -1    0    0    0    0 -0.00000000000E+00 -0.00000000000E+00 -0.74505805969E-08  0.93827000000E+00  0.93827000000E+00 0. -1.
     999902    2    1    2    0    0 -0.22964051766E-01 -0.36982595590E-02 -0.18992396674E-01  0.10139010818E+01  0.10134562979E+01 0.  0.
     999903    2    3    3    0    0  0.87839699882E-01  0.60530914781E-01  0.54396174985E-01  0.12160699313E+00  0.21201707602E-01 0.  0.
         14    1    1    2    0    0  0.22964051766E-01  0.36982595590E-02  0.18992396674E-01  0.30028918207E-01  0.00000000000E+00 0. -1.
     999901    1    3    3    0    0 -0.11080375165E+00 -0.64229174340E-01 -0.73388571659E-01  0.89229408866E+00  0.88000000000E+00 0.  1.
        -11    1    4    4    0    0  0.78373413216E-01  0.57719147167E-01  0.42695537773E-01  0.10628763764E+00  0.51100000000E-03 0.  1.
         11    1    4    4    0    0  0.94662866661E-02  0.28117676140E-02  0.11700637213E-01  0.15319355487E-01  0.51100000000E-03 0. -1.
</event>
<event>
 8    1  0.1051655E+005  0.1043930E+01  0.7957747E-01            NaN
         13   -1    0    0    0    0  0.00000000000E+00  0.00000000000E+00  0.74505805969E-08  0.10566000000E+00  0.10566000000E+00 0.  1.
     999900   -1    0    0    0    0 -0.00000000000E+00 -0.00000000000E+00 -0.74505805969E-08  0.93827000000E+00  0.93827000000E+00 0.  1.
     999902    2    1    2    0    0 -0.11686359725E-01  0.17324948032E-01 -0.10443343671E-01  0.10205678885E+01  0.10203004590E+01 0.  0.
     999903    2    3    3    0    0 -0.94904069731E-01 -0.87327634151E-01  0.28260447132E-02  0.13036935619E+00  0.18848988464E-01 0.  0.
         14    1    1    2    0    0  0.11686359725E-01 -0.17324948032E-01  0.10443343671E-01  0.23362111527E-01  0.00000000000E+00 0.  1.
     999901    1    3    3    0    0  0.83217710005E-01  0.10465258218E+00 -0.13269388385E-01  0.89019853229E+00  0.88000000000E+00 0.  1.
        -11    1    4    4    0    0 -0.44736467860E-01 -0.52417880885E-01  0.59332674746E-02  0.69169722979E-01  0.51100000000E-03 0.  1.
         11    1    4    4    0    0 -0.50167601870E-01 -0.34909753266E-01 -0.31072227614E-02  0.61199633208E-01  0.51100000000E-03 0. -1.
</event>
<event>
 8    1  0.1051655E+005  0.1043930E+01  0.7957747E-01            NaN
         13   -1    0    0    0    0  0.00000000000E+00  0.00000000000E+00  0.74505805969E-08  0.10566000000E+00  0.10566000000E+00 0.  1.
     999900   -1    0    0    0    0 -0.00000000000E+00 -0.00000000000E+00 -0.74505805969E-08  0.93827000000E+00  0.93827000000E+00 0.  1.
     999902    2    1    2    0    0  0.21385759034E-01  0.10185513442E-01  0.47819758012E-03  0.10202377218E+01  0.10199625900E+01 0.  0.
     999903    2    3    3    0    0  0.12529482949E+00  0.24567651105E-01 -0.32845903169E-01  0.13338123031E+00  0.20232040541E-01 0.  0.
         14    1    1    2    0    0 -0.21385759034E-01 -0.10185513442E-01 -0.47819758012E-03  0.23692278204E-01  0.00000000000E+00 0. -1.
     999901    1    3    3    0    0 -0.10390907046E+00 -0.14382137663E-01  0.33324100749E-01  0.88685649149E+00  0.88000000000E+00 0. -1.
        -11    1    4    4    0    0  0.40774183853E-01  0.19736087039E-03 -0.48338282240E-02  0.41063366113E-01  0.51100000000E-03 0. -1.
         11    1    4    4    0    0  0.84520645640E-01  0.24370290235E-01 -0.28012074945E-01  0.92317864194E-01  0.51100000000E-03 0.  1.
</event>
<event>
 8    1  0.1051655E+005  0.1043930E+01  0.7957747E-01            NaN
         13   -1    0    0    0    0  0.00000000000E+00  0.00000000000E+00  0.74505805969E-08  0.10566000000E+00  0.10566000000E+00 0.  1.
     999900   -1    0    0    0    0 -0.00000000000E+00 -0.00000000000E+00 -0.74505805969E-08  0.93827000000E+00  0.93827000000E+00 0. -1.
     999902    2    1    2    0    0 -0.16840626996E-01  0.17964863371E-02  0.16279650555E-01  0.10204382759E+01  0.10201678361E+01 0.  0.
     999903    2    3    3    0    0 -0.19366704553E-01 -0.89246528957E-01 -0.89443961069E-01  0.12944293707E+00  0.20377428894E-01 0.  0.
         14    1    1    2    0    0  0.16840626996E-01 -0.17964863371E-02 -0.16279650555E-01  0.23491724138E-01  0.00000000000E+00 0. -1.
     999901    1    3    3    0    0  0.25260775573E-02  0.91043015294E-01  0.10572361162E+00  0.89099533880E+00  0.88000000000E+00 0. -1.
        -11    1    4    4    0    0 -0.16115948384E-01 -0.59726899764E-01 -0.72270386050E-01  0.95133044567E-01  0.51100000000E-03 0. -1.
         11    1    4    4    0    0 -0.32507561694E-02 -0.29519629192E-01 -0.17173575020E-01  0.34309892499E-01  0.51100000000E-03 0.  1.
</event>
<event>
 8    1  0.1051655E+005  0.1043930E+01  0.7957747E-01            NaN
         13   -1    0    0    0    0  0.00000000000E+00  0.00000000000E+00  0.74505805969E-08  0.10566000000E+00  0.10566000000E+00 0. -1.
     999900   -1    0    0    0    0 -0.00000000000E+00 -0.00000000000E+00 -0.74505805969E-08  0.93827000000E+00  0.93827000000E+00 0.  1.
     999902    2    1    2    0    0 -0.20196504737E-01  0.50143115183E-02  0.12078784327E-01  0.10198688455E+01  0.10195849758E+01 0.  0.
     999903    2    3    3    0    0 -0.10560828250E-02  0.98383962861E-01 -0.82135076175E-01  0.12972250978E+00  0.20030959676E-01 0.  0.
         14    1    1    2    0    0  0.20196504737E-01 -0.50143115183E-02 -0.12078784327E-01  0.24061154470E-01  0.00000000000E+00 0.  1.
     999901    1    3    3    0    0 -0.19140421912E-01 -0.93369651343E-01  0.94213860502E-01  0.89014633575E+00  0.88000000000E+00 0.  1.
        -11    1    4    4    0    0  0.82243865706E-04  0.73378283991E-01 -0.49183263626E-01  0.88338178991E-01  0.51100000000E-03 0.  1.
         11    1    4    4    0    0 -0.11383266907E-02  0.25005678870E-01 -0.32951812548E-01  0.41384330787E-01  0.51100000000E-03 0. -1.
</event>
<event>
 8    1  0.1051655E+005  0.1043930E+01  0.7957747E-01            NaN
         13   -1    0    0    0    0  0.00000000000E+00  0.00000000000E+00  0.74505805969E-08  0.10566000000E+00  0.10566000000E+00 0. -1.
     999900   -1    0    0    0    0 -0.00000000000E+00 -0.00000000000E+00 -0.74505805969E-08  0.93827000000E+00  0.93827000000E+00 0.  1.
     999902    2    1    2    0    0 -0.31354828094E-02 -0.25742738802E-01  0.32059628475E-02  0.10177995953E+01  0.10174641114E+01 0.  0.
     999903    2    3    3    0    0  0.25190263763E-01 -0.10735507566E+00 -0.67177905154E-01  0.13077264511E+00  0.20711159018E-01 0.  0.
         14    1    1    2    0    0  0.31354828094E-02  0.25742738802E-01 -0.32059628475E-02  0.26130404729E-01  0.00000000000E+00 0.  1.
     999901    1    3    3    0    0 -0.28325746573E-01  0.81612336860E-01  0.70383868002E-01  0.88702695017E+00  0.88000000000E+00 0. -1.
        -11    1    4    4    0    0  0.10477343234E-01 -0.80370717547E-01 -0.53573668061E-01  0.97157737679E-01  0.51100000000E-03 0.  1.
         11    1    4    4    0    0  0.14712920529E-01 -0.26984358115E-01 -0.13604237093E-01  0.33614907426E-01  0.51100000000E-03 0. -1.
</event>
<event>
 8    1  0.1051655E+005  0.1043930E+01  0.7957747E-01            NaN
         13   -1    0    0    0    0  0.00000000000E+00  0.00000000000E+00  0.74505805969E-08  0.10566000000E+00  0.10566000000E+00 0.  1.
     999900   -1    0    0    0    0 -0.00000000000E+00 -0.00000000000E+00 -0.74505805969E-08  0.93827000000E+00  0.93827000000E+00 0.  1.
     999902    2    1    2    0    0 -0.10986358607E-01 -0.11612816653E-01 -0.13931624382E-01  0.10227251009E+01  0.10225052491E+01 0.  0.
     999903    2    3    3    0    0 -0.72660256949E-01 -0.10199117307E+00 -0.47193366026E-01  0.13532538238E+00  0.20100572057E-01 0.  0.
         14    1    1    2    0    0  0.10986358607E-01  0.11612816653E-01  0.13931624382E-01  0.21204899056E-01  0.00000000000E+00 0.  1.
     999901    1    3    3    0    0  0.61673898342E-01  0.90378356412E-01  0.33261741644E-01  0.88739971856E+00  0.88000000000E+00 0. -1.
        -11    1    4    4    0    0 -0.54144355828E-01 -0.72923007190E-01 -0.24556963805E-01  0.94088691340E-01  0.51100000000E-03 0.  1.
         11    1    4    4    0    0 -0.18515901121E-01 -0.29068165875E-01 -0.22636402221E-01  0.41236691043E-01  0.51100000000E-03 0. -1.
</event>
<event>
 8    1  0.1051655E+005  0.1043930E+01  0.7957747E-01            NaN
         13   -1    0    0    0    0  0.00000000000E+00  0.00000000000E+00  0.74505805969E-08  0.10566000000E+00  0.10566000000E+00 0.  1.
     999900   -1    0    0    0    0 -0.00000000000E+00 -0.00000000000E+00 -0.74505805969E-08  0.93827000000E+00  0.93827000000E+00 0.  1.
     999902    2    1    2    0    0  0.73617001580E-02 -0.18769813688E-01 -0.13130553363E-01  0.10198694105E+01  0.10195855543E+01 0.  0.
     999903    2    3    3    0    0 -0.13630756987E-01 -0.91906442921E-01 -0.93200592872E-01  0.13296419515E+00  0.18987756449E-01 0.  0.
         14    1    1    2    0    0 -0.73617001580E-02  0.18769813688E-01  0.13130553363E-01  0.24060589493E-01  0.00000000000E+00 0.  1.
     999901    1    3    3    0    0  0.20992457145E-01  0.73136629232E-01  0.80070039509E-01  0.88690521535E+00  0.88000000000E+00 0.  1.
        -11    1    4    4    0    0 -0.39713954945E-02 -0.91661986894E-02 -0.18695657399E-01  0.21203299441E-01  0.51100000000E-03 0. -1.
         11    1    4    4    0    0 -0.96593614927E-02 -0.82740244232E-01 -0.74504935473E-01  0.11176089571E+00  0.51100000000E-03 0.  1.
</event>
<event>
 8    1  0.1051655E+005  0.1043930E+01  0.7957747E-01            NaN
         13   -1    0    0    0    0  0.00000000000E+00  0.00000000000E+00  0.74505805969E-08  0.10566000000E+00  0.10566000000E+00 0. -1.
     999900   -1    0    0    0    0 -0.00000000000E+00 -0.00000000000E+00 -0.74505805969E-08  0.93827000000E+00  0.93827000000E+00 0.  1.
     999902    2    1    2    0    0  0.21816276444E-01 -0.87610014634E-02 -0.54713052963E-02  0.10197920580E+01  0.10195063517E+01 0.  0.
     999903    2    3    3    0    0  0.64163095052E-01  0.59162929544E-01  0.94899852603E-01  0.13047699411E+00  0.20027705014E-01 0.  0.
         14    1    1    2    0    0 -0.21816276444E-01  0.87610014634E-02  0.54713052963E-02  0.24137942045E-01  0.00000000000E+00 0.  1.
     999901    1    3    3    0    0 -0.42346818607E-01 -0.67923931008E-01 -0.10037115790E+00  0.88931506385E+00  0.88000000000E+00 0.  1.
        -11    1    4    4    0    0  0.17323209528E-01  0.28436661071E-01  0.30997607778E-01  0.45495605175E-01  0.51100000000E-03 0. -1.
         11    1    4    4    0    0  0.46839885523E-01  0.30726268473E-01  0.63902244825E-01  0.84981388932E-01  0.51100000000E-03 0.  1.
</event>
<event>
 8    1  0.1051655E+005  0.1043930E+01  0.7957747E-01            NaN
         13   -1    0    0    0    0  0.00000000000E+00  0.00000000000E+00  0.74505805969E-08  0.10566000000E+00  0.10566000000E+00 0.  1.
     999900   -1    0    0    0    0 -0.00000000000E+00 -0.00000000000E+00 -0.74505805969E-08  0.93827000000E+00  0.93827000000E+00 0.  1.
     999902    2    1    2    0    0 -0.20275909177E-01  0.30844005422E-02 -0.50923381145E-02  0.10227980827E+01  0.10225797573E+01 0.  0.
     999903    2    3    3    0    0  0.11056136629E+00 -0.59155514015E-01 -0.30608484339E-01  0.13058551091E+00  0.19811758937E-01 0.  0.
         14    1    1    2    0    0  0.20275909177E-01 -0.30844005422E-02  0.50923381145E-02  0.21131917261E-01  0.00000000000E+00 0. -1.
     999901    1    3    3    0    0 -0.13083727546E+00  0.62239914557E-01  0.25516146224E-01  0.89221257183E+00  0.88000000000E+00 0.  1.
        -11    1    4    4    0    0  0.74627707387E-01 -0.44287215170E-01 -0.29568822967E-01  0.91680033541E-01  0.51100000000E-03 0. -1.
         11    1    4    4    0    0  0.35933658899E-01 -0.14868298845E-01 -0.10396613715E-02  0.38905477367E-01  0.51100000000E-03 0.  1.
</event>
<event>
 8    1  0.1051655E+005  0.1043930E+01  0.7957747E-01            NaN
         13   -1    0    0    0    0  0.00000000000E+00  0.00000000000E+00  0.74505805969E-08  0.10566000000E+00  0.10566000000E+00 0. -1.
     999900   -1    0    0    0    0 -0.00000000000E+00 -0.00000000000E+00 -0.74505805969E-08  0.93827000000E+00  0.93827000000E+00 0. -1.
     999902    2    1    2    0    0  0.20408280052E-01 -0.98984197177E-02 -0.72917733031E-02  0.10201046655E+01  0.10198263979E+01 0.  0.
     999903    2    3    3    0    0 -0.29884201574E-02  0.74809036292E-01 -0.10444214866E+00  0.13040755178E+00  0.22195598166E-01 0.  0.
         14    1    1    2    0    0 -0.20408280052E-01  0.98984197177E-02  0.72917733031E-02  0.23825334531E-01  0.00000000000E+00 0. -1.
     999901    1    3    3    0    0  0.23396700209E-01 -0.84707456010E-01  0.97150375354E-01  0.88969711369E+00  0.88000000000E+00 0.  1.
        -11    1    4    4    0    0  0.53825539889E-02  0.64431724818E-01 -0.84155629897E-01  0.10612657638E+00  0.51100000000E-03 0.  1.
         11    1    4    4    0    0 -0.83709741463E-02  0.10377311474E-01 -0.20286518760E-01  0.24280975392E-01  0.51100000000E-03 0. -1.
</event>
<event>
 8    1  0.1051655E+005  0.1043930E+01  0.7957747E-01            NaN
         13   -1    0    0    0    0  0.00000000000E+00  0.00000000000E+00  0.74505805969E-08  0.10566000000E+00  0.10566000000E+00 0. -1.
     999900   -1    0    0    0    0 -0.00000000000E+00 -0.00000000000E+00 -0.74505805969E-08  0.93827000000E+00  0.93827000000E+00 0.  1.
     999902    2    1    2    0    0 -0.25587922252E-01  0.21235492384E-02 -0.57261716143E-02  0.10176233418E+01  0.10172832572E+01 0.  0.
     999903    2    3    3    0    0 -0.12568393880E+00 -0.29013429342E-01  0.13345632861E-01  0.13119654969E+00  0.19904702478E-01 0.  0.
         14    1    1    2    0    0  0.25587922252E-01 -0.21235492384E-02  0.57261716143E-02  0.26306658243E-01  0.00000000000E+00 0.  1.
     999901    1    3    3    0    0  0.10009601655E+00  0.31136978581E-01 -0.19071804475E-01  0.88642679206E+00  0.88000000000E+00 0. -1.
        -11    1    4    4    0    0 -0.19609394704E-01  0.58719766775E-03 -0.30297634671E-02  0.19857334902E-01  0.51100000000E-03 0.  1.
         11    1    4    4    0    0 -0.10607454409E+00 -0.29600627010E-01  0.16375396328E-01  0.11133921479E+00  0.51100000000E-03 0. -1.
</event>
<event>
 8    1  0.1051655E+005  0.1043930E+01  0.7957747E-01            NaN
         13   -1    0    0    0    0  0.00000000000E+00  0.00000000000E+00  0.74505805969E-08  0.10566000000E+00  0.10566000000E+00 0.  1.
     999900   -1    0    0    0    0 -0.00000000000E+00 -0.00000000000E+00 -0.74505805969E-08  0.93827000000E+00  0.93827000000E+00 0.  1.
     999902    2    1    2    0    0  0.15320732756E-01  0.12527871148E-01  0.11981945627E-01  0.10207947579E+01  0.10205325562E+01 0.  0.
     999903    2    3    3    0    0  0.12420574761E+00 -0.76073048045E-02  0.43392061948E-01  0.13329942425E+00  0.20023152615E-01 0.  0.
         14    1    1    2    0    0 -0.15320732756E-01 -0.12527871148E-01 -0.11981945627E-01  0.23135242136E-01  0.00000000000E+00 0. -1.
     999901    1    3    3    0    0 -0.10888501486E+00  0.20135175953E-01 -0.31410116321E-01  0.88749533361E+00  0.88000000000E+00 0.  1.
        -11    1    4    4    0    0  0.31662870078E-01 -0.10703136710E-01  0.12456143907E-01  0.35672273814E-01  0.51100000000E-03 0. -1.
         11    1    4    4    0    0  0.92542877532E-01  0.30958319055E-02  0.30935918041E-01  0.97627150441E-01  0.51100000000E-03 0.  1.
</event>
<event>
 8    1  0.1051655E+005  0.1043930E+01  0.7957747E-01            NaN
         13   -1    0    0    0    0  0.00000000000E+00  0.00000000000E+00  0.74505805969E-08  0.10566000000E+00  0.10566000000E+00 0.  1.
     999900   -1    0    0    0    0 -0.00000000000E+00 -0.00000000000E+00 -0.74505805969E-08  0.93827000000E+00  0.93827000000E+00 0. -1.
     999902    2    1    2    0    0  0.21647388115E-01 -0.63037700252E-03 -0.12653869517E-01  0.10188475918E+01  0.10185388005E+01 0.  0.
     999903    2    3    3    0    0  0.43052673954E-01 -0.66244070132E-01  0.99999956753E-01  0.12898567692E+00  0.19887280775E-01 0.  0.
         14    1    1    2    0    0 -0.21647388115E-01  0.63037700252E-03  0.12653869517E-01  0.25082408200E-01  0.00000000000E+00 0.  1.
     999901    1    3    3    0    0 -0.21405285838E-01  0.65613693129E-01 -0.11265382627E+00  0.88986191488E+00  0.88000000000E+00 0. -1.
        -11    1    4    4    0    0  0.85531118996E-02 -0.30862523622E-01  0.37938655817E-01  0.49651322376E-01  0.51100000000E-03 0.  1.
         11    1    4    4    0    0  0.34499562054E-01 -0.35381546509E-01  0.62061300936E-01  0.79334354539E-01  0.51100000000E-03 0. -1.
</event>
<event>
 8    1  0.1051655E+005  0.1043930E+01  0.7957747E-01            NaN
         13   -1    0    0    0    0  0.00000000000E+00  0.00000000000E+00  0.74505805969E-08  0.10566000000E+00  0.10566000000E+00 0.  1.
     999900   -1    0    0    0    0 -0.00000000000E+00 -0.00000000000E+00 -0.74505805969E-08  0.93827000000E+00  0.93827000000E+00 0.  1.
     999902    2    1    2    0    0 -0.29422797792E-01  0.40277132695E-02  0.67520260530E-02  0.10134748960E+01  0.10130172020E+01 0.  0.
     999903    2    3    3    0    0 -0.11664680521E+00  0.21653426280E-01 -0.42603733225E-01  0.12761108919E+00  0.19853563053E-01 0.  0.
         14    1    1    2    0    0  0.29422797792E-01 -0.40277132695E-02 -0.67520260530E-02  0.30455104004E-01  0.00000000000E+00 0. -1.
     999901    1    3    3    0    0  0.87224007415E-01 -0.17625713010E-01  0.49355759278E-01  0.88586380680E+00  0.88000000000E+00 0. -1.
        -11    1    4    4    0    0 -0.25067583520E-01 -0.32017210015E-02 -0.11302591187E-01  0.27688345011E-01  0.51100000000E-03 0.  1.
         11    1    4    4    0    0 -0.91579221687E-01  0.24855147281E-01 -0.31301142038E-01  0.99922744182E-01  0.51100000000E-03 0. -1.
</event>
<event>
 8    1  0.1051655E+005  0.1043930E+01  0.7957747E-01            NaN
         13   -1    0    0    0    0  0.00000000000E+00  0.00000000000E+00  0.74505805969E-08  0.10566000000E+00  0.10566000000E+00 0.  1.
     999900   -1    0    0    0    0 -0.00000000000E+00 -0.00000000000E+00 -0.74505805969E-08  0.93827000000E+00  0.93827000000E+00 0.  1.
     999902    2    1    2    0    0 -0.20897718073E-01  0.78860387573E-02  0.11374219962E-01  0.10188645435E+01  0.10185561747E+01 0.  0.
     999903    2    3    3    0    0 -0.81884346399E-01  0.62849830948E-02  0.10127441983E+00  0.13218310235E+00  0.21709841911E-01 0.  0.
         14    1    1    2    0    0  0.20897718073E-01 -0.78860387573E-02 -0.11374219962E-01  0.25065456462E-01  0.00000000000E+00 0. -1.
     999901    1    3    3    0    0  0.60986628327E-01  0.16010556625E-02 -0.89900199872E-01  0.88668144119E+00  0.88000000000E+00 0.  1.
        -11    1    4    4    0    0 -0.66540050211E-01 -0.34109268417E-02  0.82793451408E-01  0.10627431214E+00  0.51100000000E-03 0.  1.
         11    1    4    4    0    0 -0.15344296188E-01  0.96959099365E-02  0.18480968426E-01  0.25908790206E-01  0.51100000000E-03 0. -1.
</event>
<event>
 8    1  0.1051655E+005  0.1043930E+01  0.7957747E-01            NaN
         13   -1    0    0    0    0  0.00000000000E+00  0.00000000000E+00  0.74505805969E-08  0.10566000000E+00  0.10566000000E+00 0.  1.
     999900   -1    0    0    0    0 -0.00000000000E+00 -0.00000000000E+00 -0.74505805969E-08  0.93827000000E+00  0.93827000000E+00 0. -1.
     999902    2    1    2    0    0 -0.13122625612E-01  0.44608423593E-03  0.19748737301E-01  0.10202147113E+01  0.10199390385E+01 0.  0.
     999903    2    3    3    0    0  0.61125244428E-01 -0.59485595935E-01 -0.93118556994E-01  0.12788989451E+00  0.20246674591E-01 0.  0.
         14    1    1    2    0    0  0.13122625612E-01 -0.44608423593E-03 -0.19748737301E-01  0.23715288721E-01  0.00000000000E+00 0. -1.
     999901    1    3    3    0    0 -0.74247870040E-01  0.59931680171E-01  0.11286729430E+00  0.89232481677E+00  0.88000000000E+00 0.  1.
        -11    1    4    4    0    0  0.42487646216E-01 -0.40430442679E-01 -0.49399658978E-01  0.76683819704E-01  0.51100000000E-03 0.  1.
         11    1    4    4    0    0  0.18637598211E-01 -0.19055153256E-01 -0.43718898016E-01  0.51206074810E-01  0.51100000000E-03 0. -1.
</event>
<event>
 8    1  0.1051655E+005  0.1043930E+01  0.7957747E-01            NaN
         13   -1    0    0    0    0  0.00000000000E+00  0.00000000000E+00  0.74505805969E-08  0.10566000000E+00  0.10566000000E+00 0. -1.
     999900   -1    0    0    0    0 -0.00000000000E+00 -0.00000000000E+00 -0.74505805969E-08  0.93827000000E+00  0.93827000000E+00 0.  1.
     999902    2    1    2    0    0 -0.86347870194E-02 -0.19902677197E-01  0.93850672396E-02  0.10202919884E+01  0.10200181302E+01 0.  0.
     999903    2    3    3    0    0  0.12157804363E+00  0.92786045434E-02  0.39616722430E-01  0.12971864415E+00  0.19751677094E-01 0.  0.
         14    1    1    2    0    0  0.86347870194E-02  0.19902677197E-01 -0.93850672396E-02  0.23638011624E-01  0.00000000000E+00 0.  1.
     999901    1    3    3    0    0 -0.13021283065E+00 -0.29181281740E-01 -0.30231655191E-01  0.89057334423E+00  0.88000000000E+00 0.  1.
        -11    1    4    4    0    0  0.10137815969E+00  0.13945156179E-01  0.36992783846E-01  0.10881509924E+00  0.51100000000E-03 0. -1.
         11    1    4    4    0    0  0.20199883938E-01 -0.46665516355E-02  0.26239385841E-02  0.20903544914E-01  0.51100000000E-03 0.  1.
</event>
<event>
 8    1  0.1051655E+005  0.1043930E+01  0.7957747E-01            NaN
         13   -1    0    0    0    0  0.00000000000E+00  0.00000000000E+00  0.74505805969E-08  0.10566000000E+00  0.10566000000E+00 0.  1.
     999900   -1    0    0    0    0 -0.00000000000E+00 -0.00000000000E+00 -0.74505805969E-08  0.93827000000E+00  0.93827000000E+00 0. -1.
     999902    2    1    2    0    0  0.20294607413E-01  0.72380550142E-02  0.41823319180E-02  0.10219811406E+01  0.10217454180E+01 0.  0.
     999903    2    3    3    0    0  0.18764272088E-01 -0.84600539281E-01 -0.96953628822E-01  0.13143908547E+00  0.19154056849E-01 0.  0.
         14    1    1    2    0    0 -0.20294607413E-01 -0.72380550142E-02 -0.41823319180E-02  0.21948859440E-01  0.00000000000E+00 0.  1.
     999901    1    3    3    0    0  0.15303353250E-02  0.91838594295E-01  0.10113596074E+00  0.89054205509E+00  0.88000000000E+00 0.  1.
        -11    1    4    4    0    0 -0.14358086937E-03 -0.11784725983E-01 -0.23499865928E-01  0.26294585025E-01  0.51100000000E-03 0.  1.
         11    1    4    4    0    0  0.18907852958E-01 -0.72815813298E-01 -0.73453762894E-01  0.10514450045E+00  0.51100000000E-03 0. -1.
</event>
<event>
 8    1  0.1051655E+005  0.1043930E+01  0.7957747E-01            NaN
         13   -1    0    0    0    0  0.00000000000E+00  0.00000000000E+00  0.74505805969E-08  0.10566000000E+00  0.10566000000E+00 0. -1.
     999900   -1    0    0    0    0 -0.00000000000E+00 -0.00000000000E+00 -0.74505805969E-08  0.93827000000E+00  0.93827000000E+00 0.  1.
     999902    2    1    2    0    0  0.20980249488E-01 -0.60779503548E-02  0.78875641964E-02  0.10207066062E+01  0.10204423796E+01 0.  0.
     999903    2    3    3    0    0  0.58278022335E-01  0.10754357879E+00 -0.43253836053E-01  0.13114692945E+00  0.19148721735E-01 0.  0.
         14    1    1    2    0    0 -0.20980249488E-01  0.60779503548E-02 -0.78875641964E-02  0.23223393767E-01  0.00000000000E+00 0.  1.
     999901    1    3    3    0    0 -0.37297772847E-01 -0.11362152914E+00  0.51141400250E-01  0.88955967679E+00  0.88000000000E+00 0. -1.
        -11    1    4    4    0    0  0.27406369999E-01  0.69735540361E-01 -0.28275997677E-01  0.80087126753E-01  0.51100000000E-03 0. -1.
         11    1    4    4    0    0  0.30871652336E-01  0.37808038428E-01 -0.14977838376E-01  0.51059802694E-01  0.51100000000E-03 0.  1.
</event>
<event>
 8    1  0.1051655E+005  0.1043930E+01  0.7957747E-01            NaN
         13   -1    0    0    0    0  0.00000000000E+00  0.00000000000E+00  0.74505805969E-08  0.10566000000E+00  0.10566000000E+00 0.  1.
     999900   -1    0    0    0    0 -0.00000000000E+00 -0.00000000000E+00 -0.74505805969E-08  0.93827000000E+00  0.93827000000E+00 0. -1.
     999902    2    1    2    0    0  0.11252812130E-01 -0.15250262439E-02  0.20500185953E-01  0.10204947891E+01  0.10202256640E+01 0.  0.
     999903    2    3    3    0    0 -0.29481979956E-01 -0.75386909738E-01 -0.97936651152E-01  0.12856307338E+00  0.19608745401E-01 0.  0.
         14    1    1    2    0    0 -0.11252812130E-01  0.15250262439E-02 -0.20500185953E-01  0.23435210902E-01  0.00000000000E+00 0. -1.
     999901    1    3    3    0    0  0.40734792086E-01  0.73861883494E-01  0.11843683711E+00  0.89193171572E+00  0.88000000000E+00 0.  1.
        -11    1    4    4    0    0 -0.31893730329E-01 -0.63658930210E-01 -0.81527473864E-01  0.10824351965E+00  0.51100000000E-03 0. -1.
         11    1    4    4    0    0  0.24117503738E-02 -0.11727979528E-01 -0.16409177288E-01  0.20319553734E-01  0.51100000000E-03 0.  1.
</event>
<event>
 8    1  0.1051655E+005  0.1043930E+01  0.7957747E-01            NaN
         13   -1    0    0    0    0  0.00000000000E+00  0.00000000000E+00  0.74505805969E-08  0.10566000000E+00  0.10566000000E+00 0.  1.
     999900   -1    0    0    0    0 -0.00000000000E+00 -0.00000000000E+00 -0.74505805969E-08  0.93827000000E+00  0.93827000000E+00 0. -1.
     999902    2    1    2    0    0 -0.21561850788E-02 -0.24327935567E-01 -0.11408006709E-02  0.10194800714E+01  0.10191868410E+01 0.  0.
     999903    2    3    3    0    0  0.59363456558E-01  0.74270475072E-01 -0.83464794220E-01  0.12802981882E+00  0.19624963464E-01 0.  0.
         14    1    1    2    0    0  0.21561850788E-02  0.24327935567E-01  0.11408006709E-02  0.24449928613E-01  0.00000000000E+00 0.  1.
     999901    1    3    3    0    0 -0.61519641637E-01 -0.98598410639E-01  0.82323993549E-01  0.89145025257E+00  0.88000000000E+00 0.  1.
        -11    1    4    4    0    0  0.94085022047E-02  0.13584397400E-01 -0.25395612638E-01  0.30302706623E-01  0.51100000000E-03 0.  1.
         11    1    4    4    0    0  0.49954954354E-01  0.60686077672E-01 -0.58069181582E-01  0.97727112197E-01  0.51100000000E-03 0. -1.
</event>
<event>
 8    1  0.1051655E+005  0.1043930E+01  0.7957747E-01            NaN
         13   -1    0    0    0    0  0.00000000000E+00  0.00000000000E+00  0.74505805969E-08  0.10566000000E+00  0.10566000000E+00 0. -1.
     999900   -1    0    0    0    0 -0.00000000000E+00 -0.00000000000E+00 -0.74505805969E-08  0.93827000000E+00  0.93827000000E+00 0. -1.
     999902    2    1    2    0    0 -0.38128787149E-02 -0.95527195259E-02 -0.20893976667E-01  0.10206415746E+01  0.10203758490E+01 0.  0.
     999903    2    3    3    0    0 -0.45821717978E-01 -0.11588268371E+00  0.36461865067E-01  0.13139442315E+00  0.20164340056E-01 0.  0.
         14    1    1    2    0    0  0.38128787149E-02  0.95527195259E-02  0.20893976667E-01  0.23288425352E-01  0.00000000000E+00 0. -1.
     999901    1    3    3    0    0  0.42008839263E-01  0.10632996418E+00 -0.57355841734E-01  0.88924715149E+00  0.88000000000E+00 0. -1.
        -11    1    4    4    0    0 -0.19516689461E-01 -0.75307848456E-01  0.24728918555E-01  0.81633043190E-01  0.51100000000E-03 0.  1.
         11    1    4    4    0    0 -0.26305028517E-01 -0.40574835252E-01  0.11732946511E-01  0.49761379963E-01  0.51100000000E-03 0. -1.
</event>
<event>
 7    1  0.1051655E+005  0.1043930E+01  0.7957747E-01            NaN
         13   -1    0    0    0    0  0.00000000000E+00  0.00000000000E+00  0.74505805969E-08  0.10566000000E+00  0.10566000000E+00 0.  1.
     999900   -1    0    0    0    0 -0.00000000000E+00 -0.00000000000E+00 -0.74505805969E-08  0.93827000000E+00  0.93827000000E+00 0.  1.
     999903    2    1    2    0    0  0.83941995526E-01 -0.72038023804E-01 -0.41736927747E-01  0.11907161735E+00  0.14154272666E-01 0.  0.
         14    1    1    2    0    0  0.67185917148E-02  0.27935892104E-01  0.26323860776E-01  0.38967925123E-01  0.00000000000E+00 0.  1.
     999901    1    1    2    0    0 -0.90660587240E-01  0.44102131701E-01  0.15413066971E-01  0.88589045752E+00  0.88000000000E+00 0.  1.
        -11    1    3    3    0    0  0.56769951524E-01 -0.56163995707E-01 -0.26821534316E-01  0.84242967860E-01  0.51100000000E-03 0. -1.
         11    1    3    3    0    0  0.27172044002E-01 -0.15874028098E-01 -0.14915393431E-01  0.34828649492E-01  0.51100000000E-03 0.  1.
</event>
<event>
 8    1  0.1051655E+005  0.1043930E+01  0.7957747E-01            NaN
         13   -1    0    0    0    0  0.00000000000E+00  0.00000000000E+00  0.74505805969E-08  0.10566000000E+00  0.10566000000E+00 0.  1.
     999900   -1    0    0    0    0 -0.00000000000E+00 -0.00000000000E+00 -0.74505805969E-08  0.93827000000E+00  0.93827000000E+00 0.  1.
     999902    2    1    2    0    0  0.23065848156E-02 -0.32476780800E-02 -0.20881285268E-01  0.10226721586E+01  0.10224511960E+01 0.  0.
     999903    2    3    3    0    0 -0.60421030360E-01  0.11435644657E+00 -0.21059667441E-01  0.13263535281E+00  0.20506814477E-01 0.  0.
         14    1    1    2    0    0 -0.23065848156E-02  0.32476780800E-02  0.20881285268E-01  0.21257841398E-01  0.00000000000E+00 0.  1.
     999901    1    3    3    0    0  0.62727615176E-01 -0.11760412465E+00  0.17838217245E-03  0.89003680579E+00  0.88000000000E+00 0.  1.
        -11    1    4    4    0    0 -0.19324664555E-01  0.42873407177E-01  0.18152718078E-02  0.47065146720E-01  0.51100000000E-03 0. -1.
         11    1    4    4    0    0 -0.41096365806E-01  0.71483039398E-01 -0.22874939249E-01  0.85570206092E-01  0.51100000000E-03 0.  1.
</event>
<event>
 8    1  0.1051655E+005  0.1043930E+01  0.7957747E-01            NaN
         13   -1    0    0    0    0  0.00000000000E+00  0.00000000000E+00  0.74505805969E-08  0.10566000000E+00  0.10566000000E+00 0.  1.
     999900   -1    0    0    0    0 -0.00000000000E+00 -0.00000000000E+00 -0.74505805969E-08  0.93827000000E+00  0.93827000000E+00 0.  1.
     999902    2    1    2    0    0  0.21721208319E-01 -0.94840585306E-02  0.31887593674E-02  0.10200150163E+01  0.10197346258E+01 0.  0.
     999903    2    3    3    0    0 -0.99222133544E-01  0.77194360027E-01 -0.69951296172E-02  0.12746577301E+00  0.19864300762E-01 0.  0.
         14    1    1    2    0    0 -0.21721208319E-01  0.94840585306E-02 -0.31887593674E-02  0.23914983657E-01  0.00000000000E+00 0.  1.
     999901    1    3    3    0    0  0.12094334186E+00 -0.86678418558E-01  0.10183888985E-01  0.89254924334E+00  0.88000000000E+00 0. -1.
        -11    1    4    4    0    0 -0.52847727868E-01  0.41255205464E-01 -0.13636623591E-01  0.68418513158E-01  0.51100000000E-03 0. -1.
         11    1    4    4    0    0 -0.46374405676E-01  0.35939154563E-01  0.66414939735E-02  0.59047259849E-01  0.51100000000E-03 0.  1.
</event>
<event>
 8    1  0.1051655E+005  0.1043930E+01  0.7957747E-01            NaN
         13   -1    0    0    0    0  0.00000000000E+00  0.00000000000E+00  0.74505805969E-08  0.10566000000E+00  0.10566000000E+00 0.  1.
     999900   -1    0    0    0    0 -0.00000000000E+00 -0.00000000000E+00 -0.74505805969E-08  0.93827000000E+00  0.93827000000E+00 0.  1.
     999902    2    1    2    0    0  0.60585718923E-02 -0.40924837921E-02 -0.21624676234E-01  0.10211027939E+01  0.10208476058E+01 0.  0.
     999903    2    3    3    0    0 -0.53647847492E-01  0.11719175342E+00  0.37200901814E-02  0.13041930358E+00  0.19579506240E-01 0.  0.
         14    1    1    2    0    0 -0.60585718923E-02  0.40924837921E-02  0.21624676234E-01  0.22827206119E-01  0.00000000000E+00 0.  1.
     999901    1    3    3    0    0  0.59706419385E-01 -0.12128423721E+00 -0.25344766415E-01  0.89068349030E+00  0.88000000000E+00 0. -1.
        -11    1    4    4    0    0 -0.35817435568E-01  0.92617419623E-01 -0.28778704470E-02  0.99344946362E-01  0.51100000000E-03 0. -1.
         11    1    4    4    0    0 -0.17830411925E-01  0.24574333798E-01  0.65979606284E-02  0.31074357217E-01  0.51100000000E-03 0.  1.
</event>
<event>
 8    1  0.1051655E+005  0.1043930E+01  0.7957747E-01            NaN
         13   -1    0    0    0    0  0.00000000000E+00  0.00000000000E+00  0.74505805969E-08  0.10566000000E+00  0.10566000000E+00 0.  1.
     999900   -1    0    0    0    0 -0.00000000000E+00 -0.00000000000E+00 -0.74505805969E-08  0.93827000000E+00  0.93827000000E+00 0. -1.
     999902    2    1    2    0    0  0.16834855626E-01  0.69190379158E-02 -0.13092740457E-01  0.10215089094E+01  0.10212628196E+01 0.  0.
     999903    2    3    3    0    0  0.91471496179E-01  0.30542655719E-01  0.88383955202E-01  0.13222480230E+00  0.19281762756E-01 0.  0.
         14    1    1    2    0    0 -0.16834855626E-01 -0.69190379158E-02  0.13092740457E-01  0.22421090569E-01  0.00000000000E+00 0.  1.
     999901    1    3    3    0    0 -0.74636640554E-01 -0.23623617803E-01 -0.10147669566E+00  0.88928410713E+00  0.88000000000E+00 0. -1.
        -11    1    4    4    0    0  0.66195573812E-01  0.15200880075E-01  0.53277381762E-01  0.86323005484E-01  0.51100000000E-03 0.  1.
         11    1    4    4    0    0  0.25275922367E-01  0.15341775644E-01  0.35106573439E-01  0.45901796817E-01  0.51100000000E-03 0. -1.
</event>
<event>
 8    1  0.1051655E+005  0.1043930E+01  0.7957747E-01            NaN
         13   -1    0    0    0    0  0.00000000000E+00  0.00000000000E+00  0.74505805969E-08  0.10566000000E+00  0.10566000000E+00 0. -1.
     999900   -1    0    0    0    0 -0.00000000000E+00 -0.00000000000E+00 -0.74505805969E-08  0.93827000000E+00  0.93827000000E+00 0.  1.
     999902    2    1    2    0    0  0.10306717284E-02 -0.98107392165E-03 -0.24140120450E-01  0.10197479776E+01  0.10194612144E+01 0.  0.
     999903    2    3    3    0    0  0.37932779693E-01  0.17557416690E-01  0.11859144620E+00  0.12729196117E+00  0.19802868783E-01 0.  0.
         14    1    1    2    0    0 -0.10306717284E-02  0.98107392165E-03  0.24140120450E-01  0.24182022364E-01  0.00000000000E+00 0. -1.
     999901    1    3    3    0    0 -0.36902107965E-01 -0.18538490612E-01 -0.14273156665E+00  0.89245601646E+00  0.88000000000E+00 0.  1.
        -11    1    4    4    0    0  0.23253184831E-01  0.13095286988E-01  0.46792063372E-01  0.53869801018E-01  0.51100000000E-03 0.  1.
         11    1    4    4    0    0  0.14679594862E-01  0.44621297026E-02  0.71799382824E-01  0.73422160154E-01  0.51100000000E-03 0. -1.
</event>
<event>
 8    1  0.1051655E+005  0.1043930E+01  0.7957747E-01            NaN
         13   -1    0    0    0    0  0.00000000000E+00  0.00000000000E+00  0.74505805969E-08  0.10566000000E+00  0.10566000000E+00 0.  1.
     999900   -1    0    0    0    0 -0.00000000000E+00 -0.00000000000E+00 -0.74505805969E-08  0.93827000000E+00  0.93827000000E+00 0.  1.
     999902    2    1    2    0    0  0.15590863794E-01  0.18958414431E-01 -0.13225234477E-02  0.10193485928E+01  0.10190521616E+01 0.  0.
     999903    2    3    3    0    0  0.73614169561E-01  0.72738099249E-01  0.79116026877E-01  0.13214550506E+00  0.22208371342E-01 0.  0.
         14    1    1    2    0    0 -0.15590863794E-01 -0.18958414431E-01  0.13225234477E-02  0.24581407198E-01  0.00000000000E+00 0. -1.
     999901    1    3    3    0    0 -0.58023305767E-01 -0.53779684817E-01 -0.80438550325E-01  0.88720308774E+00  0.88000000000E+00 0.  1.
        -11    1    4    4    0    0  0.56832184824E-01  0.46987287737E-01  0.45771072803E-01  0.86792595694E-01  0.51100000000E-03 0.  1.
         11    1    4    4    0    0  0.16781984737E-01  0.25750811511E-01  0.33344954074E-01  0.45352909371E-01  0.51100000000E-03 0. -1.
</event>
<event>
 8    1  0.1051655E+005  0.1043930E+01  0.7957747E-01            NaN
         13   -1    0    0    0    0  0.00000000000E+00  0.00000000000E+00  0.74505805969E-08  0.10566000000E+00  0.10566000000E+00 0.  1.
     999900   -1    0    0    0    0 -0.00000000000E+00 -0.00000000000E+00 -0.74505805969E-08  0.93827000000E+00  0.93827000000E+00 0.  1.
     999902    2    1    2    0    0 -0.53748503240E-02 -0.12616223700E-01  0.66492117549E-02  0.10286895888E+01  0.10285766865E+01 0.  0.
     999903    2    3    3    0    0  0.53593160447E-01 -0.11808398132E+00  0.47251621657E-01  0.13950500173E+00  0.20319356968E-01 0.  0.
         14    1    1    2    0    0  0.53748503240E-02  0.12616223700E-01 -0.66492117549E-02  0.15240411195E-01  0.00000000000E+00 0. -1.
     999901    1    3    3    0    0 -0.58968010771E-01  0.10546775763E+00 -0.40602409902E-01  0.88918458707E+00  0.88000000000E+00 0. -1.
        -11    1    4    4    0    0  0.17985335632E-01 -0.56219679307E-01  0.13533649880E-01  0.60560262872E-01  0.51100000000E-03 0. -1.
         11    1    4    4    0    0  0.35607824815E-01 -0.61864302018E-01  0.33717971777E-01  0.78944738862E-01  0.51100000000E-03 0.  1.
</event>
<event>
 8    1  0.1051655E+005  0.1043930E+01  0.7957747E-01            NaN
         13   -1    0    0    0    0  0.00000000000E+00  0.00000000000E+00  0.74505805969E-08  0.10566000000E+00  0.10566000000E+00 0. -1.
     999900   -1    0    0    0    0 -0.00000000000E+00 -0.00000000000E+00 -0.74505805969E-08  0.93827000000E+00  0.93827000000E+00 0. -1.
     999902    2    1    2    0    0  0.27996636864E-02 -0.62085336453E-02 -0.25540867105E-01  0.10174966896E+01  0.10171532792E+01 0.  0.
     999903    2    3    3    0    0 -0.29732655493E-02 -0.10993335938E+00  0.60630431955E-01  0.12720591744E+00  0.20275905413E-01 0.  0.
         14    1    1    2    0    0 -0.27996636864E-02  0.62085336453E-02  0.25540867105E-01  0.26433310410E-01  0.00000000000E+00 0. -1.
     999901    1    3    3    0    0  0.57729292357E-02  0.10372482574E+00 -0.86171299060E-01  0.89029077215E+00  0.88000000000E+00 0.  1.
        -11    1    4    4    0    0 -0.93792662231E-02 -0.89943000469E-01  0.44873879147E-01  0.10095365332E+00  0.51100000000E-03 0. -1.
         11    1    4    4    0    0  0.64060006738E-02 -0.19990358914E-01  0.15756552808E-01  0.26252264122E-01  0.51100000000E-03 0.  1.
</event>
<event>
 8    1  0.1051655E+005  0.1043930E+01  0.7957747E-01            NaN
         13   -1    0    0    0    0  0.00000000000E+00  0.00000000000E+00  0.74505805969E-08  0.10566000000E+00  0.10566000000E+00 0. -1.
     999900   -1    0    0    0    0 -0.00000000000E+00 -0.00000000000E+00 -0.74505805969E-08  0.93827000000E+00  0.93827000000E+00 0.  1.
     999902    2    1    2    0    0 -0.10548889778E-01 -0.12993507346E-01 -0.17385863184E-01  0.10197974795E+01  0.10195119031E+01 0.  0.
     999903    2    3    3    0    0 -0.10073161402E+00  0.76142756103E-01  0.19164932523E-01  0.12995807942E+00  0.24025619587E-01 0.  0.
         14    1    1    2    0    0  0.10548889778E-01  0.12993507346E-01  0.17385863184E-01  0.24132520535E-01  0.00000000000E+00 0. -1.
     999901    1    3    3    0    0  0.90182724243E-01 -0.89136263449E-01 -0.36550795707E-01  0.88983940005E+00  0.88000000000E+00 0.  1.
        -11    1    4    4    0    0 -0.74748150333E-01  0.45515243373E-01  0.20035689336E-01  0.89780918494E-01  0.51100000000E-03 0. -1.
         11    1    4    4    0    0 -0.25983463688E-01  0.30627512730E-01 -0.87075681374E-03  0.40177160922E-01  0.51100000000E-03 0.  1.
</event>
<event>
 8    1  0.1051655E+005  0.1043930E+01  0.7957747E-01            NaN
         13   -1    0    0    0    0  0.00000000000E+00  0.00000000000E+00  0.74505805969E-08  0.10566000000E+00  0.10566000000E+00 0. -1.
     999900   -1    0    0    0    0 -0.00000000000E+00 -0.00000000000E+00 -0.74505805969E-08  0.93827000000E+00  0.93827000000E+00 0.  1.
     999902    2    1    2    0    0 -0.76208425734E-02 -0.21806058433E-01 -0.26809606797E-02  0.10206755601E+01  0.10204106183E+01 0.  0.
     999903    2    3    3    0    0  0.69654223698E-01 -0.86936006192E-01 -0.68579012943E-01  0.13244366510E+00  0.20704186958E-01 0.  0.
         14    1    1    2    0    0  0.76208425734E-02  0.21806058433E-01  0.26809606797E-02  0.23254439922E-01  0.00000000000E+00 0. -1.
     999901    1    3    3    0    0 -0.77275066272E-01  0.65129947759E-01  0.65898052263E-01  0.88823189498E+00  0.88000000000E+00 0. -1.
        -11    1    4    4    0    0  0.56706379857E-01 -0.60565416720E-01 -0.57924187949E-01  0.10118920836E+00  0.51100000000E-03 0.  1.
         11    1    4    4    0    0  0.12947843842E-01 -0.26370589472E-01 -0.10654824994E-01  0.31254456737E-01  0.51100000000E-03 0. -1.
</event>
<event>
 8    1  0.1051655E+005  0.1043930E+01  0.7957747E-01            NaN
         13   -1    0    0    0    0  0.00000000000E+00  0.00000000000E+00  0.74505805969E-08  0.10566000000E+00  0.10566000000E+00 0.  1.
     999900   -1    0    0    0    0 -0.00000000000E+00 -0.00000000000E+00 -0.74505805969E-08  0.93827000000E+00  0.93827000000E+00 0. -1.
     999902    2    1    2    0    0  0.14161735111E-01 -0.45939321561E-02 -0.18511322227E-01  0.10201744111E+01  0.10198977895E+01 0.  0.
     999903    2    3    3    0    0  0.33453333138E-01  0.11092880125E+00 -0.58830077414E-01  0.13149940316E+00  0.20169050043E-01 0.  0.
         14    1    1    2    0    0 -0.14161735111E-01  0.45939321561E-02  0.18511322227E-01  0.23755588913E-01  0.00000000000E+00 0.  1.
     999901    1    3    3    0    0 -0.19291598026E-01 -0.11552273340E+00  0.40318755187E-01  0.88867500792E+00  0.88000000000E+00 0.  1.
        -11    1    4    4    0    0  0.18135169321E-01  0.71860589800E-01 -0.27205159207E-01  0.78950684235E-01  0.51100000000E-03 0. -1.
         11    1    4    4    0    0  0.15318163817E-01  0.39068211448E-01 -0.31624918207E-01  0.52548718929E-01  0.51100000000E-03 0.  1.
</event>
<event>
 8    1  0.1051655E+005  0.1043930E+01  0.7957747E-01            NaN
         13   -1    0    0    0    0  0.00000000000E+00  0.00000000000E+00  0.74505805969E-08  0.10566000000E+00  0.10566000000E+00 0.  1.
     999900   -1    0    0    0    0 -0.00000000000E+00 -0.00000000000E+00 -0.74505805969E-08  0.93827000000E+00  0.93827000000E+00 0.  1.
     999902    2    1    2    0    0  0.16156958442E-02 -0.61401374554E-02 -0.22417306168E-01  0.10206309147E+01  0.10203649429E+01 0.  0.
     999903    2    3    3    0    0 -0.16911502771E-01 -0.27835318653E-01  0.12249300459E+00  0.12832326810E+00  0.20037990694E-01 0.  0.
         14    1    1    2    0    0 -0.16156958442E-02  0.61401374554E-02  0.22417306168E-01  0.23299085323E-01  0.00000000000E+00 0.  1.
     999901    1    3    3    0    0  0.18527198615E-01  0.21695181197E-01 -0.14491031076E+00  0.89230764658E+00  0.88000000000E+00 0.  1.
        -11    1    4    4    0    0 -0.37139360639E-02 -0.16241782091E-01  0.88500738086E-01  0.90056818561E-01  0.51100000000E-03 0.  1.
         11    1    4    4    0    0 -0.13197566707E-01 -0.11593536562E-01  0.33992266507E-01  0.38266449539E-01  0.51100000000E-03 0. -1.
</event>
<event>
 8    1  0.1051655E+005  0.1043930E+01  0.7957747E-01            NaN
         13   -1    0    0    0    0  0.00000000000E+00  0.00000000000E+00  0.74505805969E-08  0.10566000000E+00  0.10566000000E+00 0.  1.
     999900   -1    0    0    0    0 -0.00000000000E+00 -0.00000000000E+00 -0.74505805969E-08  0.93827000000E+00  0.93827000000E+00 0. -1.
     999902    2    1    2    0    0  0.21925662974E-01  0.23462118429E-02  0.63753180036E-02  0.10209760442E+01  0.10207179820E+01 0.  0.
     999903    2    3    3    0    0  0.15913387735E-01 -0.74431257703E-01  0.10578588863E+00  0.13203656998E+00  0.21207393711E-01 0.  0.
         14    1    1    2    0    0 -0.21925662974E-01 -0.23462118429E-02 -0.63753180036E-02  0.22953955792E-01  0.00000000000E+00 0. -1.
     999901    1    3    3    0    0  0.60122752388E-02  0.76777469546E-01 -0.99410570622E-01  0.88893947422E+00  0.88000000000E+00 0. -1.
        -11    1    4    4    0    0  0.13662561615E-01 -0.70674712174E-01  0.87895988602E-01  0.11361138351E+00  0.51100000000E-03 0.  1.
         11    1    4    4    0    0  0.22508261205E-02 -0.37565455291E-02  0.17889900023E-01  0.18425186468E-01  0.51100000000E-03 0. -1.
</event>
<event>
 8    1  0.1051655E+005  0.1043930E+01  0.7957747E-01            NaN
         13   -1    0    0    0    0  0.00000000000E+00  0.00000000000E+00  0.74505805969E-08  0.10566000000E+00  0.10566000000E+00 0.  1.
     999900   -1    0    0    0    0 -0.00000000000E+00 -0.00000000000E+00 -0.74505805969E-08  0.93827000000E+00  0.93827000000E+00 0. -1.
     999902    2    1    2    0    0  0.21566450752E-01  0.40704763005E-02 -0.26975472919E-02  0.10218176203E+01  0.10215783337E+01 0.  0.
     999903    2    3    3    0    0 -0.91656215844E-01  0.69863456494E-02  0.89507771417E-01  0.12978079631E+00  0.19538245024E-01 0.  0.
         14    1    1    2    0    0 -0.21566450752E-01 -0.40704763005E-02  0.26975472919E-02  0.22112379717E-01  0.00000000000E+00 0.  1.
     999901    1    3    3    0    0  0.11322266660E+00 -0.29158693489E-02 -0.92205318708E-01  0.89203682397E+00  0.88000000000E+00 0.  1.
        -11    1    4    4    0    0 -0.51502582332E-01 -0.31865908414E-02  0.58685190721E-01  0.78146548734E-01  0.51100000000E-03 0.  1.
         11    1    4    4    0    0 -0.40153633512E-01  0.10172936491E-01  0.30822580696E-01  0.51634247577E-01  0.51100000000E-03 0. -1.
</event>
<event>
 8    1  0.1051655E+005  0.1043930E+01  0.7957747E-01            NaN
         13   -1    0    0    0    0  0.00000000000E+00  0.00000000000E+00  0.74505805969E-08  0.10566000000E+00  0.10566000000E+00 0.  1.
     999900   -1    0    0    0    0 -0.00000000000E+00 -0.00000000000E+00 -0.74505805969E-08  0.93827000000E+00  0.93827000000E+00 0.  1.
     999902    2    1    2    0    0 -0.78981676152E-02 -0.18942968784E-01  0.98805842401E-02  0.10211518731E+01  0.10208977936E+01 0.  0.
     999903    2    3    3    0    0 -0.10243871934E+00 -0.57715711407E-01  0.60522035534E-01  0.13379298404E+00  0.20318740842E-01 0.  0.
         14    1    1    2    0    0  0.78981676152E-02  0.18942968784E-01 -0.98805842401E-02  0.22778126853E-01  0.00000000000E+00 0. -1.
     999901    1    3    3    0    0  0.94540551725E-01  0.38772742623E-01 -0.50641451294E-01  0.88735888911E+00  0.88000000000E+00 0. -1.
        -11    1    4    4    0    0 -0.68654911784E-01 -0.29986473985E-01  0.31183822399E-01  0.81150338475E-01  0.51100000000E-03 0.  1.
         11    1    4    4    0    0 -0.33783807556E-01 -0.27729237422E-01  0.29338213135E-01  0.52642645563E-01  0.51100000000E-03 0. -1.
</event>
<event>
 7    1  0.1051655E+005  0.1043930E+01  0.7957747E-01            NaN
         13   -1    0    0    0    0  0.00000000000E+00  0.00000000000E+00  0.74505805969E-08  0.10566000000E+00  0.10566000000E+00 0. -1.
     999900   -1    0    0    0    0 -0.00000000000E+00 -0.00000000000E+00 -0.74505805969E-08  0.93827000000E+00  0.93827000000E+00 0.  1.
     999903    2    1    2    0    0  0.11660337180E+00 -0.95013754525E-02  0.63554774707E-02  0.11886608997E+00  0.20053249130E-01 0.  0.
         14    1    1    2    0    0 -0.32964685735E-01  0.16556971085E-01  0.17320622912E-01  0.40753009400E-01  0.00000000000E+00 0. -1.
     999901    1    1    2    0    0 -0.83638686067E-01 -0.70555956321E-02 -0.23676100383E-01  0.88431090063E+00  0.88000000000E+00 0.  1.
        -11    1    3    3    0    0  0.85528864470E-01 -0.20157811125E-02  0.12039806736E-01  0.86397153299E-01  0.51100000000E-03 0. -1.
         11    1    3    3    0    0  0.31074507333E-01 -0.74855943400E-02 -0.56843292654E-02  0.32468936675E-01  0.51100000000E-03 0.  1.
</event>
<event>
 8    1  0.1051655E+005  0.1043930E+01  0.7957747E-01            NaN
         13   -1    0    0    0    0  0.00000000000E+00  0.00000000000E+00  0.74505805969E-08  0.10566000000E+00  0.10566000000E+00 0. -1.
     999900   -1    0    0    0    0 -0.00000000000E+00 -0.00000000000E+00 -0.74505805969E-08  0.93827000000E+00  0.93827000000E+00 0. -1.
     999902    2    1    2    0    0 -0.12982903138E-01 -0.26296734990E-03  0.20299728371E-01  0.10198322014E+01  0.10195474560E+01 0.  0.
     999903    2    3    3    0    0  0.20524811373E-01 -0.12683881601E+00  0.41820635776E-02  0.12999851383E+00  0.19307273617E-01 0.  0.
         14    1    1    2    0    0  0.12982903138E-01  0.26296734990E-03 -0.20299728371E-01  0.24097798606E-01  0.00000000000E+00 0.  1.
     999901    1    3    3    0    0 -0.33507714512E-01  0.12657584866E+00  0.16117664794E-01  0.88983368756E+00  0.88000000000E+00 0. -1.
        -11    1    4    4    0    0  0.18911916391E-02 -0.53627714162E-01  0.84802965945E-02  0.54329410851E-01  0.51100000000E-03 0.  1.
         11    1    4    4    0    0  0.18633619734E-01 -0.73211101849E-01 -0.42982330169E-02  0.75669102984E-01  0.51100000000E-03 0. -1.
</event>
<event>
 8    1  0.1051655E+005  0.1043930E+01  0.7957747E-01            NaN
         13   -1    0    0    0    0  0.00000000000E+00  0.00000000000E+00  0.74505805969E-08  0.10566000000E+00  0.10566000000E+00 0. -1.
     999900   -1    0    0    0    0 -0.00000000000E+00 -0.00000000000E+00 -0.74505805969E-08  0.93827000000E+00  0.93827000000E+00 0.  1.
     999902    2    1    2    0    0 -0.11862052702E-01  0.93468219608E-02 -0.18310608813E-01  0.10201950096E+01  0.10199188731E+01 0.  0.
     999903    2    3    3    0    0 -0.64257300120E-01 -0.11140558354E+00 -0.43236923481E-02  0.13029499316E+00  0.20442266659E-01 0.  0.
         14    1    1    2    0    0  0.11862052702E-01 -0.93468219608E-02  0.18310608813E-01  0.23734990419E-01  0.00000000000E+00 0. -1.
     999901    1    3    3    0    0  0.52395247418E-01  0.12075240550E+00 -0.13986916465E-01  0.88990001642E+00  0.88000000000E+00 0.  1.
        -11    1    4    4    0    0 -0.58347400656E-01 -0.89507547981E-01  0.15555524262E-02  0.10685832290E+00  0.51100000000E-03 0.  1.
         11    1    4    4    0    0 -0.59098994639E-02 -0.21898035557E-01 -0.58792447743E-02  0.23436670264E-01  0.51100000000E-03 0. -1.
</event>
<event>
 8    1  0.1051655E+005  0.1043930E+01  0.7957747E-01            NaN
         13   -1    0    0    0    0  0.00000000000E+00  0.00000000000E+00  0.74505805969E-08  0.10566000000E+00  0.10566000000E+00 0. -1.
     999900   -1    0    0    0    0 -0.00000000000E+00 -0.00000000000E+00 -0.74505805969E-08  0.93827000000E+00  0.93827000000E+00 0.  1.
     999902    2    1    2    0    0 -0.18973751942E-01  0.72027357399E-02 -0.16301595229E-01  0.10178987751E+01  0.10175658660E+01 0.  0.
     999903    2    3    3    0    0 -0.16435046070E-02  0.12657632632E+00 -0.20643761871E-01  0.12965936701E+00  0.19003132817E-01 0.  0.
         14    1    1    2    0    0  0.18973751942E-01 -0.72027357399E-02  0.16301595229E-01  0.26031224941E-01  0.00000000000E+00 0. -1.
     999901    1    3    3    0    0 -0.17330247335E-01 -0.11937359058E+00  0.43421666419E-02  0.88823940805E+00  0.88000000000E+00 0. -1.
        -11    1    4    4    0    0  0.60778739628E-02  0.10322800344E+00 -0.16606309162E-01  0.10473295504E+00  0.51100000000E-03 0.  1.
         11    1    4    4    0    0 -0.77213785697E-02  0.23348322878E-01 -0.40374527088E-02  0.24926411968E-01  0.51100000000E-03 0. -1.
</event>
<event>
 8    1  0.1051655E+005  0.1043930E+01  0.7957747E-01            NaN
         13   -1    0    0    0    0  0.00000000000E+00  0.00000000000E+00  0.74505805969E-08  0.10566000000E+00  0.10566000000E+00 0. -1.
     999900   -1    0    0    0    0 -0.00000000000E+00 -0.00000000000E+00 -0.74505805969E-08  0.93827000000E+00  0.93827000000E+00 0.  1.
     999902    2    1    2    0    0  0.19297422785E-01  0.67738902437E-02  0.10428395840E-01  0.10209729193E+01  0.10207147860E+01 0.  0.
     999903    2    3    3    0    0  0.14969103106E-01 -0.49933132587E-01 -0.11645868354E+00  0.13005499282E+00  0.25185003608E-01 0.  0.
         14    1    1    2    0    0 -0.19297422785E-01 -0.67738902437E-02 -0.10428395840E-01  0.22957080715E-01  0.00000000000E+00 0.  1.
     999901    1    3    3    0    0  0.43283196786E-02  0.56707022831E-01  0.12688707938E+00  0.89091792647E+00  0.88000000000E+00 0. -1.
        -11    1    4    4    0    0  0.14416884514E-01 -0.11663636927E-01 -0.27078898625E-01  0.32823998191E-01  0.51100000000E-03 0. -1.
         11    1    4    4    0    0  0.55221859185E-03 -0.38269495660E-01 -0.89379784915E-01  0.97230994625E-01  0.51100000000E-03 0.  1.
</event>
<event>
 8    1  0.1051655E+005  0.1043930E+01  0.7957747E-01            NaN
         13   -1    0    0    0    0  0.00000000000E+00  0.00000000000E+00  0.74505805969E-08  0.10566000000E+00  0.10566000000E+00 0.  1.
     999900   -1    0    0    0    0 -0.00000000000E+00 -0.00000000000E+00 -0.74505805969E-08  0.93827000000E+00  0.93827000000E+00 0. -1.
     999902    2    1    2    0    0  0.18469460237E-01 -0.27107405038E-02 -0.14363026560E-01  0.10203765373E+01  0.10201046575E+01 0.  0.
     999903    2    3    3    0    0 -0.35085841938E-01  0.12329787681E+00 -0.15510606166E-02  0.12969674715E+00  0.19633076746E-01 0.  0.
         14    1    1    2    0    0 -0.18469460237E-01  0.27107405038E-02  0.14363026560E-01  0.23553462749E-01  0.00000000000E+00 0.  1.
     999901    1    3    3    0    0  0.53555302175E-01 -0.12600861731E+00 -0.12811965943E-01  0.89067979010E+00  0.88000000000E+00 0. -1.
        -11    1    4    4    0    0 -0.18896721482E-01  0.34999900778E-01  0.22783632217E-02  0.39843835122E-01  0.51100000000E-03 0.  1.
         11    1    4    4    0    0 -0.16189120456E-01  0.88297976027E-01 -0.38294238383E-02  0.89852912026E-01  0.51100000000E-03 0. -1.
</event>
<event>
 8    1  0.1051655E+005  0.1043930E+01  0.7957747E-01            NaN
         13   -1    0    0    0    0  0.00000000000E+00  0.00000000000E+00  0.74505805969E-08  0.10566000000E+00  0.10566000000E+00 0. -1.
     999900   -1    0    0    0    0 -0.00000000000E+00 -0.00000000000E+00 -0.74505805969E-08  0.93827000000E+00  0.93827000000E+00 0.  1.
     999902    2    1    2    0    0  0.94650140222E-02 -0.12194396100E-01  0.18072880182E-01  0.10201619798E+01  0.10198850652E+01 0.  0.
     999903    2    3    3    0    0 -0.10756769444E+00 -0.46999421228E-01  0.54650496861E-01  0.13097922767E+00  0.19726296945E-01 0.  0.
         14    1    1    2    0    0 -0.94650140222E-02  0.12194396100E-01 -0.18072880182E-01  0.23768020211E-01  0.00000000000E+00 0.  1.
     999901    1    3    3    0    0  0.11703270846E+00  0.34805025127E-01 -0.36577616679E-01  0.88918275212E+00  0.88000000000E+00 0.  1.
        -11    1    4    4    0    0 -0.28751702962E-01 -0.10836862908E-01  0.24043912584E-01  0.39018827176E-01  0.51100000000E-03 0.  1.
         11    1    4    4    0    0 -0.78815991477E-01 -0.36162558320E-01  0.30606584277E-01  0.91960400493E-01  0.51100000000E-03 0. -1.
</event>
<event>
 8    1  0.1051655E+005  0.1043930E+01  0.7957747E-01            NaN
         13   -1    0    0    0    0  0.00000000000E+00  0.00000000000E+00  0.74505805969E-08  0.10566000000E+00  0.10566000000E+00 0.  1.
     999900   -1    0    0    0    0 -0.00000000000E+00 -0.00000000000E+00 -0.74505805969E-08  0.93827000000E+00  0.93827000000E+00 0.  1.
     999902    2    1    2    0    0 -0.13250312683E-01 -0.69812714351E-02 -0.17559178793E-01  0.10208511418E+01  0.10205902312E+01 0.  0.
     999903    2    3    3    0    0  0.95784965354E-01 -0.85371000631E-01 -0.15529261983E-01  0.13066140803E+00  0.19190576713E-01 0.  0.
         14    1    1    2    0    0  0.13250312683E-01  0.69812714351E-02  0.17559178793E-01  0.23078858225E-01  0.00000000000E+00 0.  1.
     999901    1    3    3    0    0 -0.10903527804E+00  0.78389729196E-01 -0.20299168107E-02  0.89018973374E+00  0.88000000000E+00 0.  1.
        -11    1    4    4    0    0  0.55929164676E-01 -0.55058561866E-01 -0.18010042990E-01  0.80524154548E-01  0.51100000000E-03 0.  1.
         11    1    4    4    0    0  0.39855800678E-01 -0.30312438765E-01  0.24807810069E-02  0.50137253484E-01  0.51100000000E-03 0. -1.
</event>
<event>
 8    1  0.1051655E+005  0.1043930E+01  0.7957747E-01            NaN
         13   -1    0    0    0    0  0.00000000000E+00  0.00000000000E+00  0.74505805969E-08  0.10566000000E+00  0.10566000000E+00 0. -1.
     999900   -1    0    0    0    0 -0.00000000000E+00 -0.00000000000E+00 -0.74505805969E-08  0.93827000000E+00  0.93827000000E+00 0. -1.
     999902    2    1    2    0    0 -0.17468166298E-01 -0.12198678950E-01 -0.12557833072E-01  0.10191985671E+01  0.10188984618E+01 0.  0.
     999903    2    3    3    0    0  0.13790236403E-01 -0.53984301216E-01  0.11360946023E+00  0.12866989722E+00  0.23331472291E-01 0.  0.
         14    1    1    2    0    0  0.17468166298E-01  0.12198678950E-01  0.12557833072E-01  0.24731432903E-01  0.00000000000E+00 0.  1.
     999901    1    3    3    0    0 -0.31258402701E-01  0.41785622266E-01 -0.12616729331E+00  0.89052866987E+00  0.88000000000E+00 0. -1.
        -11    1    4    4    0    0  0.19869840573E-01 -0.47355198225E-01  0.98247332342E-01  0.11086083527E+00  0.51100000000E-03 0.  1.
         11    1    4    4    0    0 -0.60796041708E-02 -0.66291029908E-02  0.15362127891E-01  0.17809061954E-01  0.51100000000E-03 0. -1.
</event>
<event>
 8    1  0.1051655E+005  0.1043930E+01  0.7957747E-01            NaN
         13   -1    0    0    0    0  0.00000000000E+00  0.00000000000E+00  0.74505805969E-08  0.10566000000E+00  0.10566000000E+00 0.  1.
     999900   -1    0    0    0    0 -0.00000000000E+00 -0.00000000000E+00 -0.74505805969E-08  0.93827000000E+00  0.93827000000E+00 0. -1.
     999902    2    1    2    0    0  0.67158486937E-02 -0.10190429203E-01 -0.20600894613E-01  0.10199853904E+01  0.10197042965E+01 0.  0.
     999903    2    3    3    0    0  0.31914024474E-02  0.14705744472E-01 -0.13028181723E+00  0.13282016001E+00  0.21009498693E-01 0.  0.
         14    1    1    2    0    0 -0.67158486937E-02  0.10190429203E-01  0.20600894613E-01  0.23944609621E-01  0.00000000000E+00 0.  1.
     999901    1    3    3    0    0  0.35244462463E-02 -0.24896173675E-01  0.10968092262E+00  0.88716523037E+00  0.88000000000E+00 0.  1.
        -11    1    4    4    0    0  0.10428426800E-01  0.49624684803E-02 -0.37359723132E-01  0.39107393322E-01  0.51100000000E-03 0.  1.
         11    1    4    4    0    0 -0.72370243524E-02  0.97432759914E-02 -0.92922094097E-01  0.93712766691E-01  0.51100000000E-03 0. -1.
</event>
<event>
 8    1  0.1051655E+005  0.1043930E+01  0.7957747E-01            NaN
         13   -1    0    0    0    0  0.00000000000E+00  0.00000000000E+00  0.74505805969E-08  0.10566000000E+00  0.10566000000E+00 0. -1.
     999900   -1    0    0    0    0 -0.00000000000E+00 -0.00000000000E+00 -0.74505805969E-08  0.93827000000E+00  0.93827000000E+00 0. -1.
     999902    2    1    2    0    0 -0.18248222870E-01  0.32371159591E-02  0.14937509244E-01  0.10201265183E+01  0.10198487670E+01 0.  0.
     999903    2    3    3    0    0 -0.94154448430E-01 -0.83344639673E-01 -0.32299015277E-01  0.13136927096E+00  0.20081579698E-01 0.  0.
         14    1    1    2    0    0  0.18248222870E-01 -0.32371159591E-02 -0.14937509244E-01  0.23803481679E-01  0.00000000000E+00 0.  1.
     999901    1    3    3    0    0  0.75906225561E-01  0.86581755632E-01  0.47236524521E-01  0.88875724736E+00  0.88000000000E+00 0. -1.
        -11    1    4    4    0    0 -0.61323548320E-01 -0.43450312468E-01 -0.13347364384E-01  0.76334268118E-01  0.51100000000E-03 0. -1.
         11    1    4    4    0    0 -0.32830900110E-01 -0.39894327206E-01 -0.18951650893E-01  0.55035002842E-01  0.51100000000E-03 0.  1.
</event>
<event>
 8    1  0.1051655E+005  0.1043930E+01  0.7957747E-01            NaN
         13   -1    0    0    0    0  0.00000000000E+00  0.00000000000E+00  0.74505805969E-08  0.10566000000E+00  0.10566000000E+00 0.  1.
     999900   -1    0    0    0    0 -0.00000000000E+00 -0.00000000000E+00 -0.74505805969E-08  0.93827000000E+00  0.93827000000E+00 0. -1.
     999902    2    1    2    0    0  0.20974583359E-01  0.11318717861E-01 -0.54431878662E-02  0.10194826113E+01  0.10191894426E+01 0.  0.
     999903    2    3    3    0    0  0.94241082324E-01 -0.84460366022E-01 -0.27441135720E-01  0.13098639717E+00  0.19735381610E-01 0.  0.
         14    1    1    2    0    0 -0.20974583359E-01 -0.11318717861E-01  0.54431878662E-02  0.24447388721E-01  0.00000000000E+00 0. -1.
     999901    1    3    3    0    0 -0.73266498965E-01  0.95779083883E-01  0.21997947854E-01  0.88849621411E+00  0.88000000000E+00 0. -1.
        -11    1    4    4    0    0  0.75808908699E-01 -0.65034929690E-01 -0.13500623067E-01  0.10079216568E+00  0.51100000000E-03 0.  1.
         11    1    4    4    0    0  0.18432173626E-01 -0.19425436332E-01 -0.13940512653E-01  0.30194231490E-01  0.51100000000E-03 0. -1.
</event>
<event>
 8    1  0.1051655E+005  0.1043930E+01  0.7957747E-01            NaN
         13   -1    0    0    0    0  0.00000000000E+00  0.00000000000E+00  0.74505805969E-08  0.10566000000E+00  0.10566000000E+00 0.  1.
     999900   -1    0    0    0    0 -0.00000000000E+00 -0.00000000000E+00 -0.74505805969E-08  0.93827000000E+00  0.93827000000E+00 0. -1.
     999902    2    1    2    0    0 -0.11022938579E-01 -0.19499156243E-01  0.83227200741E-02  0.10200346042E+01  0.10197546783E+01 0.  0.
     999903    2    3    3    0    0  0.10384332220E+00  0.65801457011E-01  0.30320580748E-01  0.12820818707E+00  0.20118009485E-01 0.  0.
         14    1    1    2    0    0  0.11022938579E-01  0.19499156243E-01 -0.83227200741E-02  0.23895395760E-01  0.00000000000E+00 0. -1.
     999901    1    3    3    0    0 -0.11486626077E+00 -0.85300613254E-01 -0.21997860674E-01  0.89182641717E+00  0.88000000000E+00 0. -1.
        -11    1    4    4    0    0  0.55321504735E-01  0.43187985844E-01  0.24587043672E-01  0.74367027942E-01  0.51100000000E-03 0. -1.
         11    1    4    4    0    0  0.48521817461E-01  0.22613471167E-01  0.57335370766E-02  0.53841159129E-01  0.51100000000E-03 0.  1.
</event>
<event>
 8    1  0.1051655E+005  0.1043930E+01  0.7957747E-01            NaN
         13   -1    0    0    0    0  0.00000000000E+00  0.00000000000E+00  0.74505805969E-08  0.10566000000E+00  0.10566000000E+00 0. -1.
     999900   -1    0    0    0    0 -0.00000000000E+00 -0.00000000000E+00 -0.74505805969E-08  0.93827000000E+00  0.93827000000E+00 0. -1.
     999902    2    1    2    0    0 -0.16901378378E-02 -0.14170903425E-01 -0.18644178089E-01  0.10204507230E+01  0.10201805731E+01 0.  0.
     999903    2    3    3    0    0  0.86351375821E-01 -0.56303033658E-01  0.76488930190E-01  0.12995831274E+00  0.20298150214E-01 0.  0.
         14    1    1    2    0    0  0.16901378378E-02  0.14170903425E-01  0.18644178089E-01  0.23479276957E-01  0.00000000000E+00 0. -1.
     999901    1    3    3    0    0 -0.88041513659E-01  0.42132130233E-01 -0.95133108279E-01  0.89049241031E+00  0.88000000000E+00 0. -1.
        -11    1    4    4    0    0  0.27301125139E-01 -0.24172087123E-01  0.37190916272E-01  0.52087105927E-01  0.51100000000E-03 0.  1.
         11    1    4    4    0    0  0.59050250682E-01 -0.32130946535E-01  0.39298013918E-01  0.77871206808E-01  0.51100000000E-03 0. -1.
</event>
<event>
 8    1  0.1051655E+005  0.1043930E+01  0.7957747E-01            NaN
         13   -1    0    0    0    0  0.00000000000E+00  0.00000000000E+00  0.74505805969E-08  0.10566000000E+00  0.10566000000E+00 0.  1.
     999900   -1    0    0    0    0 -0.00000000000E+00 -0.00000000000E+00 -0.74505805969E-08  0.93827000000E+00  0.93827000000E+00 0.  1.
     999902    2    1    2    0    0  0.16398937305E-01 -0.96185931567E-02 -0.13761005104E-01  0.10204607064E+01  0.10201907888E+01 0.  0.
     999903    2    3    3    0    0  0.60956691448E-01  0.11314849686E+00 -0.14627165397E-01  0.13082150874E+00  0.19545142756E-01 0.  0.
         14    1    1    2    0    0 -0.16398937305E-01  0.96185931567E-02  0.13761005104E-01  0.23469293567E-01  0.00000000000E+00 0.  1.
     999901    1    3    3    0    0 -0.44557754143E-01 -0.12276709002E+00  0.86616029306E-03  0.88963919770E+00  0.88000000000E+00 0.  1.
        -11    1    4    4    0    0  0.56707560724E-01  0.10566686109E+00 -0.84555942016E-02  0.12022059378E+00  0.51100000000E-03 0. -1.
         11    1    4    4    0    0  0.42491307238E-02  0.74816357792E-02 -0.61715711956E-02  0.10600914954E-01  0.51100000000E-03 0.  1.
</event>
<event>
 8    1  0.1051655E+005  0.1043930E+01  0.7957747E-01            NaN
         13   -1    0    0    0    0  0.00000000000E+00  0.00000000000E+00  0.74505805969E-08  0.10566000000E+00  0.10566000000E+00 0. -1.
     999900   -1    0    0    0    0 -0.00000000000E+00 -0.00000000000E+00 -0.74505805969E-08  0.93827000000E+00  0.93827000000E+00 0.  1.
     999902    2    1    2    0    0 -0.80097329382E-02 -0.26366702238E-01  0.24410695021E-02  0.10162656253E+01  0.10158890212E+01 0.  0.
     999903    2    3    3    0    0 -0.90607687400E-01  0.38707887053E-01  0.77245611869E-01  0.12685410983E+00  0.20421241163E-01 0.  0.
         14    1    1    2    0    0  0.80097329382E-02  0.26366702238E-01 -0.24410695021E-02  0.27664374726E-01  0.00000000000E+00 0. -1.
     999901    1    3    3    0    0  0.82597954462E-01 -0.65074589291E-01 -0.74804542367E-01  0.88941151545E+00  0.88000000000E+00 0.  1.
        -11    1    4    4    0    0 -0.42386107897E-01  0.29027915305E-01  0.37245278499E-01  0.63456078520E-01  0.51100000000E-03 0. -1.
         11    1    4    4    0    0 -0.48221579503E-01  0.96799717479E-02  0.40000333370E-01  0.63398031306E-01  0.51100000000E-03 0.  1.
</event>
<event>
 8    1  0.1051655E+005  0.1043930E+01  0.7957747E-01            NaN
         13   -1    0    0    0    0  0.00000000000E+00  0.00000000000E+00  0.74505805969E-08  0.10566000000E+00  0.10566000000E+00 0.  1.
     999900   -1    0    0    0    0 -0.00000000000E+00 -0.00000000000E+00 -0.74505805969E-08  0.93827000000E+00  0.93827000000E+00 0.  1.
     999902    2    1    2    0    0 -0.20400399759E-01 -0.50326778661E-02  0.64810050745E-02  0.10219411941E+01  0.10217046034E+01 0.  0.
     999903    2    3    3    0    0  0.10144779826E+00  0.23832752098E-02  0.79614897922E-01  0.13050945473E+00  0.19921095107E-01 0.  0.
         14    1    1    2    0    0  0.20400399759E-01  0.50326778661E-02 -0.64810050745E-02  0.21988805870E-01  0.00000000000E+00 0. -1.
     999901    1    3    3    0    0 -0.12184819802E+00 -0.74159530759E-02 -0.73133892847E-01  0.89143173940E+00  0.88000000000E+00 0.  1.
        -11    1    4    4    0    0  0.79912972831E-01 -0.58000194587E-02  0.57985272591E-01  0.98905391212E-01  0.51100000000E-03 0.  1.
         11    1    4    4    0    0  0.21534825432E-01  0.81832946685E-02  0.21629625331E-01  0.31604063520E-01  0.51100000000E-03 0. -1.
</event>
<event>
 8    1  0.1051655E+005  0.1043930E+01  0.7957747E-01            NaN
         13   -1    0    0    0    0  0.00000000000E+00  0.00000000000E+00  0.74505805969E-08  0.10566000000E+00  0.10566000000E+00 0.  1.
     999900   -1    0    0    0    0 -0.00000000000E+00 -0.00000000000E+00 -0.74505805969E-08  0.93827000000E+00  0.93827000000E+00 0.  1.
     999902    2    1    2    0    0  0.27604156679E-01  0.48107735551E-04 -0.18404424382E-01  0.10107529806E+01  0.10102083316E+01 0.  0.
     999903    2    3    3    0    0 -0.49727670534E-01 -0.47615146868E-01 -0.98791885431E-01  0.12243201312E+00  0.22129568063E-01 0.  0.
         14    1    1    2    0    0 -0.27604156679E-01 -0.48107735551E-04  0.18404424382E-01  0.33177019413E-01  0.00000000000E+00 0.  1.
     999901    1    3    3    0    0  0.77331827213E-01  0.47663254604E-01  0.80387461049E-01  0.88832096746E+00  0.88000000000E+00 0. -1.
        -11    1    4    4    0    0 -0.16498599064E-01 -0.11214541678E-01 -0.46346176986E-01  0.50459874735E-01  0.51100000000E-03 0.  1.
         11    1    4    4    0    0 -0.33229071470E-01 -0.36400605190E-01 -0.52445708445E-01  0.71972138389E-01  0.51100000000E-03 0. -1.
</event>
<event>
 8    1  0.1051655E+005  0.1043930E+01  0.7957747E-01            NaN
         13   -1    0    0    0    0  0.00000000000E+00  0.00000000000E+00  0.74505805969E-08  0.10566000000E+00  0.10566000000E+00 0.  1.
     999900   -1    0    0    0    0 -0.00000000000E+00 -0.00000000000E+00 -0.74505805969E-08  0.93827000000E+00  0.93827000000E+00 0. -1.
     999902    2    1    2    0    0 -0.10185485222E-01 -0.43883324584E-02  0.20360892861E-01  0.10207444974E+01  0.10204811422E+01 0.  0.
     999903    2    3    3    0    0 -0.50199517582E-01  0.71877627502E-02 -0.11704316065E+00  0.12910835938E+00  0.19955237624E-01 0.  0.
         14    1    1    2    0    0  0.10185485222E-01  0.43883324584E-02 -0.20360892861E-01  0.23185502562E-01  0.00000000000E+00 0. -1.
     999901    1    3    3    0    0  0.40014032360E-01 -0.11576095209E-01  0.13740405351E+00  0.89163613806E+00  0.88000000000E+00 0. -1.
        -11    1    4    4    0    0 -0.19947981970E-01  0.83126882980E-02 -0.69128150468E-01  0.72429172849E-01  0.51100000000E-03 0.  1.
         11    1    4    4    0    0 -0.30251535612E-01 -0.11249255478E-02 -0.47915010182E-01  0.56679186533E-01  0.51100000000E-03 0. -1.
</event>
<event>
 8    1  0.1051655E+005  0.1043930E+01  0.7957747E-01            NaN
         13   -1    0    0    0    0  0.00000000000E+00  0.00000000000E+00  0.74505805969E-08  0.10566000000E+00  0.10566000000E+00 0. -1.
     999900   -1    0    0    0    0 -0.00000000000E+00 -0.00000000000E+00 -0.74505805969E-08  0.93827000000E+00  0.93827000000E+00 0. -1.
     999902    2    1    2    0    0 -0.41938366881E-03  0.12053150289E-01 -0.20764340740E-01  0.10199172500E+01  0.10196345349E+01 0.  0.
     999903    2    3    3    0    0 -0.50626048482E-01 -0.11667860295E+00 -0.88841128857E-02  0.12905603004E+00  0.19990954339E-01 0.  0.
         14    1    1    2    0    0  0.41938366881E-03 -0.12053150289E-01  0.20764340740E-01  0.24012749966E-01  0.00000000000E+00 0. -1.
     999901    1    3    3    0    0  0.50206664813E-01  0.12873175324E+00 -0.11880227855E-01  0.89086122000E+00  0.88000000000E+00 0.  1.
        -11    1    4    4    0    0 -0.34530435505E-01 -0.85998092684E-01  0.21304480066E-02  0.92697480285E-01  0.51100000000E-03 0. -1.
         11    1    4    4    0    0 -0.16095612977E-01 -0.30680510266E-01 -0.11014560892E-01  0.36358549750E-01  0.51100000000E-03 0.  1.
</event>
<event>
 8    1  0.1051655E+005  0.1043930E+01  0.7957747E-01            NaN
         13   -1    0    0    0    0  0.00000000000E+00  0.00000000000E+00  0.74505805969E-08  0.10566000000E+00  0.10566000000E+00 0. -1.
     999900   -1    0    0    0    0 -0.00000000000E+00 -0.00000000000E+00 -0.74505805969E-08  0.93827000000E+00  0.93827000000E+00 0.  1.
     999902    2    1    2    0    0  0.58472887792E-02  0.12412231426E-01  0.18748935383E-01  0.10206969018E+01  0.10204324517E+01 0.  0.
     999903    2    3    3    0    0 -0.10977309145E+00 -0.65469510233E-01  0.45328084367E-02  0.12961007308E+00  0.21019902815E-01 0.  0.
         14    1    1    2    0    0 -0.58472887792E-02 -0.12412231426E-01 -0.18748935383E-01  0.23233098222E-01  0.00000000000E+00 0.  1.
     999901    1    3    3    0    0  0.11562038023E+00  0.77881741659E-01  0.14216126946E-01  0.89108682870E+00  0.88000000000E+00 0. -1.
        -11    1    4    4    0    0 -0.68047820668E-01 -0.42045631973E-01  0.12918150954E-01  0.81027654605E-01  0.51100000000E-03 0. -1.
         11    1    4    4    0    0 -0.41725270787E-01 -0.23423878260E-01 -0.83853425177E-02  0.48582418477E-01  0.51100000000E-03 0.  1.
</event>
<event>
 8    1  0.1051655E+005  0.1043930E+01  0.7957747E-01            NaN
         13   -1    0    0    0    0  0.00000000000E+00  0.00000000000E+00  0.74505805969E-08  0.10566000000E+00  0.10566000000E+00 0. -1.
     999900   -1    0    0    0    0 -0.00000000000E+00 -0.00000000000E+00 -0.74505805969E-08  0.93827000000E+00  0.93827000000E+00 0.  1.
     999902    2    1    2    0    0 -0.93229307910E-02 -0.51162283725E-02 -0.21882367098E-01  0.10196003715E+01  0.10193100543E+01 0.  0.
     999903    2    3    3    0    0  0.66326790937E-01  0.10847225466E+00 -0.80600480193E-02  0.12897346852E+00  0.20092734550E-01 0.  0.
         14    1    1    2    0    0  0.93229307910E-02  0.51162283725E-02  0.21882367098E-01  0.24329628462E-01  0.00000000000E+00 0. -1.
     999901    1    3    3    0    0 -0.75649721728E-01 -0.11358848303E+00 -0.13822319078E-01  0.89062690302E+00  0.88000000000E+00 0. -1.
        -11    1    4    4    0    0  0.64373368837E-01  0.93028970337E-01 -0.64241112070E-02  0.11331306307E+00  0.51100000000E-03 0.  1.
         11    1    4    4    0    0  0.19534221001E-02  0.15443284320E-01 -0.16359368123E-02  0.15660405447E-01  0.51100000000E-03 0. -1.
</event>
<event>
 8    1  0.1051655E+005  0.1043930E+01  0.7957747E-01            NaN
         13   -1    0    0    0    0  0.00000000000E+00  0.00000000000E+00  0.74505805969E-08  0.10566000000E+00  0.10566000000E+00 0. -1.
     999900   -1    0    0    0    0 -0.00000000000E+00 -0.00000000000E+00 -0.74505805969E-08  0.93827000000E+00  0.93827000000E+00 0.  1.
     999902    2    1    2    0    0 -0.20826856732E-01  0.10058410046E-01 -0.68548330068E-02  0.10198070170E+01  0.10195216690E+01 0.  0.
     999903    2    3    3    0    0 -0.22708499324E-01 -0.83530877708E-02  0.12583422001E+00  0.12966719166E+00  0.19846401492E-01 0.  0.
         14    1    1    2    0    0  0.20826856732E-01 -0.10058410046E-01  0.68548330068E-02  0.24122983015E-01  0.00000000000E+00 0.  1.
     999901    1    3    3    0    0  0.18816425914E-02  0.18411497817E-01 -0.13268905302E+00  0.89013982532E+00  0.88000000000E+00 0.  1.
        -11    1    4    4    0    0 -0.14216260860E-01 -0.69771816825E-02  0.34932317521E-01  0.38357672837E-01  0.51100000000E-03 0.  1.
         11    1    4    4    0    0 -0.84922384635E-02 -0.13759060883E-02  0.90901902488E-01  0.91309518828E-01  0.51100000000E-03 0. -1.
</event>
<event>
 8    1  0.1051655E+005  0.1043930E+01  0.7957747E-01            NaN
         13   -1    0    0    0    0  0.00000000000E+00  0.00000000000E+00  0.74505805969E-08  0.10566000000E+00  0.10566000000E+00 0. -1.
     999900   -1    0    0    0    0 -0.00000000000E+00 -0.00000000000E+00 -0.74505805969E-08  0.93827000000E+00  0.93827000000E+00 0.  1.
     999902    2    1    2    0    0 -0.17862390967E-01  0.13798945215E-01  0.14378174148E-01  0.10171679412E+01  0.10168158205E+01 0.  0.
     999903    2    3    3    0    0 -0.56587890917E-01 -0.11122719850E+00  0.16059890090E-01  0.12748595917E+00  0.20520005628E-01 0.  0.
         14    1    1    2    0    0  0.17862390967E-01 -0.13798945215E-01 -0.14378174148E-01  0.26762058814E-01  0.00000000000E+00 0.  1.
     999901    1    3    3    0    0  0.38725499950E-01  0.12502614371E+00 -0.16817159416E-02  0.88968198202E+00  0.88000000000E+00 0. -1.
        -11    1    4    4    0    0 -0.18977435791E-01 -0.19816617588E-01  0.63148048925E-02  0.28159887849E-01  0.51100000000E-03 0. -1.
         11    1    4    4    0    0 -0.37610455127E-01 -0.91410580911E-01  0.97450851970E-02  0.99326071320E-01  0.51100000000E-03 0.  1.
</event>
<event>
 8    1  0.1051655E+005  0.1043930E+01  0.7957747E-01            NaN
         13   -1    0    0    0    0  0.00000000000E+00  0.00000000000E+00  0.74505805969E-08  0.10566000000E+00  0.10566000000E+00 0.  1.
     999900   -1    0    0    0    0 -0.00000000000E+00 -0.00000000000E+00 -0.74505805969E-08  0.93827000000E+00  0.93827000000E+00 0. -1.
     999902    2    1    2    0    0 -0.15623098217E-01 -0.26869953165E-02 -0.16833157206E-01  0.10208073634E+01  0.10205454507E+01 0.  0.
     999903    2    3    3    0    0 -0.24697494343E-01 -0.11194961975E+00  0.59480429846E-01  0.13072622703E+00  0.20217351674E-01 0.  0.
         14    1    1    2    0    0  0.15623098217E-01  0.26869953165E-02  0.16833157206E-01  0.23122636598E-01  0.00000000000E+00 0.  1.
     999901    1    3    3    0    0  0.90743961264E-02  0.10926262443E+00 -0.76313587052E-01  0.89008113638E+00  0.88000000000E+00 0.  1.
        -11    1    4    4    0    0 -0.20843290550E-01 -0.60000932057E-01  0.25043561192E-01  0.68278808476E-01  0.51100000000E-03 0.  1.
         11    1    4    4    0    0 -0.38542037937E-02 -0.51948687693E-01  0.34436868654E-01  0.62447418550E-01  0.51100000000E-03 0. -1.
</event>
<event>
 7    1  0.1051655E+005  0.1043930E+01  0.7957747E-01            NaN
         13   -1    0    0    0    0  0.00000000000E+00  0.00000000000E+00  0.74505805969E-08  0.10566000000E+00  0.10566000000E+00 0. -1.
     999900   -1    0    0    0    0 -0.00000000000E+00 -0.00000000000E+00 -0.74505805969E-08  0.93827000000E+00  0.93827000000E+00 0. -1.
     999902    2    1    2    0    0 -0.66163531724E-02 -0.46302286492E-02 -0.23252639785E-01  0.10193149557E+01  0.10190177028E+01 0.  0.
         14    1    1    2    0    0  0.66163531724E-02  0.46302286492E-02  0.23252639785E-01  0.24615044254E-01  0.00000000000E+00 0. -1.
     999901    1    3    3    0    0  0.71229771762E-01  0.91748304161E-02 -0.12359379661E+00  0.89153423067E+00  0.88000000000E+00 0. -1.
        -11    1    3    3    0    0 -0.65771395280E-01 -0.12349502700E-01  0.83795645795E-01  0.10723972225E+00  0.51100000000E-03 0.  1.
         11    1    3    3    0    0 -0.12074729654E-01 -0.14555563651E-02  0.16545511031E-01  0.20541002820E-01  0.51100000000E-03 0. -1.
</event>
<event>
 8    1  0.1051655E+005  0.1043930E+01  0.7957747E-01            NaN
         13   -1    0    0    0    0  0.00000000000E+00  0.00000000000E+00  0.74505805969E-08  0.10566000000E+00  0.10566000000E+00 0. -1.
     999900   -1    0    0    0    0 -0.00000000000E+00 -0.00000000000E+00 -0.74505805969E-08  0.93827000000E+00  0.93827000000E+00 0.  1.
     999902    2    1    2    0    0  0.97310588873E-02  0.18617796799E-01 -0.10869339466E-01  0.10202771269E+01  0.10200029202E+01 0.  0.
     999903    2    3    3    0    0  0.45367429671E-01 -0.11871679982E+00 -0.81146036650E-02  0.12890833067E+00  0.19990715065E-01 0.  0.
         14    1    1    2    0    0 -0.97310588873E-02 -0.18617796799E-01  0.10869339466E-01  0.23652873084E-01  0.00000000000E+00 0. -1.
     999901    1    3    3    0    0 -0.35636370783E-01  0.13733459662E+00 -0.27547358006E-02  0.89136879625E+00  0.88000000000E+00 0. -1.
        -11    1    4    4    0    0  0.22171895326E-01 -0.38786459455E-01 -0.94514271813E-02  0.45668073926E-01  0.51100000000E-03 0.  1.
         11    1    4    4    0    0  0.23195534344E-01 -0.79930340367E-01  0.13368235163E-02  0.83240256744E-01  0.51100000000E-03 0. -1.
</event>
<event>
 8    1  0.1051655E+005  0.1043930E+01  0.7957747E-01            NaN
         13   -1    0    0    0    0  0.00000000000E+00  0.00000000000E+00  0.74505805969E-08  0.10566000000E+00  0.10566000000E+00 0. -1.
     999900   -1    0    0    0    0 -0.00000000000E+00 -0.00000000000E+00 -0.74505805969E-08  0.93827000000E+00  0.93827000000E+00 0.  1.
     999902    2    1    2    0    0 -0.14521869572E-02 -0.71321085367E-03  0.25087053608E-01  0.10187908318E+01  0.10184806239E+01 0.  0.
     999903    2    3    3    0    0  0.62676160943E-01  0.30420698212E-01  0.11006937079E+00  0.13182760852E+00  0.20236895795E-01 0.  0.
         14    1    1    2    0    0  0.14521869572E-02  0.71321085367E-03 -0.25087053608E-01  0.25139168153E-01  0.00000000000E+00 0.  1.
     999901    1    3    3    0    0 -0.64128347900E-01 -0.31133909065E-01 -0.84982317185E-01  0.88696322333E+00  0.88000000000E+00 0.  1.
        -11    1    4    4    0    0  0.43837309796E-01  0.13864997572E-01  0.83258431277E-01  0.95111384111E-01  0.51100000000E-03 0.  1.
         11    1    4    4    0    0  0.18838851147E-01  0.16555700640E-01  0.26810939516E-01  0.36716224410E-01  0.51100000000E-03 0. -1.
</event>
<event>
 8    1  0.1051655E+005  0.1043930E+01  0.7957747E-01            NaN
         13   -1    0    0    0    0  0.00000000000E+00  0.00000000000E+00  0.74505805969E-08  0.10566000000E+00  0.10566000000E+00 0.  1.
     999900   -1    0    0    0    0 -0.00000000000E+00 -0.00000000000E+00 -0.74505805969E-08  0.93827000000E+00  0.93827000000E+00 0. -1.
     999902    2    1    2    0    0 -0.21006303223E-01 -0.80931319730E-02 -0.45331482430E-02  0.10209667033E+01  0.10207084287E+01 0.  0.
     999903    2    3    3    0    0  0.20145230577E-01 -0.11184949950E+00  0.58774996198E-01  0.13165980824E+00  0.31042939167E-01 0.  0.
         14    1    1    2    0    0  0.21006303223E-01  0.80931319730E-02  0.45331482430E-02  0.22963296654E-01  0.00000000000E+00 0.  1.
     999901    1    3    3    0    0 -0.41151533800E-01  0.10375636753E+00 -0.63308144441E-01  0.88930689511E+00  0.88000000000E+00 0. -1.
        -11    1    4    4    0    0  0.17882301470E-01 -0.91315649589E-01  0.33238944686E-01  0.98809984974E-01  0.51100000000E-03 0. -1.
         11    1    4    4    0    0  0.22629291075E-02 -0.20533849916E-01  0.25536051512E-01  0.32849823262E-01  0.51100000000E-03 0.  1.
</event>
<event>
 8    1  0.1051655E+005  0.1043930E+01  0.7957747E-01            NaN
         13   -1    0    0    0    0  0.00000000000E+00  0.00000000000E+00  0.74505805969E-08  0.10566000000E+00  0.10566000000E+00 0.  1.
     999900   -1    0    0    0    0 -0.00000000000E+00 -0.00000000000E+00 -0.74505805969E-08  0.93827000000E+00  0.93827000000E+00 0.  1.
     999902    2    1    2    0    0  0.11954455023E-01 -0.16286820441E-01 -0.12189299758E-01  0.10203344804E+01  0.10200616175E+01 0.  0.
     999903    2    3    3    0    0  0.12643018808E+00 -0.17458508166E-01 -0.30521909407E-01  0.13272975372E+00  0.19904989401E-01 0.  0.
         14    1    1    2    0    0 -0.11954455023E-01  0.16286820441E-01  0.12189299758E-01  0.23595519566E-01  0.00000000000E+00 0. -1.
     999901    1    3    3    0    0 -0.11447573306E+00  0.11716877244E-02  0.18332609648E-01  0.88760472672E+00  0.88000000000E+00 0. -1.
        -11    1    4    4    0    0  0.40940318637E-01 -0.13103339687E-01 -0.16186202772E-01  0.45935405541E-01  0.51100000000E-03 0.  1.
         11    1    4    4    0    0  0.85489869443E-01 -0.43551684788E-02 -0.14335706635E-01  0.86794348178E-01  0.51100000000E-03 0. -1.
</event>
<event>
 8    1  0.1051655E+005  0.1043930E+01  0.7957747E-01            NaN
         13   -1    0    0    0    0  0.00000000000E+00  0.00000000000E+00  0.74505805969E-08  0.10566000000E+00  0.10566000000E+00 0. -1.
     999900   -1    0    0    0    0 -0.00000000000E+00 -0.00000000000E+00 -0.74505805969E-08  0.93827000000E+00  0.93827000000E+00 0.  1.
     999902    2    1    2    0    0 -0.12579699359E-01 -0.23262157960E-01  0.51228884832E-02  0.10169926502E+01  0.10166358393E+01 0.  0.
     999903    2    3    3    0    0 -0.21929884134E-01 -0.12694052333E+00  0.12546857265E-01  0.13082576707E+00  0.19056269854E-01 0.  0.
         14    1    1    2    0    0  0.12579699359E-01  0.23262157960E-01 -0.51228884832E-02  0.26937349820E-01  0.00000000000E+00 0. -1.
     999901    1    3    3    0    0  0.93501847754E-02  0.10367836537E+00 -0.74239687813E-02  0.88616688311E+00  0.88000000000E+00 0. -1.
        -11    1    4    4    0    0 -0.22380755077E-01 -0.77433695778E-01  0.52029878442E-02  0.80772567392E-01  0.51100000000E-03 0.  1.
         11    1    4    4    0    0  0.45087094264E-03 -0.49506827556E-01  0.73438694203E-02  0.50053199681E-01  0.51100000000E-03 0. -1.
</event>
<event>
 8    1  0.1051655E+005  0.1043930E+01  0.7957747E-01            NaN
         13   -1    0    0    0    0  0.00000000000E+00  0.00000000000E+00  0.74505805969E-08  0.10566000000E+00  0.10566000000E+00 0. -1.
     999900   -1    0    0    0    0 -0.00000000000E+00 -0.00000000000E+00 -0.74505805969E-08  0.93827000000E+00  0.93827000000E+00 0.  1.
     999902    2    1    2    0    0 -0.14315282270E-01  0.16262830476E-01  0.11658645424E-01  0.10193265252E+01  0.10190295550E+01 0.  0.
     999903    2    3    3    0    0  0.41342087107E-01  0.20790529258E-01 -0.11759492210E+00  0.12813365739E+00  0.21172014090E-01 0.  0.
         14    1    1    2    0    0  0.14315282270E-01 -0.16262830476E-01 -0.11658645424E-01  0.24603474850E-01  0.00000000000E+00 0.  1.
     999901    1    3    3    0    0 -0.55657369377E-01 -0.45276987815E-02  0.12925356752E+00  0.89119286776E+00  0.88000000000E+00 0. -1.
        -11    1    4    4    0    0  0.16405882949E-01  0.12351644428E-01 -0.77421876026E-01  0.80100712380E-01  0.51100000000E-03 0. -1.
         11    1    4    4    0    0  0.24936204157E-01  0.84388848301E-02 -0.40173046072E-01  0.48032945014E-01  0.51100000000E-03 0.  1.
</event>
<event>
 8    1  0.1051655E+005  0.1043930E+01  0.7957747E-01            NaN
         13   -1    0    0    0    0  0.00000000000E+00  0.00000000000E+00  0.74505805969E-08  0.10566000000E+00  0.10566000000E+00 0.  1.
     999900   -1    0    0    0    0 -0.00000000000E+00 -0.00000000000E+00 -0.74505805969E-08  0.93827000000E+00  0.93827000000E+00 0. -1.
     999902    2    1    2    0    0  0.16682331412E-01  0.15834261670E-01  0.48079383979E-02  0.10204323343E+01  0.10201617560E+01 0.  0.
     999903    2    3    3    0    0 -0.49201160053E-01  0.11373552312E+00 -0.39081385125E-01  0.13147138789E+00  0.20021183775E-01 0.  0.
         14    1    1    2    0    0 -0.16682331412E-01 -0.15834261670E-01 -0.48079383979E-02  0.23497665748E-01  0.00000000000E+00 0. -1.
     999901    1    3    3    0    0  0.65883491465E-01 -0.97901261450E-01  0.43889323523E-01  0.88896094636E+00  0.88000000000E+00 0.  1.
        -11    1    4    4    0    0 -0.51188358961E-02  0.23032131988E-01 -0.14398598296E-01  0.27645295056E-01  0.51100000000E-03 0.  1.
         11    1    4    4    0    0 -0.44082324157E-01  0.90703391133E-01 -0.24682786829E-01  0.10382609283E+00  0.51100000000E-03 0. -1.
</event>
<event>
 8    1  0.1051655E+005  0.1043930E+01  0.7957747E-01            NaN
         13   -1    0    0    0    0  0.00000000000E+00  0.00000000000E+00  0.74505805969E-08  0.10566000000E+00  0.10566000000E+00 0.  1.
     999900   -1    0    0    0    0 -0.00000000000E+00 -0.00000000000E+00 -0.74505805969E-08  0.93827000000E+00  0.93827000000E+00 0. -1.
     999902    2    1    2    0    0 -0.12675481479E-01 -0.14380889541E-01  0.11966946458E-01  0.10213316456E+01  0.10210816053E+01 0.  0.
     999903    2    3    3    0    0 -0.81465253693E-01  0.97963659115E-01  0.25237034812E-01  0.13142747905E+00  0.20070083625E-01 0.  0.
         14    1    1    2    0    0  0.12675481479E-01  0.14380889541E-01 -0.11966946458E-01  0.22598354415E-01  0.00000000000E+00 0. -1.
     999901    1    3    3    0    0  0.68789772214E-01 -0.11234454866E+00 -0.13270088354E-01  0.88990416654E+00  0.88000000000E+00 0.  1.
        -11    1    4    4    0    0 -0.53580435512E-01  0.50548798560E-01  0.18938723005E-01  0.76059058997E-01  0.51100000000E-03 0. -1.
         11    1    4    4    0    0 -0.27884818181E-01  0.47414860555E-01  0.62983118067E-02  0.55368420052E-01  0.51100000000E-03 0.  1.
</event>
<event>
 8    1  0.1051655E+005  0.1043930E+01  0.7957747E-01            NaN
         13   -1    0    0    0    0  0.00000000000E+00  0.00000000000E+00  0.74505805969E-08  0.10566000000E+00  0.10566000000E+00 0. -1.
     999900   -1    0    0    0    0 -0.00000000000E+00 -0.00000000000E+00 -0.74505805969E-08  0.93827000000E+00  0.93827000000E+00 0.  1.
     999902    2    1    2    0    0 -0.68122322103E-03 -0.23287671001E-01 -0.45986262645E-02  0.10201828518E+01  0.10199064290E+01 0.  0.
     999903    2    3    3    0    0  0.12481912715E+00 -0.16134933438E-01 -0.29787926436E-01  0.13089324740E+00  0.20138795219E-01 0.  0.
         14    1    1    2    0    0  0.68122322103E-03  0.23287671001E-01  0.45986262645E-02  0.23747148234E-01  0.00000000000E+00 0.  1.
     999901    1    3    3    0    0 -0.12550035037E+00 -0.71527375635E-02  0.25189300172E-01  0.88928960437E+00  0.88000000000E+00 0. -1.
        -11    1    4    4    0    0  0.65367355794E-01 -0.16081983276E-02 -0.77649716731E-02  0.65848564232E-01  0.51100000000E-03 0.  1.
         11    1    4    4    0    0  0.59451771356E-01 -0.14526735110E-01 -0.22022954763E-01  0.65044683164E-01  0.51100000000E-03 0. -1.
</event>
<event>
 8    1  0.1051655E+005  0.1043930E+01  0.7957747E-01            NaN
         13   -1    0    0    0    0  0.00000000000E+00  0.00000000000E+00  0.74505805969E-08  0.10566000000E+00  0.10566000000E+00 0. -1.
     999900   -1    0    0    0    0 -0.00000000000E+00 -0.00000000000E+00 -0.74505805969E-08  0.93827000000E+00  0.93827000000E+00 0. -1.
     999902    2    1    2    0    0 -0.14740625655E-01  0.12096192397E-02  0.18801466688E-01  0.10200083702E+01  0.10197278220E+01 0.  0.
     999903    2    3    3    0    0  0.18371973785E-01 -0.27978717574E-02  0.13016021981E+00  0.13236357855E+00  0.15266846372E-01 0.  0.
         14    1    1    2    0    0  0.14740625655E-01 -0.12096192397E-02 -0.18801466688E-01  0.23921629815E-01  0.00000000000E+00 0.  1.
     999901    1    3    3    0    0 -0.33112599441E-01  0.40074909971E-02 -0.11135875312E+00  0.88764479164E+00  0.88000000000E+00 0. -1.
        -11    1    4    4    0    0  0.90611755033E-02 -0.69435499678E-02  0.96942880439E-01  0.97614040878E-01  0.51100000000E-03 0.  1.
         11    1    4    4    0    0  0.93107982822E-02  0.41456782104E-02  0.33217339368E-01  0.34749537668E-01  0.51100000000E-03 0. -1.
</event>
<event>
 8    1  0.1051655E+005  0.1043930E+01  0.7957747E-01            NaN
         13   -1    0    0    0    0  0.00000000000E+00  0.00000000000E+00  0.74505805969E-08  0.10566000000E+00  0.10566000000E+00 0. -1.
     999900   -1    0    0    0    0 -0.00000000000E+00 -0.00000000000E+00 -0.74505805969E-08  0.93827000000E+00  0.93827000000E+00 0. -1.
     999902    2    1    2    0    0  0.21046815149E-01  0.78161954076E-02  0.98742926461E-02  0.10194032188E+01  0.10191081197E+01 0.  0.
     999903    2    3    3    0    0 -0.38930499625E-01 -0.10636115957E+00 -0.55088655196E-01  0.12763310762E+00  0.20668095333E-01 0.  0.
         14    1    1    2    0    0 -0.21046815149E-01 -0.78161954076E-02 -0.98742926461E-02  0.24526781155E-01  0.00000000000E+00 0.  1.
     999901    1    3    3    0    0  0.59977314774E-01  0.11417735498E+00  0.64962947842E-01  0.89177011122E+00  0.88000000000E+00 0. -1.
        -11    1    4    4    0    0 -0.16752419917E-02 -0.19150661157E-01 -0.16156829438E-01  0.25116897041E-01  0.51100000000E-03 0. -1.
         11    1    4    4    0    0 -0.37255257633E-01 -0.87210498411E-01 -0.38931825758E-01  0.10251621058E+00  0.51100000000E-03 0.  1.
</event>
<event>
 8    1  0.1051655E+005  0.1043930E+01  0.7957747E-01            NaN
         13   -1    0    0    0    0  0.00000000000E+00  0.00000000000E+00  0.74505805969E-08  0.10566000000E+00  0.10566000000E+00 0.  1.
     999900   -1    0    0    0    0 -0.00000000000E+00 -0.00000000000E+00 -0.74505805969E-08  0.93827000000E+00  0.93827000000E+00 0.  1.
     999902    2    1    2    0    0  0.17695308394E-02  0.95112281326E-02 -0.18796375366E-01  0.10227900277E+01  0.10225715341E+01 0.  0.
     999903    2    3    3    0    0 -0.90243029608E-01 -0.60340043905E-01  0.65633745337E-01  0.13123298708E+00  0.33609270729E-01 0.  0.
         14    1    1    2    0    0 -0.17695308394E-02 -0.95112281326E-02  0.18796375366E-01  0.21139972254E-01  0.00000000000E+00 0.  1.
     999901    1    3    3    0    0  0.92012560447E-01  0.69851272037E-01 -0.84430120703E-01  0.89155704067E+00  0.88000000000E+00 0. -1.
        -11    1    4    4    0    0 -0.34069338448E-01 -0.34390649710E-01  0.13340164663E-01  0.50216110204E-01  0.51100000000E-03 0. -1.
         11    1    4    4    0    0 -0.56173691160E-01 -0.25949394195E-01  0.52293580674E-01  0.81016876873E-01  0.51100000000E-03 0.  1.
</event>
<event>
 8    1  0.1051820E+005  0.1043930E+01  0.7957747E-01            NaN
         13   -1    0    0    0    0  0.00000000000E+00  0.00000000000E+00  0.74505805969E-08  0.10566000000E+00  0.10566000000E+00 0. -1.
     999900   -1    0    0    0    0 -0.00000000000E+00 -0.00000000000E+00 -0.74505805969E-08  0.93827000000E+00  0.93827000000E+00 0. -1.
     999902    2    1    2    0    0  0.29074321868E-02 -0.34782364011E-03 -0.25174605159E-01  0.10185856735E+01  0.10182703174E+01 0.  0.
     999903    2    3    3    0    0 -0.83363478458E-02 -0.71598960244E-01  0.10202352953E+00  0.12651924514E+00  0.20060234542E-01 0.  0.
         14    1    1    2    0    0 -0.29074321868E-02  0.34782364011E-03  0.25174605159E-01  0.25344326547E-01  0.00000000000E+00 0. -1.
     999901    1    3    3    0    0  0.11243780033E-01  0.71251136604E-01 -0.12719813469E+00  0.89206642831E+00  0.88000000000E+00 0.  1.
        -11    1    4    4    0    0 -0.14292499749E-01 -0.47616099771E-01  0.61906298416E-01  0.79399114675E-01  0.51100000000E-03 0. -1.
         11    1    4    4    0    0  0.59561519034E-02 -0.23982860473E-01  0.40117231111E-01  0.47120130464E-01  0.51100000000E-03 0.  1.
</event>
<event>
 8    1  0.1051655E+005  0.1043930E+01  0.7957747E-01            NaN
         13   -1    0    0    0    0  0.00000000000E+00  0.00000000000E+00  0.74505805969E-08  0.10566000000E+00  0.10566000000E+00 0.  1.
     999900   -1    0    0    0    0 -0.00000000000E+00 -0.00000000000E+00 -0.74505805969E-08  0.93827000000E+00  0.93827000000E+00 0.  1.
     999902    2    1    2    0    0 -0.12155635606E-01 -0.75912681388E-02  0.17986227174E-01  0.10209323654E+01  0.10206733089E+01 0.  0.
     999903    2    3    3    0    0  0.11361948020E+00 -0.57991050414E-01 -0.15406202677E-01  0.12993597249E+00  0.19330226529E-01 0.  0.
         14    1    1    2    0    0  0.12155635606E-01  0.75912681388E-02 -0.17986227174E-01  0.22997634594E-01  0.00000000000E+00 0.  1.
     999901    1    3    3    0    0 -0.12577511581E+00  0.50399782276E-01  0.33392429851E-01  0.89099639291E+00  0.88000000000E+00 0.  1.
        -11    1    4    4    0    0  0.89983762742E-01 -0.51202253664E-01 -0.63574564596E-02  0.10372765644E+00  0.51100000000E-03 0. -1.
         11    1    4    4    0    0  0.23635717460E-01 -0.67887967505E-02 -0.90487462171E-02  0.26208316052E-01  0.51100000000E-03 0.  1.
</event>
<event>
 8    1  0.1051655E+005  0.1043930E+01  0.7957747E-01            NaN
         13   -1    0    0    0    0  0.00000000000E+00  0.00000000000E+00  0.74505805969E-08  0.10566000000E+00  0.10566000000E+00 0.  1.
     999900   -1    0    0    0    0 -0.00000000000E+00 -0.00000000000E+00 -0.74505805969E-08  0.93827000000E+00  0.93827000000E+00 0.  1.
     999902    2    1    2    0    0  0.50971147709E-02  0.11275019308E-01  0.25930134973E-01  0.10151988577E+01  0.10147922162E+01 0.  0.
     999903    2    3    3    0    0 -0.31611461841E-01  0.77455862497E-01  0.96968474797E-01  0.12909848564E+00  0.16273866625E-01 0.  0.
         14    1    1    2    0    0 -0.50971147709E-02 -0.11275019308E-01 -0.25930134973E-01  0.28731142322E-01  0.00000000000E+00 0. -1.
     999901    1    3    3    0    0  0.36708576612E-01 -0.66180843190E-01 -0.71038339824E-01  0.88610037204E+00  0.88000000000E+00 0.  1.
        -11    1    4    4    0    0 -0.11131581593E-01  0.46812216676E-01  0.59722354570E-01  0.76696261286E-01  0.51100000000E-03 0.  1.
         11    1    4    4    0    0 -0.20479880247E-01  0.30643645822E-01  0.37246120228E-01  0.52402224354E-01  0.51100000000E-03 0. -1.
</event>
<event>
 8    1  0.1051655E+005  0.1043930E+01  0.7957747E-01            NaN
         13   -1    0    0    0    0  0.00000000000E+00  0.00000000000E+00  0.74505805969E-08  0.10566000000E+00  0.10566000000E+00 0.  1.
     999900   -1    0    0    0    0 -0.00000000000E+00 -0.00000000000E+00 -0.74505805969E-08  0.93827000000E+00  0.93827000000E+00 0.  1.
     999902    2    1    2    0    0  0.25820633754E-01  0.17254266150E-02 -0.41558277266E-02  0.10177202093E+01  0.10173826573E+01 0.  0.
     999903    2    3    3    0    0 -0.10217342519E+00  0.53577262789E-01  0.45455209826E-01  0.12556980321E+00  0.19790590570E-01 0.  0.
         14    1    1    2    0    0 -0.25820633754E-01 -0.17254266150E-02  0.41558277266E-02  0.26209790700E-01  0.00000000000E+00 0. -1.
     999901    1    3    3    0    0  0.12799405894E+00 -0.51851836174E-01 -0.49611037553E-01  0.89215040609E+00  0.88000000000E+00 0.  1.
        -11    1    4    4    0    0 -0.65671130223E-02  0.85433317246E-02  0.80586404438E-02  0.13465448274E-01  0.51100000000E-03 0. -1.
         11    1    4    4    0    0 -0.95606312166E-01  0.45033931065E-01  0.37396569383E-01  0.11210435494E+00  0.51100000000E-03 0.  1.
</event>
<event>
 8    1  0.1051655E+005  0.1043930E+01  0.7957747E-01            NaN
         13   -1    0    0    0    0  0.00000000000E+00  0.00000000000E+00  0.74505805969E-08  0.10566000000E+00  0.10566000000E+00 0.  1.
     999900   -1    0    0    0    0 -0.00000000000E+00 -0.00000000000E+00 -0.74505805969E-08  0.93827000000E+00  0.93827000000E+00 0.  1.
     999902    2    1    2    0    0 -0.18010285723E-01 -0.11157217334E-01  0.10750354662E-01  0.10201723904E+01  0.10198957212E+01 0.  0.
     999903    2    3    3    0    0  0.14702063231E-01 -0.41062622985E-01 -0.12010775776E+00  0.12939280110E+00  0.20355191794E-01 0.  0.
         14    1    1    2    0    0  0.18010285723E-01  0.11157217334E-01 -0.10750354662E-01  0.23757609640E-01  0.00000000000E+00 0. -1.
     999901    1    3    3    0    0 -0.32712348954E-01  0.29905405651E-01  0.13085811242E+00  0.89077958926E+00  0.88000000000E+00 0. -1.
        -11    1    4    4    0    0  0.34859240381E-03 -0.29816904727E-01 -0.71183079195E-01  0.77178113535E-01  0.51100000000E-03 0.  1.
         11    1    4    4    0    0  0.14353470827E-01 -0.11245718258E-01 -0.48924678561E-01  0.52214687562E-01  0.51100000000E-03 0. -1.
</event>
<event>
 8    1  0.1051655E+005  0.1043930E+01  0.7957747E-01            NaN
         13   -1    0    0    0    0  0.00000000000E+00  0.00000000000E+00  0.74505805969E-08  0.10566000000E+00  0.10566000000E+00 0.  1.
     999900   -1    0    0    0    0 -0.00000000000E+00 -0.00000000000E+00 -0.74505805969E-08  0.93827000000E+00  0.93827000000E+00 0.  1.
     999902    2    1    2    0    0 -0.18522918439E-01  0.57382611207E-02 -0.11695154368E-01  0.10212848508E+01  0.10210337622E+01 0.  0.
     999903    2    3    3    0    0  0.16123266183E-01  0.22027381743E-01  0.12520412536E+00  0.12987747681E+00  0.21140499393E-01 0.  0.
         14    1    1    2    0    0  0.18522918439E-01 -0.57382611207E-02  0.11695154368E-01  0.22645149235E-01  0.00000000000E+00 0.  1.
     999901    1    3    3    0    0 -0.34646184622E-01 -0.16289120623E-01 -0.13689927973E+00  0.89140737396E+00  0.88000000000E+00 0.  1.
        -11    1    4    4    0    0 -0.42902893472E-02  0.90585799140E-02  0.29367881866E-01  0.31035432316E-01  0.51100000000E-03 0.  1.
         11    1    4    4    0    0  0.20413555531E-01  0.12968801830E-01  0.95836243496E-01  0.98842044489E-01  0.51100000000E-03 0. -1.
</event>
<event>
 8    1  0.1051655E+005  0.1043930E+01  0.7957747E-01            NaN
         13   -1    0    0    0    0  0.00000000000E+00  0.00000000000E+00  0.74505805969E-08  0.10566000000E+00  0.10566000000E+00 0.  1.
     999900   -1    0    0    0    0 -0.00000000000E+00 -0.00000000000E+00 -0.74505805969E-08  0.93827000000E+00  0.93827000000E+00 0. -1.
     999902    2    1    2    0    0 -0.11551702071E-01  0.17248559427E-01  0.11905839309E-01  0.10199987729E+01  0.10197179968E+01 0.  0.
     999903    2    3    3    0    0 -0.11042534045E+00 -0.42907549794E-02  0.70067025742E-01  0.13229236754E+00  0.19486303423E-01 0.  0.
         14    1    1    2    0    0  0.11551702071E-01 -0.17248559427E-01 -0.11905839309E-01  0.23931227145E-01  0.00000000000E+00 0. -1.
     999901    1    3    3    0    0  0.98873638379E-01  0.21539314407E-01 -0.58161186433E-01  0.88770640532E+00  0.88000000000E+00 0. -1.
        -11    1    4    4    0    0 -0.37181029878E-01  0.74502552478E-02  0.26481360161E-01  0.46254284591E-01  0.51100000000E-03 0. -1.
         11    1    4    4    0    0 -0.73244310571E-01 -0.11741010227E-01  0.43585665581E-01  0.86038082948E-01  0.51100000000E-03 0.  1.
</event>
<event>
 8    1  0.1051655E+005  0.1043930E+01  0.7957747E-01            NaN
         13   -1    0    0    0    0  0.00000000000E+00  0.00000000000E+00  0.74505805969E-08  0.10566000000E+00  0.10566000000E+00 0.  1.
     999900   -1    0    0    0    0 -0.00000000000E+00 -0.00000000000E+00 -0.74505805969E-08  0.93827000000E+00  0.93827000000E+00 0. -1.
     999902    2    1    2    0    0 -0.84291541799E-03  0.11098926552E-02  0.25185286512E-01  0.10187061814E+01  0.10183938546E+01 0.  0.
     999903    2    3    3    0    0  0.16029306455E-01  0.91041098275E-01  0.91236377751E-01  0.13149986928E+00  0.20560125347E-01 0.  0.
         14    1    1    2    0    0  0.84291541799E-03 -0.11098926552E-02 -0.25185286512E-01  0.25223818601E-01  0.00000000000E+00 0. -1.
     999901    1    3    3    0    0 -0.16872221873E-01 -0.89931205619E-01 -0.66051091239E-01  0.88720631212E+00  0.88000000000E+00 0. -1.
        -11    1    4    4    0    0  0.12979441293E-02  0.32843672448E-01  0.44976606652E-01  0.55709494216E-01  0.51100000000E-03 0. -1.
         11    1    4    4    0    0  0.14731362326E-01  0.58197425827E-01  0.46259771099E-01  0.75790375061E-01  0.51100000000E-03 0.  1.
</event>
<event>
 8    1  0.1051655E+005  0.1043930E+01  0.7957747E-01            NaN
         13   -1    0    0    0    0  0.00000000000E+00  0.00000000000E+00  0.74505805969E-08  0.10566000000E+00  0.10566000000E+00 0.  1.
     999900   -1    0    0    0    0 -0.00000000000E+00 -0.00000000000E+00 -0.74505805969E-08  0.93827000000E+00  0.93827000000E+00 0.  1.
     999902    2    1    2    0    0 -0.22526852850E-01 -0.23552096117E-03 -0.44377420000E-02  0.10209689869E+01  0.10207107641E+01 0.  0.
     999903    2    3    3    0    0 -0.31097958612E-01 -0.50923403572E-01  0.11531212923E+00  0.13137202367E+00  0.20036102230E-01 0.  0.
         14    1    1    2    0    0  0.22526852850E-01  0.23552096117E-03  0.44377420000E-02  0.22961013120E-01  0.00000000000E+00 0. -1.
     999901    1    3    3    0    0  0.85711057621E-02  0.50687882611E-01 -0.11974987123E+00  0.88959696321E+00  0.88000000000E+00 0.  1.
        -11    1    4    4    0    0 -0.16339788372E-01 -0.39234270044E-01  0.92442103149E-01  0.10174536936E+00  0.51100000000E-03 0. -1.
         11    1    4    4    0    0 -0.14758170240E-01 -0.11689133528E-01  0.22870026085E-01  0.29626654310E-01  0.51100000000E-03 0.  1.
</event>
<event>
 8    1  0.1051655E+005  0.1043930E+01  0.7957747E-01            NaN
         13   -1    0    0    0    0  0.00000000000E+00  0.00000000000E+00  0.74505805969E-08  0.10566000000E+00  0.10566000000E+00 0.  1.
     999900   -1    0    0    0    0 -0.00000000000E+00 -0.00000000000E+00 -0.74505805969E-08  0.93827000000E+00  0.93827000000E+00 0. -1.
     999902    2    1    2    0    0 -0.23204003125E-01  0.52601305989E-02  0.89840149767E-03  0.10201202990E+01  0.10198424009E+01 0.  0.
     999903    2    3    3    0    0 -0.64116880560E-01  0.11410384612E+00 -0.19038015196E-02  0.13246683608E+00  0.20326734331E-01 0.  0.
         14    1    1    2    0    0  0.23204003125E-01 -0.52601305989E-02 -0.89840149767E-03  0.23809700968E-01  0.00000000000E+00 0.  1.
     999901    1    3    3    0    0  0.40912877435E-01 -0.10884371552E+00  0.28022030172E-02  0.88765346295E+00  0.88000000000E+00 0. -1.
        -11    1    4    4    0    0 -0.32430000768E-01  0.58442374884E-01  0.91713131857E-02  0.67465474418E-01  0.51100000000E-03 0. -1.
         11    1    4    4    0    0 -0.31686879792E-01  0.55661471236E-01 -0.11075114705E-01  0.65001361662E-01  0.51100000000E-03 0.  1.
</event>
<event>
 8    1  0.1051655E+005  0.1043930E+01  0.7957747E-01            NaN
         13   -1    0    0    0    0  0.00000000000E+00  0.00000000000E+00  0.74505805969E-08  0.10566000000E+00  0.10566000000E+00 0.  1.
     999900   -1    0    0    0    0 -0.00000000000E+00 -0.00000000000E+00 -0.74505805969E-08  0.93827000000E+00  0.93827000000E+00 0. -1.
     999902    2    1    2    0    0 -0.12479315820E-01  0.19357976963E-01  0.42913153376E-02  0.10205018122E+01  0.10202328503E+01 0.  0.
     999903    2    3    3    0    0 -0.62572520694E-01  0.12157164510E-02 -0.11364032141E+00  0.13103773664E+00  0.18438206560E-01 0.  0.
         14    1    1    2    0    0  0.12479315820E-01 -0.19357976963E-01 -0.42913153376E-02  0.23428187783E-01  0.00000000000E+00 0. -1.
     999901    1    3    3    0    0  0.50093204874E-01  0.18142260512E-01  0.11793163675E+00  0.88946407557E+00  0.88000000000E+00 0.  1.
        -11    1    4    4    0    0 -0.12781789966E-02  0.35269042841E-02 -0.86415126701E-02  0.94344929702E-02  0.51100000000E-03 0. -1.
         11    1    4    4    0    0 -0.61294341697E-01 -0.23111878331E-02 -0.10499880874E+00  0.12160324367E+00  0.51100000000E-03 0.  1.
</event>
<event>
 8    1  0.1051655E+005  0.1043930E+01  0.7957747E-01            NaN
         13   -1    0    0    0    0  0.00000000000E+00  0.00000000000E+00  0.74505805969E-08  0.10566000000E+00  0.10566000000E+00 0. -1.
     999900   -1    0    0    0    0 -0.00000000000E+00 -0.00000000000E+00 -0.74505805969E-08  0.93827000000E+00  0.93827000000E+00 0.  1.
     999902    2    1    2    0    0  0.21867848420E-01  0.90808094452E-02 -0.64062420223E-02  0.10194003479E+01  0.10191051788E+01 0.  0.
     999903    2    3    3    0    0  0.51557747511E-01  0.11783157349E+00 -0.21552272205E-01  0.13207987536E+00  0.20931125108E-01 0.  0.
         14    1    1    2    0    0 -0.21867848420E-01 -0.90808094452E-02  0.64062420223E-02  0.24529652088E-01  0.00000000000E+00 0. -1.
     999901    1    3    3    0    0 -0.29689899091E-01 -0.10875076404E+00  0.15146030183E-01  0.88732047256E+00  0.88000000000E+00 0. -1.
        -11    1    4    4    0    0  0.22924975237E-01  0.77665612549E-01 -0.13460957842E-01  0.82091171080E-01  0.51100000000E-03 0. -1.
         11    1    4    4    0    0  0.28632772274E-01  0.40165960937E-01 -0.80913143629E-02  0.49988704276E-01  0.51100000000E-03 0.  1.
</event>
<event>
 8    1  0.1051655E+005  0.1043930E+01  0.7957747E-01            NaN
         13   -1    0    0    0    0  0.00000000000E+00  0.00000000000E+00  0.74505805969E-08  0.10566000000E+00  0.10566000000E+00 0.  1.
     999900   -1    0    0    0    0 -0.00000000000E+00 -0.00000000000E+00 -0.74505805969E-08  0.93827000000E+00  0.93827000000E+00 0.  1.
     999902    2    1    2    0    0  0.14727658089E-01  0.10938255773E-01  0.15213248195E-01  0.10200974115E+01  0.10198189725E+01 0.  0.
     999903    2    3    3    0    0  0.31602559421E-01 -0.92583076834E-01  0.84658079009E-01  0.13115196151E+00  0.21529022003E-01 0.  0.
         14    1    1    2    0    0 -0.14727658089E-01 -0.10938255773E-01 -0.15213248195E-01  0.23832588461E-01  0.00000000000E+00 0. -1.
     999901    1    3    3    0    0 -0.16874901333E-01  0.10352133261E+00 -0.69444830815E-01  0.88894545003E+00  0.88000000000E+00 0.  1.
        -11    1    4    4    0    0  0.16958374445E-01 -0.21626827161E-01  0.27322658963E-01  0.38756869464E-01  0.51100000000E-03 0.  1.
         11    1    4    4    0    0  0.14644184976E-01 -0.70956249673E-01  0.57335420046E-01  0.92395092046E-01  0.51100000000E-03 0. -1.
</event>
<event>
 8    1  0.1051655E+005  0.1043930E+01  0.7957747E-01            NaN
         13   -1    0    0    0    0  0.00000000000E+00  0.00000000000E+00  0.74505805969E-08  0.10566000000E+00  0.10566000000E+00 0.  1.
     999900   -1    0    0    0    0 -0.00000000000E+00 -0.00000000000E+00 -0.74505805969E-08  0.93827000000E+00  0.93827000000E+00 0.  1.
     999902    2    1    2    0    0  0.54982396024E-03  0.95937098206E-02 -0.21645127269E-01  0.10202476625E+01  0.10199727642E+01 0.  0.
     999903    2    3    3    0    0  0.70301211080E-02  0.68777756377E-01  0.10699795682E+00  0.12890385191E+00  0.19693600418E-01 0.  0.
         14    1    1    2    0    0 -0.54982396024E-03 -0.95937098206E-02  0.21645127269E-01  0.23682337490E-01  0.00000000000E+00 0. -1.
     999901    1    3    3    0    0 -0.64802971477E-02 -0.59184046556E-01 -0.12864308409E+00  0.89134381060E+00  0.88000000000E+00 0.  1.
        -11    1    4    4    0    0  0.94650040795E-03  0.58781163405E-01  0.78356807986E-01  0.97960050598E-01  0.51100000000E-03 0.  1.
         11    1    4    4    0    0  0.60836207000E-02  0.99965929713E-02  0.28641148834E-01  0.30943801308E-01  0.51100000000E-03 0. -1.
</event>
<event>
 8    1  0.1051655E+005  0.1043930E+01  0.7957747E-01            NaN
         13   -1    0    0    0    0  0.00000000000E+00  0.00000000000E+00  0.74505805969E-08  0.10566000000E+00  0.10566000000E+00 0.  1.
     999900   -1    0    0    0    0 -0.00000000000E+00 -0.00000000000E+00 -0.74505805969E-08  0.93827000000E+00  0.93827000000E+00 0.  1.
     999902    2    1    2    0    0  0.22076576118E-01 -0.58246535370E-02 -0.38751151649E-02  0.10207714526E+01  0.10205087163E+01 0.  0.
     999903    2    3    3    0    0  0.18638229782E-02 -0.91014574628E-01 -0.93326004141E-01  0.13191413016E+00  0.20111391213E-01 0.  0.
         14    1    1    2    0    0 -0.22076576118E-01  0.58246535370E-02  0.38751151649E-02  0.23158547439E-01  0.00000000000E+00 0. -1.
     999901    1    3    3    0    0  0.20212753140E-01  0.85189921091E-01  0.89450888976E-01  0.88885732240E+00  0.88000000000E+00 0.  1.
        -11    1    4    4    0    0  0.10562281202E-01 -0.48861649178E-01 -0.45916960969E-01  0.67879680098E-01  0.51100000000E-03 0.  1.
         11    1    4    4    0    0 -0.86984582234E-02 -0.42152925450E-01 -0.47409043172E-01  0.64034450064E-01  0.51100000000E-03 0. -1.
</event>
<event>
 8    1  0.1051655E+005  0.1043930E+01  0.7957747E-01            NaN
         13   -1    0    0    0    0  0.00000000000E+00  0.00000000000E+00  0.74505805969E-08  0.10566000000E+00  0.10566000000E+00 0. -1.
     999900   -1    0    0    0    0 -0.00000000000E+00 -0.00000000000E+00 -0.74505805969E-08  0.93827000000E+00  0.93827000000E+00 0. -1.
     999902    2    1    2    0    0 -0.19696526361E-01 -0.19139505973E-02 -0.94370789049E-02  0.10220057026E+01  0.10217705131E+01 0.  0.
     999903    2    3    3    0    0 -0.70550368828E-01  0.10111740064E+00 -0.47565414251E-01  0.13371783115E+00  0.20393785372E-01 0.  0.
         14    1    1    2    0    0  0.19696526361E-01  0.19139505973E-02  0.94370789049E-02  0.21924297385E-01  0.00000000000E+00 0. -1.
     999901    1    3    3    0    0  0.50853842467E-01 -0.10303135123E+00  0.38128335346E-01  0.88828787146E+00  0.88000000000E+00 0.  1.
        -11    1    4    4    0    0 -0.45304908995E-01  0.69328734135E-01 -0.21824450165E-01  0.85647976636E-01  0.51100000000E-03 0. -1.
         11    1    4    4    0    0 -0.25245459833E-01  0.31788666502E-01 -0.25740964086E-01  0.48069854517E-01  0.51100000000E-03 0.  1.
</event>
<event>
 8    1  0.1051655E+005  0.1043930E+01  0.7957747E-01            NaN
         13   -1    0    0    0    0  0.00000000000E+00  0.00000000000E+00  0.74505805969E-08  0.10566000000E+00  0.10566000000E+00 0. -1.
     999900   -1    0    0    0    0 -0.00000000000E+00 -0.00000000000E+00 -0.74505805969E-08  0.93827000000E+00  0.93827000000E+00 0.  1.
     999902    2    1    2    0    0 -0.40422359512E-02  0.22184658773E-01 -0.79170284957E-02  0.10200306674E+01  0.10197506482E+01 0.  0.
     999903    2    3    3    0    0 -0.11444713216E+00  0.23187709055E-01  0.55650192348E-01  0.13085630952E+00  0.19763955149E-01 0.  0.
         14    1    1    2    0    0  0.40422359512E-02 -0.22184658773E-01  0.79170284957E-02  0.23899332555E-01  0.00000000000E+00 0.  1.
     999901    1    3    3    0    0  0.11040489621E+00 -0.10030502816E-02 -0.63567220843E-01  0.88917435792E+00  0.88000000000E+00 0.  1.
        -11    1    4    4    0    0 -0.83202539518E-01  0.16748135288E-01  0.49844145817E-01  0.98426940474E-01  0.51100000000E-03 0.  1.
         11    1    4    4    0    0 -0.31244592643E-01  0.64395737674E-02  0.58060465305E-02  0.32429369051E-01  0.51100000000E-03 0. -1.
</event>
<event>
 8    1  0.1051655E+005  0.1043930E+01  0.7957747E-01            NaN
         13   -1    0    0    0    0  0.00000000000E+00  0.00000000000E+00  0.74505805969E-08  0.10566000000E+00  0.10566000000E+00 0. -1.
     999900   -1    0    0    0    0 -0.00000000000E+00 -0.00000000000E+00 -0.74505805969E-08  0.93827000000E+00  0.93827000000E+00 0.  1.
     999902    2    1    2    0    0  0.21138108296E-01  0.70499185124E-02 -0.94415247566E-02  0.10197295173E+01  0.10194423108E+01 0.  0.
     999903    2    3    3    0    0  0.18825450591E-01 -0.12378918522E+00  0.25110417141E-01  0.12938236245E+00  0.20763012748E-01 0.  0.
         14    1    1    2    0    0 -0.21138108296E-01 -0.70499185124E-02  0.94415247566E-02  0.24200482703E-01  0.00000000000E+00 0. -1.
     999901    1    3    3    0    0  0.23126577046E-02  0.13083910373E+00 -0.34551941898E-01  0.89034715484E+00  0.88000000000E+00 0.  1.
        -11    1    4    4    0    0  0.20595642754E-01 -0.99391460281E-01  0.26400050181E-01  0.10488120255E+00  0.51100000000E-03 0. -1.
         11    1    4    4    0    0 -0.17701921633E-02 -0.24397724935E-01 -0.12896330404E-02  0.24501159904E-01  0.51100000000E-03 0.  1.
</event>
<event>
 8    1  0.1051655E+005  0.1043930E+01  0.7957747E-01            NaN
         13   -1    0    0    0    0  0.00000000000E+00  0.00000000000E+00  0.74505805969E-08  0.10566000000E+00  0.10566000000E+00 0. -1.
     999900   -1    0    0    0    0 -0.00000000000E+00 -0.00000000000E+00 -0.74505805969E-08  0.93827000000E+00  0.93827000000E+00 0. -1.
     999902    2    1    2    0    0  0.10305767349E-01  0.10960757365E-01 -0.19832480440E-01  0.10190367414E+01  0.10187326470E+01 0.  0.
     999903    2    3    3    0    0  0.12241183188E+00 -0.32842220298E-01 -0.85261777511E-02  0.13077197062E+00  0.31069994759E-01 0.  0.
         14    1    1    2    0    0 -0.10305767349E-01 -0.10960757365E-01  0.19832480440E-01  0.24893258587E-01  0.00000000000E+00 0.  1.
     999901    1    3    3    0    0 -0.11210606453E+00  0.43802977663E-01 -0.11306302689E-01  0.88826477080E+00  0.88000000000E+00 0. -1.
        -11    1    4    4    0    0  0.60162006808E-01 -0.32176558680E-01 -0.52769027560E-02  0.68431752976E-01  0.51100000000E-03 0. -1.
         11    1    4    4    0    0  0.62249825069E-01 -0.66566161856E-03 -0.32492749951E-02  0.62340217641E-01  0.51100000000E-03 0.  1.
</event>
<event>
 8    1  0.1051655E+005  0.1043930E+01  0.7957747E-01            NaN
         13   -1    0    0    0    0  0.00000000000E+00  0.00000000000E+00  0.74505805969E-08  0.10566000000E+00  0.10566000000E+00 0. -1.
     999900   -1    0    0    0    0 -0.00000000000E+00 -0.00000000000E+00 -0.74505805969E-08  0.93827000000E+00  0.93827000000E+00 0.  1.
     999902    2    1    2    0    0 -0.18764035216E-01  0.31531191593E-02 -0.13920193349E-01  0.10203545263E+01  0.10200821322E+01 0.  0.
     999903    2    3    3    0    0  0.45155649766E-01  0.57978905424E-01  0.10363515187E+00  0.12855250108E+00  0.19619241868E-01 0.  0.
         14    1    1    2    0    0  0.18764035216E-01 -0.31531191593E-02  0.13920193349E-01  0.23575473715E-01  0.00000000000E+00 0. -1.
     999901    1    3    3    0    0 -0.63919684982E-01 -0.54825786265E-01 -0.11755534522E+00  0.89180202520E+00  0.88000000000E+00 0.  1.
        -11    1    4    4    0    0  0.11532359521E-01  0.71245596997E-02  0.30208135101E-01  0.33114154289E-01  0.51100000000E-03 0.  1.
         11    1    4    4    0    0  0.33623290245E-01  0.50854345724E-01  0.73427016768E-01  0.95438346792E-01  0.51100000000E-03 0. -1.
</event>
<event>
 8    1  0.1285438E+005  0.1043930E+01  0.7957747E-01            NaN
         13   -1    0    0    0    0  0.00000000000E+00  0.00000000000E+00  0.74505805969E-08  0.10566000000E+00  0.10566000000E+00 0.  1.
     999900   -1    0    0    0    0 -0.00000000000E+00 -0.00000000000E+00 -0.74505805969E-08  0.93827000000E+00  0.93827000000E+00 0.  1.
     999902    2    1    2    0    0  0.23437093139E-02 -0.15915532048E-01 -0.16300984083E-01  0.10210276155E+01  0.10207707247E+01 0.  0.
     999903    2    3    3    0    0  0.11855516518E+00  0.47138638055E-01 -0.22964911992E-01  0.13112574519E+00  0.19728037949E-01 0.  0.
         14    1    1    2    0    0 -0.23437093139E-02  0.15915532048E-01  0.16300984083E-01  0.22902384500E-01  0.00000000000E+00 0.  1.
     999901    1    3    3    0    0 -0.11621145586E+00 -0.63054170103E-01  0.66639279093E-02  0.88990187031E+00  0.88000000000E+00 0. -1.
        -11    1    4    4    0    0  0.47854138411E-01  0.16073454322E-01  0.25243403875E-03  0.50484644604E-01  0.51100000000E-03 0. -1.
         11    1    4    4    0    0  0.70701026768E-01  0.31065183733E-01 -0.23217346031E-01  0.80641100588E-01  0.51100000000E-03 0.  1.
</event>
<event>
 8    1  0.1051655E+005  0.1043930E+01  0.7957747E-01            NaN
         13   -1    0    0    0    0  0.00000000000E+00  0.00000000000E+00  0.74505805969E-08  0.10566000000E+00  0.10566000000E+00 0.  1.
     999900   -1    0    0    0    0 -0.00000000000E+00 -0.00000000000E+00 -0.74505805969E-08  0.93827000000E+00  0.93827000000E+00 0.  1.
     999902    2    1    2    0    0 -0.20519957365E-01 -0.95348342493E-02 -0.85351411179E-02  0.10197467341E+01  0.10194599411E+01 0.  0.
     999903    2    3    3    0    0  0.82301706933E-01  0.89239396134E-01 -0.35217232973E-01  0.12787197988E+00  0.19332587864E-01 0.  0.
         14    1    1    2    0    0  0.20519957365E-01  0.95348342493E-02  0.85351411179E-02  0.24183265874E-01  0.00000000000E+00 0.  1.
     999901    1    3    3    0    0 -0.10282166430E+00 -0.98774230384E-01  0.26682091855E-01  0.89187475425E+00  0.88000000000E+00 0. -1.
        -11    1    4    4    0    0  0.15501617089E-02 -0.55154097553E-03  0.73304506051E-03  0.18723447418E-02  0.51100000000E-03 0. -1.
         11    1    4    4    0    0  0.80751545224E-01  0.89790937110E-01 -0.35950278033E-01  0.12599963514E+00  0.51100000000E-03 0.  1.
</event>
<event>
 8    1  0.1051655E+005  0.1043930E+01  0.7957747E-01            NaN
         13   -1    0    0    0    0  0.00000000000E+00  0.00000000000E+00  0.74505805969E-08  0.10566000000E+00  0.10566000000E+00 0.  1.
     999900   -1    0    0    0    0 -0.00000000000E+00 -0.00000000000E+00 -0.74505805969E-08  0.93827000000E+00  0.93827000000E+00 0. -1.
     999902    2    1    2    0    0 -0.17968244054E-01 -0.11069349521E-01 -0.95838938301E-02  0.10207515765E+01  0.10204883839E+01 0.  0.
     999903    2    3    3    0    0 -0.12711834659E+00 -0.27713179756E-02  0.32663273753E-01  0.13296363712E+00  0.21111255279E-01 0.  0.
         14    1    1    2    0    0  0.17968244054E-01  0.11069349521E-01  0.95838938301E-02  0.23178423461E-01  0.00000000000E+00 0.  1.
     999901    1    3    3    0    0  0.10915010254E+00 -0.82980315451E-02 -0.42247167583E-01  0.88778793942E+00  0.88000000000E+00 0. -1.
        -11    1    4    4    0    0 -0.87897173413E-01  0.30341476280E-03  0.12597023919E-01  0.88797248196E-01  0.51100000000E-03 0. -1.
         11    1    4    4    0    0 -0.39221173181E-01 -0.30747327384E-02  0.20066249834E-01  0.44166388923E-01  0.51100000000E-03 0.  1.
</event>
<event>
 8    1  0.1051655E+005  0.1043930E+01  0.7957747E-01            NaN
         13   -1    0    0    0    0  0.00000000000E+00  0.00000000000E+00  0.74505805969E-08  0.10566000000E+00  0.10566000000E+00 0.  1.
     999900   -1    0    0    0    0 -0.00000000000E+00 -0.00000000000E+00 -0.74505805969E-08  0.93827000000E+00  0.93827000000E+00 0. -1.
     999902    2    1    2    0    0  0.18220024618E-01  0.72308358102E-02 -0.22183640238E-01  0.10143264837E+01  0.10138943965E+01 0.  0.
     999903    2    3    3    0    0  0.32206263345E-01  0.11936300570E+00 -0.21447960229E-01  0.12710059384E+00  0.20242910581E-01 0.  0.
         14    1    1    2    0    0 -0.18220024618E-01 -0.72308358102E-02  0.22183640238E-01  0.29603516308E-01  0.00000000000E+00 0.  1.
     999901    1    3    3    0    0 -0.13986238727E-01 -0.11213216989E+00 -0.73568000927E-03  0.88722588985E+00  0.88000000000E+00 0. -1.
        -11    1    4    4    0    0  0.23908934994E-01  0.62738072630E-01 -0.19165478661E-01  0.69823202614E-01  0.51100000000E-03 0.  1.
         11    1    4    4    0    0  0.82973283510E-02  0.56624933067E-01 -0.22824815680E-02  0.57277391227E-01  0.51100000000E-03 0. -1.
</event>
<event>
 8    1  0.1051655E+005  0.1043930E+01  0.7957747E-01            NaN
         13   -1    0    0    0    0  0.00000000000E+00  0.00000000000E+00  0.74505805969E-08  0.10566000000E+00  0.10566000000E+00 0. -1.
     999900   -1    0    0    0    0 -0.00000000000E+00 -0.00000000000E+00 -0.74505805969E-08  0.93827000000E+00  0.93827000000E+00 0. -1.
     999902    2    1    2    0    0  0.11840879694E-01  0.20456943472E-01  0.45392842914E-03  0.10202889548E+01  0.10200150255E+01 0.  0.
     999903    2    3    3    0    0  0.90730557940E-01  0.12460414345E-01  0.92706416449E-01  0.13192076120E+00  0.20525874298E-01 0.  0.
         14    1    1    2    0    0 -0.11840879694E-01 -0.20456943472E-01 -0.45392842914E-03  0.23641045222E-01  0.00000000000E+00 0.  1.
     999901    1    3    3    0    0 -0.78889678245E-01  0.79965291267E-02 -0.92252488019E-01  0.88836819358E+00  0.88000000000E+00 0. -1.
        -11    1    4    4    0    0  0.56250209757E-01  0.63887307209E-02  0.42872519446E-01  0.71015604078E-01  0.51100000000E-03 0. -1.
         11    1    4    4    0    0  0.34480348183E-01  0.60716836246E-02  0.49833897002E-01  0.60905157124E-01  0.51100000000E-03 0.  1.
</event>
<event>
 8    1  0.1051655E+005  0.1043930E+01  0.7957747E-01            NaN
         13   -1    0    0    0    0  0.00000000000E+00  0.00000000000E+00  0.74505805969E-08  0.10566000000E+00  0.10566000000E+00 0. -1.
     999900   -1    0    0    0    0 -0.00000000000E+00 -0.00000000000E+00 -0.74505805969E-08  0.93827000000E+00  0.93827000000E+00 0.  1.
     999902    2    1    2    0    0 -0.15733971757E-01 -0.89412432900E-02  0.16896285532E-01  0.10191714022E+01  0.10188706292E+01 0.  0.
     999903    2    3    3    0    0  0.93835112019E-01 -0.17584789608E-01  0.85447245631E-01  0.12968878343E+00  0.20092179792E-01 0.  0.
         14    1    1    2    0    0  0.15733971757E-01  0.89412432900E-02 -0.16896285532E-01  0.24758597771E-01  0.00000000000E+00 0.  1.
     999901    1    3    3    0    0 -0.10956908378E+00  0.86435463185E-02 -0.68550960099E-01  0.88948261880E+00  0.88000000000E+00 0.  1.
        -11    1    4    4    0    0  0.69859062647E-01 -0.20254844417E-01  0.70545425631E-01  0.10132850317E+00  0.51100000000E-03 0. -1.
         11    1    4    4    0    0  0.23976049372E-01  0.26700548090E-02  0.14901820000E-01  0.28360280261E-01  0.51100000000E-03 0.  1.
</event>
<event>
 8    1  0.1051655E+005  0.1043930E+01  0.7957747E-01            NaN
         13   -1    0    0    0    0  0.00000000000E+00  0.00000000000E+00  0.74505805969E-08  0.10566000000E+00  0.10566000000E+00 0.  1.
     999900   -1    0    0    0    0 -0.00000000000E+00 -0.00000000000E+00 -0.74505805969E-08  0.93827000000E+00  0.93827000000E+00 0. -1.
     999902    2    1    2    0    0  0.32057536844E-02 -0.16494671831E-01 -0.16533327039E-01  0.10203566685E+01  0.10200843244E+01 0.  0.
     999903    2    3    3    0    0 -0.81087962116E-01  0.79704706481E-01  0.55916756450E-01  0.12816343521E+00  0.19263557245E-01 0.  0.
         14    1    1    2    0    0 -0.32057536844E-02  0.16494671831E-01  0.16533327039E-01  0.23573331511E-01  0.00000000000E+00 0.  1.
     999901    1    3    3    0    0  0.84293715800E-01 -0.96199378313E-01 -0.72450083489E-01  0.89219323328E+00  0.88000000000E+00 0. -1.
        -11    1    4    4    0    0 -0.30072722579E-01  0.41749132575E-01  0.20593924377E-01  0.55423186089E-01  0.51100000000E-03 0.  1.
         11    1    4    4    0    0 -0.51015239537E-01  0.37955573907E-01  0.35322832072E-01  0.72740249121E-01  0.51100000000E-03 0. -1.
</event>
<event>
 8    1  0.1051655E+005  0.1043930E+01  0.7957747E-01            NaN
         13   -1    0    0    0    0  0.00000000000E+00  0.00000000000E+00  0.74505805969E-08  0.10566000000E+00  0.10566000000E+00 0. -1.
     999900   -1    0    0    0    0 -0.00000000000E+00 -0.00000000000E+00 -0.74505805969E-08  0.93827000000E+00  0.93827000000E+00 0. -1.
     999902    2    1    2    0    0 -0.24487519435E-01 -0.56222606002E-02 -0.54143389689E-02  0.10182285703E+01  0.10179041497E+01 0.  0.
     999903    2    3    3    0    0 -0.97435448963E-01 -0.20251896836E-01  0.82308296310E-01  0.13074297187E+00  0.20378003121E-01 0.  0.
         14    1    1    2    0    0  0.24487519435E-01  0.56222606002E-02  0.54143389689E-02  0.25701429704E-01  0.00000000000E+00 0.  1.
     999901    1    3    3    0    0  0.72947929528E-01  0.14629636236E-01 -0.87722635278E-01  0.88748559843E+00  0.88000000000E+00 0. -1.
        -11    1    4    4    0    0 -0.16365995365E-01 -0.39004696875E-02  0.24945628359E-01  0.30093271064E-01  0.51100000000E-03 0.  1.
         11    1    4    4    0    0 -0.81069453598E-01 -0.16351427148E-01  0.57362667950E-01  0.10064970080E+00  0.51100000000E-03 0. -1.
</event>
<event>
 8    1  0.1051655E+005  0.1043930E+01  0.7957747E-01            NaN
         13   -1    0    0    0    0  0.00000000000E+00  0.00000000000E+00  0.74505805969E-08  0.10566000000E+00  0.10566000000E+00 0.  1.
     999900   -1    0    0    0    0 -0.00000000000E+00 -0.00000000000E+00 -0.74505805969E-08  0.93827000000E+00  0.93827000000E+00 0.  1.
     999902    2    1    2    0    0 -0.23014348810E-02  0.22369702906E-01 -0.63054854670E-02  0.10205749287E+01  0.10203076622E+01 0.  0.
     999903    2    3    3    0    0  0.89805300939E-02 -0.11488217301E+00 -0.53456570534E-01  0.12861720264E+00  0.20154807994E-01 0.  0.
         14    1    1    2    0    0  0.23014348810E-02 -0.22369702906E-01  0.63054854670E-02  0.23355071347E-01  0.00000000000E+00 0.  1.
     999901    1    3    3    0    0 -0.11281964975E-01  0.13725187591E+00  0.47151085067E-01  0.89195772602E+00  0.88000000000E+00 0. -1.
        -11    1    4    4    0    0  0.95784108259E-03 -0.14107658295E-01 -0.14546692671E-01  0.20293123731E-01  0.51100000000E-03 0. -1.
         11    1    4    4    0    0  0.80226890113E-02 -0.10077451471E+00 -0.38909877863E-01  0.10832407891E+00  0.51100000000E-03 0.  1.
</event>
<event>
 8    1  0.1051655E+005  0.1043930E+01  0.7957747E-01            NaN
         13   -1    0    0    0    0  0.00000000000E+00  0.00000000000E+00  0.74505805969E-08  0.10566000000E+00  0.10566000000E+00 0.  1.
     999900   -1    0    0    0    0 -0.00000000000E+00 -0.00000000000E+00 -0.74505805969E-08  0.93827000000E+00  0.93827000000E+00 0.  1.
     999902    2    1    2    0    0  0.78419012701E-02 -0.14959887861E-01  0.16309435714E-01  0.10204504056E+01  0.10201802482E+01 0.  0.
     999903    2    3    3    0    0 -0.21060487176E-01 -0.75954094295E-01 -0.10120742058E+00  0.13007640957E+00  0.21549055340E-01 0.  0.
         14    1    1    2    0    0 -0.78419012701E-02  0.14959887861E-01 -0.16309435714E-01  0.23479594410E-01  0.00000000000E+00 0. -1.
     999901    1    3    3    0    0  0.28902388446E-01  0.60994206434E-01  0.11751685629E+00  0.89037399602E+00  0.88000000000E+00 0. -1.
        -11    1    4    4    0    0 -0.22160793602E-02 -0.44168169000E-01 -0.62444904442E-01  0.76520359201E-01  0.51100000000E-03 0. -1.
         11    1    4    4    0    0 -0.18844407816E-01 -0.31785925295E-01 -0.38762516136E-01  0.53556050368E-01  0.51100000000E-03 0.  1.
</event>
<event>
 8    1  0.1051655E+005  0.1043930E+01  0.7957747E-01            NaN
         13   -1    0    0    0    0  0.00000000000E+00  0.00000000000E+00  0.74505805969E-08  0.10566000000E+00  0.10566000000E+00 0.  1.
     999900   -1    0    0    0    0 -0.00000000000E+00 -0.00000000000E+00 -0.74505805969E-08  0.93827000000E+00  0.93827000000E+00 0.  1.
     999902    2    1    2    0    0  0.14976912931E-01  0.16187466855E-01  0.96547710311E-02  0.10198560180E+01  0.10195718420E+01 0.  0.
     999903    2    3    3    0    0 -0.83208179263E-01 -0.76768214229E-01  0.56647970267E-01  0.12829029878E+00  0.20795394036E-01 0.  0.
         14    1    1    2    0    0 -0.14976912931E-01 -0.16187466855E-01 -0.96547710311E-02  0.24073981967E-01  0.00000000000E+00 0. -1.
     999901    1    3    3    0    0  0.98185092193E-01  0.92955681084E-01 -0.46993199236E-01  0.89156571925E+00  0.88000000000E+00 0.  1.
        -11    1    4    4    0    0 -0.40400276714E-01 -0.23865521148E-01  0.26075320400E-01  0.53683600040E-01  0.51100000000E-03 0.  1.
         11    1    4    4    0    0 -0.42807902549E-01 -0.52902693080E-01  0.30572649867E-01  0.74606698739E-01  0.51100000000E-03 0. -1.
</event>
<event>
 8    1  0.1051655E+005  0.1043930E+01  0.7957747E-01            NaN
         13   -1    0    0    0    0  0.00000000000E+00  0.00000000000E+00  0.74505805969E-08  0.10566000000E+00  0.10566000000E+00 0.  1.
     999900   -1    0    0    0    0 -0.00000000000E+00 -0.00000000000E+00 -0.74505805969E-08  0.93827000000E+00  0.93827000000E+00 0. -1.
     999902    2    1    2    0    0 -0.36178897204E-03 -0.25375015393E-02 -0.28161137250E-01  0.10156524567E+01  0.10152587322E+01 0.  0.
     999903    2    3    3    0    0  0.41472883755E-01 -0.57816789227E-01  0.99520300515E-01  0.12373963076E+00  0.18558685337E-01 0.  0.
         14    1    1    2    0    0  0.36178897204E-03  0.25375015393E-02  0.28161137250E-01  0.28277543326E-01  0.00000000000E+00 0.  1.
     999901    1    3    3    0    0 -0.41834672727E-01  0.55279287688E-01 -0.12768143776E+00  0.89191282592E+00  0.88000000000E+00 0. -1.
        -11    1    4    4    0    0  0.94867533058E-02 -0.28831652072E-01  0.42027727034E-01  0.51844513790E-01  0.51100000000E-03 0. -1.
         11    1    4    4    0    0  0.31986130449E-01 -0.28985137155E-01  0.57492573480E-01  0.71895116965E-01  0.51100000000E-03 0.  1.
</event>
<event>
 8    1  0.1051655E+005  0.1043930E+01  0.7957747E-01            NaN
         13   -1    0    0    0    0  0.00000000000E+00  0.00000000000E+00  0.74505805969E-08  0.10566000000E+00  0.10566000000E+00 0. -1.
     999900   -1    0    0    0    0 -0.00000000000E+00 -0.00000000000E+00 -0.74505805969E-08  0.93827000000E+00  0.93827000000E+00 0.  1.
     999902    2    1    2    0    0 -0.25157590769E-01  0.13538177293E-02  0.75567640322E-02  0.10176271127E+01  0.10172871270E+01 0.  0.
     999903    2    3    3    0    0  0.60385627888E-01 -0.10646808323E+00  0.26141293080E-01  0.12673509386E+00  0.19913312330E-01 0.  0.
         14    1    1    2    0    0  0.25157590769E-01 -0.13538177293E-02 -0.75567640322E-02  0.26302887263E-01  0.00000000000E+00 0.  1.
     999901    1    3    3    0    0 -0.85543218657E-01  0.10782190096E+00 -0.18584529048E-01  0.89089201888E+00  0.88000000000E+00 0.  1.
        -11    1    4    4    0    0  0.28885196345E-01 -0.69817050624E-01  0.18668944407E-01  0.77830365103E-01  0.51100000000E-03 0. -1.
         11    1    4    4    0    0  0.31500431543E-01 -0.36651032609E-01  0.74723486729E-02  0.48904728753E-01  0.51100000000E-03 0.  1.
</event>
<event>
 8    1  0.1051655E+005  0.1043930E+01  0.7957747E-01            NaN
         13   -1    0    0    0    0  0.00000000000E+00  0.00000000000E+00  0.74505805969E-08  0.10566000000E+00  0.10566000000E+00 0. -1.
     999900   -1    0    0    0    0 -0.00000000000E+00 -0.00000000000E+00 -0.74505805969E-08  0.93827000000E+00  0.93827000000E+00 0. -1.
     999902    2    1    2    0    0  0.13401428980E-01  0.16460572161E-01 -0.10983811402E-01  0.10200303588E+01  0.10197503322E+01 0.  0.
     999903    2    3    3    0    0  0.42622432122E-01 -0.12001499411E+00 -0.64055826672E-03  0.12897119689E+00  0.20319664915E-01 0.  0.
         14    1    1    2    0    0 -0.13401428980E-01 -0.16460572161E-01  0.10983811402E-01  0.23899641158E-01  0.00000000000E+00 0. -1.
     999901    1    3    3    0    0 -0.29221003142E-01  0.13647556627E+00 -0.10343253136E-01  0.89105916195E+00  0.88000000000E+00 0. -1.
        -11    1    4    4    0    0  0.31536016204E-01 -0.10811225507E+00  0.91731133739E-03  0.11262274457E+00  0.51100000000E-03 0. -1.
         11    1    4    4    0    0  0.11086415918E-01 -0.11902739040E-01 -0.15578696041E-02  0.16348452321E-01  0.51100000000E-03 0.  1.
</event>
<event>
 8    1  0.1051655E+005  0.1043930E+01  0.7957747E-01            NaN
         13   -1    0    0    0    0  0.00000000000E+00  0.00000000000E+00  0.74505805969E-08  0.10566000000E+00  0.10566000000E+00 0.  1.
     999900   -1    0    0    0    0 -0.00000000000E+00 -0.00000000000E+00 -0.74505805969E-08  0.93827000000E+00  0.93827000000E+00 0. -1.
     999902    2    1    2    0    0  0.87224154959E-02  0.10801688936E-01  0.19101566284E-01  0.10203158760E+01  0.10200425776E+01 0.  0.
     999903    2    3    3    0    0 -0.17350288501E-02 -0.62535639824E-01  0.11485176632E+00  0.13202773431E+00  0.18074231021E-01 0.  0.
         14    1    1    2    0    0 -0.87224154959E-02 -0.10801688936E-01 -0.19101566284E-01  0.23614123961E-01  0.00000000000E+00 0. -1.
     999901    1    3    3    0    0  0.10457444346E-01  0.73337328759E-01 -0.95750200034E-01  0.88828814173E+00  0.88000000000E+00 0. -1.
        -11    1    4    4    0    0 -0.87719780335E-02 -0.19694188752E-01  0.34202384530E-01  0.40433561527E-01  0.51100000000E-03 0.  1.
         11    1    4    4    0    0  0.70369491835E-02 -0.42841451072E-01  0.80649381788E-01  0.91594172782E-01  0.51100000000E-03 0. -1.
</event>
<event>
 8    1  0.1051655E+005  0.1043930E+01  0.7957747E-01            NaN
         13   -1    0    0    0    0  0.00000000000E+00  0.00000000000E+00  0.74505805969E-08  0.10566000000E+00  0.10566000000E+00 0. -1.
     999900   -1    0    0    0    0 -0.00000000000E+00 -0.00000000000E+00 -0.74505805969E-08  0.93827000000E+00  0.93827000000E+00 0. -1.
     999902    2    1    2    0    0  0.96982650253E-02 -0.16782040861E-01 -0.17985500911E-01  0.10174881490E+01  0.10171445138E+01 0.  0.
     999903    2    3    3    0    0  0.17284272267E-01  0.46263206711E-01 -0.11809062312E+00  0.12953922806E+00  0.19899396337E-01 0.  0.
         14    1    1    2    0    0 -0.96982650253E-02  0.16782040861E-01  0.17985500911E-01  0.26441850975E-01  0.00000000000E+00 0. -1.
     999901    1    3    3    0    0 -0.75860072417E-02 -0.63045247571E-01  0.10010512221E+00  0.88794892096E+00  0.88000000000E+00 0.  1.
        -11    1    4    4    0    0  0.16848987983E-01  0.48233039026E-01 -0.11202863948E+00  0.12312997861E+00  0.51100000000E-03 0.  1.
         11    1    4    4    0    0  0.43528428392E-03 -0.19698323151E-02 -0.60619836465E-02  0.64092494481E-02  0.51100000000E-03 0. -1.
</event>
<event>
 8    1  0.1051655E+005  0.1043930E+01  0.7957747E-01            NaN
         13   -1    0    0    0    0  0.00000000000E+00  0.00000000000E+00  0.74505805969E-08  0.10566000000E+00  0.10566000000E+00 0.  1.
     999900   -1    0    0    0    0 -0.00000000000E+00 -0.00000000000E+00 -0.74505805969E-08  0.93827000000E+00  0.93827000000E+00 0. -1.
     999902    2    1    2    0    0 -0.20469894840E-01  0.12129514941E-01  0.30410063478E-02  0.10199427232E+01  0.10196606147E+01 0.  0.
     999903    2    3    3    0    0  0.46372885075E-01  0.10472434412E+00  0.59298617926E-01  0.13078206368E+00  0.21679238289E-01 0.  0.
         14    1    1    2    0    0  0.20469894840E-01 -0.12129514941E-01 -0.30410063478E-02  0.23987276774E-01  0.00000000000E+00 0.  1.
     999901    1    3    3    0    0 -0.66842779915E-01 -0.92594829175E-01 -0.56257611578E-01  0.88916065954E+00  0.88000000000E+00 0. -1.
        -11    1    4    4    0    0  0.38364049099E-01  0.61426427185E-01  0.34154580283E-01  0.80073732867E-01  0.51100000000E-03 0.  1.
         11    1    4    4    0    0  0.80088359769E-02  0.43297916930E-01  0.25144037643E-01  0.50708330816E-01  0.51100000000E-03 0. -1.
</event>
<event>
 8    1  0.1051655E+005  0.1043930E+01  0.7957747E-01            NaN
         13   -1    0    0    0    0  0.00000000000E+00  0.00000000000E+00  0.74505805969E-08  0.10566000000E+00  0.10566000000E+00 0. -1.
     999900   -1    0    0    0    0 -0.00000000000E+00 -0.00000000000E+00 -0.74505805969E-08  0.93827000000E+00  0.93827000000E+00 0.  1.
     999902    2    1    2    0    0 -0.22516541219E-02  0.21445479383E-01 -0.88424734981E-02  0.10206240379E+01  0.10203579072E+01 0.  0.
     999903    2    3    3    0    0  0.27156536425E-01  0.51109880061E-01  0.11567300087E+00  0.13087748876E+00  0.19974399212E-01 0.  0.
         14    1    1    2    0    0  0.22516541219E-02 -0.21445479383E-01  0.88424734981E-02  0.23305962109E-01  0.00000000000E+00 0. -1.
     999901    1    3    3    0    0 -0.29408190547E-01 -0.29664400678E-01 -0.12451547436E+00  0.88974654913E+00  0.88000000000E+00 0.  1.
        -11    1    4    4    0    0  0.18619474638E-01  0.31722407165E-01  0.92129733060E-01  0.99202544256E-01  0.51100000000E-03 0. -1.
         11    1    4    4    0    0  0.85370617876E-02  0.19387472895E-01  0.23543267805E-01  0.31674944502E-01  0.51100000000E-03 0.  1.
</event>
<event>
 8    1  0.1051655E+005  0.1043930E+01  0.7957747E-01            NaN
         13   -1    0    0    0    0  0.00000000000E+00  0.00000000000E+00  0.74505805969E-08  0.10566000000E+00  0.10566000000E+00 0. -1.
     999900   -1    0    0    0    0 -0.00000000000E+00 -0.00000000000E+00 -0.74505805969E-08  0.93827000000E+00  0.93827000000E+00 0.  1.
     999902    2    1    2    0    0 -0.21062260119E-01  0.69514861756E-02 -0.75400583403E-02  0.10205036379E+01  0.10202347184E+01 0.  0.
     999903    2    3    3    0    0 -0.12051045790E+00  0.15108494344E-01 -0.53152248391E-01  0.13369083200E+00  0.17234848043E-01 0.  0.
         14    1    1    2    0    0  0.21062260119E-01 -0.69514861756E-02  0.75400583403E-02  0.23426362098E-01  0.00000000000E+00 0.  1.
     999901    1    3    3    0    0  0.99448197785E-01 -0.81570081689E-02  0.45612190051E-01  0.88681280590E+00  0.88000000000E+00 0. -1.
        -11    1    4    4    0    0 -0.85596399970E-02  0.24421418605E-02 -0.90391651540E-02  0.12696421599E-01  0.51100000000E-03 0.  1.
         11    1    4    4    0    0 -0.11195081791E+00  0.12666352484E-01 -0.44113083237E-01  0.12099441040E+00  0.51100000000E-03 0. -1.
</event>
<event>
 8    1  0.1051655E+005  0.1043930E+01  0.7957747E-01            NaN
         13   -1    0    0    0    0  0.00000000000E+00  0.00000000000E+00  0.74505805969E-08  0.10566000000E+00  0.10566000000E+00 0. -1.
     999900   -1    0    0    0    0 -0.00000000000E+00 -0.00000000000E+00 -0.74505805969E-08  0.93827000000E+00  0.93827000000E+00 0.  1.
     999902    2    1    2    0    0  0.16643843517E-01  0.17185162908E-01  0.21450975442E-02  0.10199102416E+01  0.10196273594E+01 0.  0.
     999903    2    3    3    0    0 -0.10407294143E-02 -0.76042298316E-01  0.10246104508E+00  0.12914237452E+00  0.19899067510E-01 0.  0.
         14    1    1    2    0    0 -0.16643843517E-01 -0.17185162908E-01 -0.21450975442E-02  0.24019758423E-01  0.00000000000E+00 0.  1.
     999901    1    3    3    0    0  0.17684572931E-01  0.93227461224E-01 -0.10031594754E+00  0.89076786705E+00  0.88000000000E+00 0.  1.
        -11    1    4    4    0    0  0.68860470043E-02 -0.20798409641E-01  0.38095267378E-01  0.43948856692E-01  0.51100000000E-03 0.  1.
         11    1    4    4    0    0 -0.79267764186E-02 -0.55243888674E-01  0.64365777702E-01  0.85193517831E-01  0.51100000000E-03 0. -1.
</event>
<event>
 8    1  0.1051655E+005  0.1043930E+01  0.7957747E-01            NaN
         13   -1    0    0    0    0  0.00000000000E+00  0.00000000000E+00  0.74505805969E-08  0.10566000000E+00  0.10566000000E+00 0.  1.
     999900   -1    0    0    0    0 -0.00000000000E+00 -0.00000000000E+00 -0.74505805969E-08  0.93827000000E+00  0.93827000000E+00 0. -1.
     999902    2    1    2    0    0  0.24223597825E-01  0.98722555012E-02 -0.77642449149E-02  0.10166439666E+01  0.10162777313E+01 0.  0.
     999903    2    3    3    0    0 -0.11472125178E-01 -0.11215204021E+00  0.51294282959E-01  0.12554799920E+00  0.20530632192E-01 0.  0.
         14    1    1    2    0    0 -0.24223597825E-01 -0.98722555012E-02  0.77642449149E-02  0.27286033412E-01  0.00000000000E+00 0. -1.
     999901    1    3    3    0    0  0.35695723003E-01  0.12202429571E+00 -0.59058527874E-01  0.89109596739E+00  0.88000000000E+00 0. -1.
        -11    1    4    4    0    0 -0.14061837649E-01 -0.98586932217E-01  0.50617892263E-01  0.11171190903E+00  0.51100000000E-03 0.  1.
         11    1    4    4    0    0  0.25897124708E-02 -0.13565107995E-01  0.67639069612E-03  0.13836090162E-01  0.51100000000E-03 0. -1.
</event>
<event>
 8    1  0.1183895E+005  0.1043930E+01  0.7957747E-01            NaN
         13   -1    0    0    0    0  0.00000000000E+00  0.00000000000E+00  0.74505805969E-08  0.10566000000E+00  0.10566000000E+00 0.  1.
     999900   -1    0    0    0    0 -0.00000000000E+00 -0.00000000000E+00 -0.74505805969E-08  0.93827000000E+00  0.93827000000E+00 0. -1.
     999902    2    1    2    0    0 -0.22223336959E-01 -0.31161237759E-02  0.68183155741E-02  0.10204762933E+01  0.10202067382E+01 0.  0.
     999903    2    3    3    0    0 -0.96563428378E-01 -0.75306316833E-01 -0.46963806040E-01  0.13276553531E+00  0.20628893146E-01 0.  0.
         14    1    1    2    0    0  0.22223336959E-01  0.31161237759E-02 -0.68183155741E-02  0.23453706749E-01  0.00000000000E+00 0.  1.
     999901    1    3    3    0    0  0.74340091419E-01  0.72190193057E-01  0.53782121614E-01  0.88771075794E+00  0.88000000000E+00 0.  1.
        -11    1    4    4    0    0 -0.55738695144E-01 -0.30574443954E-01 -0.25801472911E-01  0.68611776576E-01  0.51100000000E-03 0.  1.
         11    1    4    4    0    0 -0.40824733234E-01 -0.44731872878E-01 -0.21162333129E-01  0.64153758731E-01  0.51100000000E-03 0. -1.
</event>
<event>
 8    1  0.1051655E+005  0.1043930E+01  0.7957747E-01            NaN
         13   -1    0    0    0    0  0.00000000000E+00  0.00000000000E+00  0.74505805969E-08  0.10566000000E+00  0.10566000000E+00 0.  1.
     999900   -1    0    0    0    0 -0.00000000000E+00 -0.00000000000E+00 -0.74505805969E-08  0.93827000000E+00  0.93827000000E+00 0.  1.
     999902    2    1    2    0    0  0.42164935793E-03  0.56159956168E-02 -0.23162432113E-01  0.10200927297E+01  0.10198141800E+01 0.  0.
     999903    2    3    3    0    0  0.12174432631E+00 -0.39369782367E-01  0.11513608425E-01  0.12995490892E+00  0.19597306430E-01 0.  0.
         14    1    1    2    0    0 -0.42164935793E-03 -0.56159956168E-02  0.23162432113E-01  0.23837270321E-01  0.00000000000E+00 0.  1.
     999901    1    3    3    0    0 -0.12132267696E+00  0.44985777984E-01 -0.34676040538E-01  0.89013782076E+00  0.88000000000E+00 0.  1.
        -11    1    4    4    0    0  0.67139766713E-02 -0.52675492479E-02  0.47602630338E-02  0.97849774130E-02  0.51100000000E-03 0. -1.
         11    1    4    4    0    0  0.11503034964E+00 -0.34102233119E-01  0.67533453912E-02  0.12016993150E+00  0.51100000000E-03 0.  1.
</event>
<event>
 8    1  0.1051655E+005  0.1043930E+01  0.7957747E-01            NaN
         13   -1    0    0    0    0  0.00000000000E+00  0.00000000000E+00  0.74505805969E-08  0.10566000000E+00  0.10566000000E+00 0.  1.
     999900   -1    0    0    0    0 -0.00000000000E+00 -0.00000000000E+00 -0.74505805969E-08  0.93827000000E+00  0.93827000000E+00 0.  1.
     999902    2    1    2    0    0 -0.16831007570E-01 -0.16322060682E-01  0.25920010634E-02  0.10203416353E+01  0.10200689397E+01 0.  0.
     999903    2    3    3    0    0 -0.10340839381E-01 -0.64787682970E-01  0.11283143356E+00  0.13211656734E+00  0.20481165573E-01 0.  0.
         14    1    1    2    0    0  0.16831007570E-01  0.16322060682E-01 -0.25920010634E-02  0.23588364722E-01  0.00000000000E+00 0.  1.
     999901    1    3    3    0    0 -0.64901681898E-02  0.48465622288E-01 -0.11023943250E+00  0.88822506793E+00  0.88000000000E+00 0.  1.
        -11    1    4    4    0    0 -0.51376071347E-02 -0.53250018561E-01  0.74305074403E-01  0.91561261933E-01  0.51100000000E-03 0.  1.
         11    1    4    4    0    0 -0.52032322460E-02 -0.11537664409E-01  0.38526359161E-01  0.40555305412E-01  0.51100000000E-03 0. -1.
</event>
<event>
 8    1  0.1051655E+005  0.1043930E+01  0.7957747E-01            NaN
         13   -1    0    0    0    0  0.00000000000E+00  0.00000000000E+00  0.74505805969E-08  0.10566000000E+00  0.10566000000E+00 0. -1.
     999900   -1    0    0    0    0 -0.00000000000E+00 -0.00000000000E+00 -0.74505805969E-08  0.93827000000E+00  0.93827000000E+00 0. -1.
     999902    2    1    2    0    0  0.16809806598E-01 -0.16819355257E-01 -0.37569119551E-02  0.10198556423E+01  0.10195714573E+01 0.  0.
     999903    2    3    3    0    0 -0.92617295083E-01  0.40847209397E-01 -0.76162678886E-01  0.12826026419E+00  0.20086907449E-01 0.  0.
         14    1    1    2    0    0 -0.16809806598E-01  0.16819355257E-01  0.37569119551E-02  0.24074357656E-01  0.00000000000E+00 0. -1.
     999901    1    3    3    0    0  0.10942710168E+00 -0.57666564654E-01  0.72405766931E-01  0.89159537815E+00  0.88000000000E+00 0.  1.
        -11    1    4    4    0    0 -0.75304125076E-01  0.32493082222E-01 -0.50961238281E-01  0.96559932549E-01  0.51100000000E-03 0.  1.
         11    1    4    4    0    0 -0.17313170007E-01  0.83541271756E-02 -0.25201440605E-01  0.31700331640E-01  0.51100000000E-03 0. -1.
</event>
<event>
 8    1  0.1051655E+005  0.1043930E+01  0.7957747E-01            NaN
         13   -1    0    0    0    0  0.00000000000E+00  0.00000000000E+00  0.74505805969E-08  0.10566000000E+00  0.10566000000E+00 0.  1.
     999900   -1    0    0    0    0 -0.00000000000E+00 -0.00000000000E+00 -0.74505805969E-08  0.93827000000E+00  0.93827000000E+00 0.  1.
     999902    2    1    2    0    0 -0.59319450297E-02 -0.22968617245E-01  0.32284955039E-02  0.10199890616E+01  0.10197080549E+01 0.  0.
     999903    2    3    3    0    0 -0.66123109107E-01  0.81332835533E-01 -0.71794960110E-01  0.12862477679E+00  0.20062931302E-01 0.  0.
         14    1    1    2    0    0  0.59319450297E-02  0.22968617245E-01 -0.32284955039E-02  0.23940938436E-01  0.00000000000E+00 0. -1.
     999901    1    3    3    0    0  0.60191164078E-01 -0.10430145278E+00  0.75023455614E-01  0.89136428478E+00  0.88000000000E+00 0.  1.
        -11    1    4    4    0    0 -0.28262056296E-01  0.23706598947E-01 -0.33055894578E-01  0.49534835692E-01  0.51100000000E-03 0. -1.
         11    1    4    4    0    0 -0.37861052812E-01  0.57626236586E-01 -0.38739065531E-01  0.79089941095E-01  0.51100000000E-03 0.  1.
</event>
<event>
 8    1  0.1051655E+005  0.1043930E+01  0.7957747E-01            NaN
         13   -1    0    0    0    0  0.00000000000E+00  0.00000000000E+00  0.74505805969E-08  0.10566000000E+00  0.10566000000E+00 0. -1.
     999900   -1    0    0    0    0 -0.00000000000E+00 -0.00000000000E+00 -0.74505805969E-08  0.93827000000E+00  0.93827000000E+00 0. -1.
     999902    2    1    2    0    0 -0.13909191924E-01  0.86866090294E-02  0.16564404438E-01  0.10206211542E+01  0.10203549570E+01 0.  0.
     999903    2    3    3    0    0  0.11842417682E+00  0.22222651268E-02 -0.45761063547E-01  0.12852341734E+00  0.19873845837E-01 0.  0.
         14    1    1    2    0    0  0.13909191924E-01 -0.86866090294E-02 -0.16564404438E-01  0.23308845763E-01  0.00000000000E+00 0.  1.
     999901    1    3    3    0    0 -0.13233336875E+00  0.64643439026E-02  0.62325467984E-01  0.89209773690E+00  0.88000000000E+00 0. -1.
        -11    1    4    4    0    0  0.87519811773E-01  0.10189761355E-01 -0.31650887164E-01  0.93624721460E-01  0.51100000000E-03 0. -1.
         11    1    4    4    0    0  0.30904365049E-01 -0.79674962280E-02 -0.14110176382E-01  0.34898695875E-01  0.51100000000E-03 0.  1.
</event>
<event>
 8    1  0.1051655E+005  0.1043930E+01  0.7957747E-01            NaN
         13   -1    0    0    0    0  0.00000000000E+00  0.00000000000E+00  0.74505805969E-08  0.10566000000E+00  0.10566000000E+00 0.  1.
     999900   -1    0    0    0    0 -0.00000000000E+00 -0.00000000000E+00 -0.74505805969E-08  0.93827000000E+00  0.93827000000E+00 0. -1.
     999902    2    1    2    0    0 -0.17367754605E-01 -0.60608194336E-02  0.14520346491E-01  0.10204947084E+01  0.10202255814E+01 0.  0.
     999903    2    3    3    0    0  0.11269458084E+00 -0.58896120856E-01  0.12467803765E-01  0.12936509202E+00  0.20274597408E-01 0.  0.
         14    1    1    2    0    0  0.17367754605E-01  0.60608194336E-02 -0.14520346491E-01  0.23435291644E-01  0.00000000000E+00 0. -1.
     999901    1    3    3    0    0 -0.13006233545E+00  0.52835301423E-01  0.20525427264E-02  0.89112961634E+00  0.88000000000E+00 0. -1.
        -11    1    4    4    0    0  0.71677474404E-01 -0.41212707120E-01 -0.10689886722E-02  0.82689487983E-01  0.51100000000E-03 0. -1.
         11    1    4    4    0    0  0.41017106436E-01 -0.17683413736E-01  0.13536792437E-01  0.46675604037E-01  0.51100000000E-03 0.  1.
</event>
<event>
 8    1  0.1051655E+005  0.1043930E+01  0.7957747E-01            NaN
         13   -1    0    0    0    0  0.00000000000E+00  0.00000000000E+00  0.74505805969E-08  0.10566000000E+00  0.10566000000E+00 0.  1.
     999900   -1    0    0    0    0 -0.00000000000E+00 -0.00000000000E+00 -0.74505805969E-08  0.93827000000E+00  0.93827000000E+00 0. -1.
     999902    2    1    2    0    0  0.14972842026E-01  0.90634487918E-02  0.14742279578E-01  0.10210462304E+01  0.10207897618E+01 0.  0.
     999903    2    3    3    0    0 -0.11960116280E+00  0.46068011498E-01  0.50430236767E-02  0.12999428133E+00  0.21127736857E-01 0.  0.
         14    1    1    2    0    0 -0.14972842026E-01 -0.90634487918E-02 -0.14742279578E-01  0.22883769565E-01  0.00000000000E+00 0. -1.
     999901    1    3    3    0    0  0.13457400483E+00 -0.37004562706E-01  0.96992559010E-02  0.89105194910E+00  0.88000000000E+00 0.  1.
        -11    1    4    4    0    0 -0.65356597138E-01  0.36346794565E-01  0.28544120343E-02  0.74839715751E-01  0.51100000000E-03 0.  1.
         11    1    4    4    0    0 -0.54244565662E-01  0.97212169335E-02  0.21886116424E-02  0.55154565581E-01  0.51100000000E-03 0. -1.
</event>
<event>
 8    1  0.1051655E+005  0.1043930E+01  0.7957747E-01            NaN
         13   -1    0    0    0    0  0.00000000000E+00  0.00000000000E+00  0.74505805969E-08  0.10566000000E+00  0.10566000000E+00 0. -1.
     999900   -1    0    0    0    0 -0.00000000000E+00 -0.00000000000E+00 -0.74505805969E-08  0.93827000000E+00  0.93827000000E+00 0. -1.
     999902    2    1    2    0    0 -0.57789734994E-02 -0.22466852317E-01 -0.83512428149E-03  0.10207167835E+01  0.10204527910E+01 0.  0.
     999903    2    3    3    0    0  0.96588159776E-01 -0.69756663782E-01  0.53029434849E-01  0.13188792091E+00  0.19673280617E-01 0.  0.
         14    1    1    2    0    0  0.57789734994E-02  0.22466852317E-01  0.83512428149E-03  0.23213216501E-01  0.00000000000E+00 0. -1.
     999901    1    3    3    0    0 -0.10236713328E+00  0.47289811465E-01 -0.53864559131E-01  0.88882886259E+00  0.88000000000E+00 0. -1.
        -11    1    4    4    0    0  0.59245414868E-01 -0.30816666586E-01  0.28135228501E-01  0.72467498413E-01  0.51100000000E-03 0.  1.
         11    1    4    4    0    0  0.37342744907E-01 -0.38939997196E-01  0.24894206348E-01  0.59420422496E-01  0.51100000000E-03 0. -1.
</event>
<event>
 8    1  0.1051655E+005  0.1043930E+01  0.7957747E-01            NaN
         13   -1    0    0    0    0  0.00000000000E+00  0.00000000000E+00  0.74505805969E-08  0.10566000000E+00  0.10566000000E+00 0.  1.
     999900   -1    0    0    0    0 -0.00000000000E+00 -0.00000000000E+00 -0.74505805969E-08  0.93827000000E+00  0.93827000000E+00 0. -1.
     999902    2    1    2    0    0  0.12771623617E-01  0.12288628766E-01 -0.10462046284E-01  0.10233489607E+01  0.10231419824E+01 0.  0.
     999903    2    3    3    0    0  0.65849188536E-01 -0.33976815642E-03 -0.11632959287E+00  0.13532607713E+00  0.21079418892E-01 0.  0.
         14    1    1    2    0    0 -0.12771623617E-01 -0.12288628766E-01  0.10462046284E-01  0.20581039313E-01  0.00000000000E+00 0.  1.
     999901    1    3    3    0    0 -0.53077564919E-01  0.12628396923E-01  0.10586754658E+00  0.88802288356E+00  0.88000000000E+00 0.  1.
        -11    1    4    4    0    0  0.11295814266E-01 -0.79996660359E-02 -0.19446985184E-01  0.23875435710E-01  0.51100000000E-03 0. -1.
         11    1    4    4    0    0  0.54553374270E-01  0.76598978795E-02 -0.96882607682E-01  0.11145064142E+00  0.51100000000E-03 0.  1.
</event>
<event>
 8    1  0.1051655E+005  0.1043930E+01  0.7957747E-01            NaN
         13   -1    0    0    0    0  0.00000000000E+00  0.00000000000E+00  0.74505805969E-08  0.10566000000E+00  0.10566000000E+00 0.  1.
     999900   -1    0    0    0    0 -0.00000000000E+00 -0.00000000000E+00 -0.74505805969E-08  0.93827000000E+00  0.93827000000E+00 0.  1.
     999902    2    1    2    0    0 -0.12578810411E-01  0.37702920141E-02 -0.20402371981E-01  0.10196668931E+01  0.10193781803E+01 0.  0.
     999903    2    3    3    0    0  0.50452419203E-01 -0.93873423516E-01 -0.73871379882E-01  0.13041655384E+00  0.13922302426E-01 0.  0.
         14    1    1    2    0    0  0.12578810411E-01 -0.37702920141E-02  0.20402371981E-01  0.24263106884E-01  0.00000000000E+00 0.  1.
     999901    1    3    3    0    0 -0.63031229613E-01  0.97643715530E-01  0.53469007901E-01  0.88925033927E+00  0.88000000000E+00 0. -1.
        -11    1    4    4    0    0  0.12164928235E-01 -0.34120475933E-01 -0.20568291336E-01  0.41659429741E-01  0.51100000000E-03 0. -1.
         11    1    4    4    0    0  0.38287490968E-01 -0.59752947582E-01 -0.53303088547E-01  0.88757124103E-01  0.51100000000E-03 0.  1.
</event>
<event>
 8    1  0.1051655E+005  0.1043930E+01  0.7957747E-01            NaN
         13   -1    0    0    0    0  0.00000000000E+00  0.00000000000E+00  0.74505805969E-08  0.10566000000E+00  0.10566000000E+00 0.  1.
     999900   -1    0    0    0    0 -0.00000000000E+00 -0.00000000000E+00 -0.74505805969E-08  0.93827000000E+00  0.93827000000E+00 0. -1.
     999902    2    1    2    0    0 -0.29156466338E-04 -0.37476587647E-02 -0.23656444062E-01  0.10199785253E+01  0.10196972682E+01 0.  0.
     999903    2    3    3    0    0 -0.81663221078E-01  0.39303303402E-01  0.88817952092E-01  0.12803234099E+00  0.17029985056E-01 0.  0.
         14    1    1    2    0    0  0.29156466338E-04  0.37476587647E-02  0.23656444062E-01  0.23951474735E-01  0.00000000000E+00 0.  1.
     999901    1    3    3    0    0  0.81634064612E-01 -0.43050962166E-01 -0.11247439615E+00  0.89194618427E+00  0.88000000000E+00 0. -1.
        -11    1    4    4    0    0 -0.62234722942E-01  0.23873449910E-01  0.57179421098E-01  0.87822831133E-01  0.51100000000E-03 0.  1.
         11    1    4    4    0    0 -0.19428498137E-01  0.15429853492E-01  0.31638530994E-01  0.40209509859E-01  0.51100000000E-03 0. -1.
</event>
<event>
 8    1  0.1051655E+005  0.1043930E+01  0.7957747E-01            NaN
         13   -1    0    0    0    0  0.00000000000E+00  0.00000000000E+00  0.74505805969E-08  0.10566000000E+00  0.10566000000E+00 0.  1.
     999900   -1    0    0    0    0 -0.00000000000E+00 -0.00000000000E+00 -0.74505805969E-08  0.93827000000E+00  0.93827000000E+00 0. -1.
     999902    2    1    2    0    0  0.13896895825E-01 -0.62155697223E-02  0.18691652722E-01  0.10198232602E+01  0.10195383010E+01 0.  0.
     999903    2    3    3    0    0  0.88431369152E-01  0.93773465909E-01  0.26957980644E-02  0.13088621954E+00  0.22591263334E-01 0.  0.
         14    1    1    2    0    0 -0.13896895825E-01  0.62155697223E-02 -0.18691652722E-01  0.24106739764E-01  0.00000000000E+00 0. -1.
     999901    1    3    3    0    0 -0.74534473327E-01 -0.99989035631E-01  0.15995854658E-01  0.88893704070E+00  0.88000000000E+00 0.  1.
        -11    1    4    4    0    0  0.35836358097E-01  0.22770259188E-01  0.22763857070E-02  0.42522609492E-01  0.51100000000E-03 0.  1.
         11    1    4    4    0    0  0.52595011055E-01  0.71003206721E-01  0.41941235736E-03  0.88363610045E-01  0.51100000000E-03 0. -1.
</event>
<event>
 8    1  0.1051655E+005  0.1043930E+01  0.7957747E-01            NaN
         13   -1    0    0    0    0  0.00000000000E+00  0.00000000000E+00  0.74505805969E-08  0.10566000000E+00  0.10566000000E+00 0. -1.
     999900   -1    0    0    0    0 -0.00000000000E+00 -0.00000000000E+00 -0.74505805969E-08  0.93827000000E+00  0.93827000000E+00 0.  1.
     999902    2    1    2    0    0 -0.15296496400E-01  0.98994690279E-02 -0.16508981687E-01  0.10193428333E+01  0.10190462615E+01 0.  0.
     999903    2    3    3    0    0  0.80163300540E-01  0.21038587492E-01  0.94404166524E-01  0.12718904655E+00  0.19903014562E-01 0.  0.
         14    1    1    2    0    0  0.15296496400E-01 -0.98994690279E-02  0.16508981687E-01  0.24587166683E-01  0.00000000000E+00 0.  1.
     999901    1    3    3    0    0 -0.95459796940E-01 -0.11139118464E-01 -0.11091314821E+00  0.89215378676E+00  0.88000000000E+00 0.  1.
        -11    1    4    4    0    0  0.56848268683E-01  0.12621233629E-01  0.78465893904E-01  0.97714783005E-01  0.51100000000E-03 0.  1.
         11    1    4    4    0    0  0.23315031858E-01  0.84173538629E-02  0.15938272621E-01  0.29474263548E-01  0.51100000000E-03 0. -1.
</event>
<event>
 8    1  0.1051655E+005  0.1043930E+01  0.7957747E-01            NaN
         13   -1    0    0    0    0  0.00000000000E+00  0.00000000000E+00  0.74505805969E-08  0.10566000000E+00  0.10566000000E+00 0. -1.
     999900   -1    0    0    0    0 -0.00000000000E+00 -0.00000000000E+00 -0.74505805969E-08  0.93827000000E+00  0.93827000000E+00 0. -1.
     999902    2    1    2    0    0  0.72600920640E-02  0.10823848915E-01  0.20260561783E-01  0.10198394416E+01  0.10195548693E+01 0.  0.
     999903    2    3    3    0    0  0.67124916041E-01 -0.22720630566E-01  0.11035225266E+00  0.13258212713E+00  0.19453003841E-01 0.  0.
         14    1    1    2    0    0 -0.72600920640E-02 -0.10823848915E-01 -0.20260561783E-01  0.24090558439E-01  0.00000000000E+00 0.  1.
     999901    1    3    3    0    0 -0.59864823977E-01  0.33544479481E-01 -0.90091690881E-01  0.88725731444E+00  0.88000000000E+00 0. -1.
        -11    1    4    4    0    0  0.27416785406E-01 -0.18874629203E-01  0.44269022094E-01  0.55388980743E-01  0.51100000000E-03 0.  1.
         11    1    4    4    0    0  0.39708130635E-01 -0.38460013627E-02  0.66083230570E-01  0.77193146383E-01  0.51100000000E-03 0. -1.
</event>
<event>
 8    1  0.1051655E+005  0.1043930E+01  0.7957747E-01            NaN
         13   -1    0    0    0    0  0.00000000000E+00  0.00000000000E+00  0.74505805969E-08  0.10566000000E+00  0.10566000000E+00 0. -1.
     999900   -1    0    0    0    0 -0.00000000000E+00 -0.00000000000E+00 -0.74505805969E-08  0.93827000000E+00  0.93827000000E+00 0. -1.
     999902    2    1    2    0    0  0.81394334282E-02 -0.47287443314E-02  0.21022938301E-01  0.10208957791E+01  0.10206358882E+01 0.  0.
     999903    2    3    3    0    0 -0.80487421635E-01  0.97604030599E-01  0.25831180066E-01  0.13053077781E+00  0.19137979555E-01 0.  0.
         14    1    1    2    0    0 -0.81394334282E-02  0.47287443314E-02 -0.21022938301E-01  0.23034220939E-01  0.00000000000E+00 0.  1.
     999901    1    3    3    0    0  0.88626855063E-01 -0.10233277493E+00 -0.48082417645E-02  0.89036500125E+00  0.88000000000E+00 0.  1.
        -11    1    4    4    0    0 -0.71899038329E-02  0.42223048918E-02 -0.20186956209E-02  0.85941159368E-02  0.51100000000E-03 0.  1.
         11    1    4    4    0    0 -0.73297517802E-01  0.93381725707E-01  0.27849875686E-01  0.12193666187E+00  0.51100000000E-03 0. -1.
</event>
<event>
 8    1  0.1051655E+005  0.1043930E+01  0.7957747E-01            NaN
         13   -1    0    0    0    0  0.00000000000E+00  0.00000000000E+00  0.74505805969E-08  0.10566000000E+00  0.10566000000E+00 0.  1.
     999900   -1    0    0    0    0 -0.00000000000E+00 -0.00000000000E+00 -0.74505805969E-08  0.93827000000E+00  0.93827000000E+00 0.  1.
     999902    2    1    2    0    0 -0.75296168679E-02  0.22805172762E-01  0.48624572521E-02  0.10194266426E+01  0.10191321136E+01 0.  0.
     999903    2    3    3    0    0 -0.11733869610E+00  0.98456188919E-02 -0.52782661277E-01  0.13063592277E+00  0.20357533550E-01 0.  0.
         14    1    1    2    0    0  0.75296168679E-02 -0.22805172762E-01 -0.48624572521E-02  0.24503357431E-01  0.00000000000E+00 0.  1.
     999901    1    3    3    0    0  0.10980907923E+00  0.12959553870E-01  0.57645118529E-01  0.88879071980E+00  0.88000000000E+00 0.  1.
        -11    1    4    4    0    0 -0.93816414127E-01  0.94422598357E-03 -0.46471735197E-01  0.10470097619E+00  0.51100000000E-03 0.  1.
         11    1    4    4    0    0 -0.23522281971E-01  0.89013929083E-02 -0.63109260801E-02  0.25934946574E-01  0.51100000000E-03 0. -1.
</event>
<event>
 8    1  0.1051655E+005  0.1043930E+01  0.7957747E-01            NaN
         13   -1    0    0    0    0  0.00000000000E+00  0.00000000000E+00  0.74505805969E-08  0.10566000000E+00  0.10566000000E+00 0. -1.
     999900   -1    0    0    0    0 -0.00000000000E+00 -0.00000000000E+00 -0.74505805969E-08  0.93827000000E+00  0.93827000000E+00 0.  1.
     999902    2    1    2    0    0 -0.69102742343E-02  0.20404154595E-01 -0.10441767792E-01  0.10199902437E+01  0.10197092651E+01 0.  0.
     999903    2    3    3    0    0  0.51043453066E-01 -0.11249450133E+00  0.24444142554E-01  0.12744460682E+00  0.19600121781E-01 0.  0.
         14    1    1    2    0    0  0.69102742343E-02 -0.20404154595E-01  0.10441767792E-01  0.23939756251E-01  0.00000000000E+00 0. -1.
     999901    1    3    3    0    0 -0.57953727300E-01  0.13289865592E+00 -0.34885910346E-01  0.89254563693E+00  0.88000000000E+00 0. -1.
        -11    1    4    4    0    0  0.32774964169E-01 -0.78384014462E-01  0.25583161731E-01  0.88729990897E-01  0.51100000000E-03 0. -1.
         11    1    4    4    0    0  0.18268488897E-01 -0.34110486863E-01 -0.11390191771E-02  0.38714615926E-01  0.51100000000E-03 0.  1.
</event>
<event>
 8    1  0.1051655E+005  0.1043930E+01  0.7957747E-01            NaN
         13   -1    0    0    0    0  0.00000000000E+00  0.00000000000E+00  0.74505805969E-08  0.10566000000E+00  0.10566000000E+00 0. -1.
     999900   -1    0    0    0    0 -0.00000000000E+00 -0.00000000000E+00 -0.74505805969E-08  0.93827000000E+00  0.93827000000E+00 0. -1.
     999902    2    1    2    0    0 -0.21947207172E-01 -0.50939154475E-02  0.65995794284E-02  0.10204527275E+01  0.10201826242E+01 0.  0.
     999903    2    3    3    0    0 -0.70083227529E-01 -0.10950670501E+00  0.14269407643E-01  0.13294051158E+00  0.23794671709E-01 0.  0.
         14    1    1    2    0    0  0.21947207172E-01  0.50939154475E-02 -0.65995794284E-02  0.23477272539E-01  0.00000000000E+00 0.  1.
     999901    1    3    3    0    0  0.48136020358E-01  0.10441278956E+00 -0.76698282146E-02  0.88751221588E+00  0.88000000000E+00 0. -1.
        -11    1    4    4    0    0 -0.33537205278E-01 -0.70493079045E-01  0.14910227643E-01  0.79477005105E-01  0.51100000000E-03 0. -1.
         11    1    4    4    0    0 -0.36546022252E-01 -0.39013625960E-01 -0.64081999970E-03  0.53463506472E-01  0.51100000000E-03 0.  1.
</event>
<event>
 8    1  0.1051655E+005  0.1043930E+01  0.7957747E-01            NaN
         13   -1    0    0    0    0  0.00000000000E+00  0.00000000000E+00  0.74505805969E-08  0.10566000000E+00  0.10566000000E+00 0. -1.
     999900   -1    0    0    0    0 -0.00000000000E+00 -0.00000000000E+00 -0.74505805969E-08  0.93827000000E+00  0.93827000000E+00 0.  1.
     999902    2    1    2    0    0  0.18914636431E-01  0.21655490962E-01 -0.84564501693E-02  0.10139594259E+01  0.10135163946E+01 0.  0.
     999903    2    3    3    0    0 -0.19208834577E-01  0.12202118537E+00 -0.18057423637E-01  0.12738238453E+00  0.25338751639E-01 0.  0.
         14    1    1    2    0    0 -0.18914636431E-01 -0.21655490962E-01  0.84564501693E-02  0.29970574062E-01  0.00000000000E+00 0.  1.
     999901    1    3    3    0    0  0.38123471008E-01 -0.10036569441E+00  0.96009734677E-02  0.88657704141E+00  0.88000000000E+00 0.  1.
        -11    1    4    4    0    0 -0.13518330701E-01  0.65245022336E-01 -0.22033406277E-01  0.70181125081E-01  0.51100000000E-03 0.  1.
         11    1    4    4    0    0 -0.56905038757E-02  0.56776163039E-01  0.39759826400E-02  0.57201259451E-01  0.51100000000E-03 0. -1.
</event>
<event>
 8    1  0.1051655E+005  0.1043930E+01  0.7957747E-01            NaN
         13   -1    0    0    0    0  0.00000000000E+00  0.00000000000E+00  0.74505805969E-08  0.10566000000E+00  0.10566000000E+00 0. -1.
     999900   -1    0    0    0    0 -0.00000000000E+00 -0.00000000000E+00 -0.74505805969E-08  0.93827000000E+00  0.93827000000E+00 0. -1.
     999902    2    1    2    0    0  0.16165766002E-01 -0.11110899423E-01  0.11629098899E-01  0.10211260526E+01  0.10208713902E+01 0.  0.
     999903    2    3    3    0    0  0.12063256104E+00  0.31412486017E-01 -0.39884559763E-01  0.13243307602E+00  0.20218369249E-01 0.  0.
         14    1    1    2    0    0 -0.16165766002E-01  0.11110899423E-01 -0.11629098899E-01  0.22803947413E-01  0.00000000000E+00 0. -1.
     999901    1    3    3    0    0 -0.10446679504E+00 -0.42523385440E-01  0.51513658662E-01  0.88869297657E+00  0.88000000000E+00 0.  1.
        -11    1    4    4    0    0  0.94486050184E-01  0.16629861677E-01 -0.34242279948E-01  0.10186736885E+00  0.51100000000E-03 0. -1.
         11    1    4    4    0    0  0.26146510856E-01  0.14782624340E-01 -0.56422798152E-02  0.30565707171E-01  0.51100000000E-03 0.  1.
</event>
<event>
 8    1  0.1051655E+005  0.1043930E+01  0.7957747E-01            NaN
         13   -1    0    0    0    0  0.00000000000E+00  0.00000000000E+00  0.74505805969E-08  0.10566000000E+00  0.10566000000E+00 0. -1.
     999900   -1    0    0    0    0 -0.00000000000E+00 -0.00000000000E+00 -0.74505805969E-08  0.93827000000E+00  0.93827000000E+00 0.  1.
     999902    2    1    2    0    0  0.60981214418E-02 -0.11166757259E-01 -0.20262899894E-01  0.10200036826E+01  0.10197230231E+01 0.  0.
     999903    2    3    3    0    0  0.10399623791E+00 -0.18377873360E-01  0.72434899293E-01  0.12970658421E+00  0.20591736804E-01 0.  0.
         14    1    1    2    0    0 -0.60981214418E-02  0.11166757259E-01  0.20262899894E-01  0.23926317412E-01  0.00000000000E+00 0. -1.
     999901    1    3    3    0    0 -0.97898116464E-01  0.72111161011E-02 -0.92697799187E-01  0.89029709838E+00  0.88000000000E+00 0.  1.
        -11    1    4    4    0    0  0.39209819009E-01  0.21332955644E-02  0.31756505453E-01  0.50504431650E-01  0.51100000000E-03 0. -1.
         11    1    4    4    0    0  0.64786418896E-01 -0.20511168924E-01  0.40678393841E-01  0.79202152562E-01  0.51100000000E-03 0.  1.
</event>
<event>
 8    1  0.1051655E+005  0.1043930E+01  0.7957747E-01            NaN
         13   -1    0    0    0    0  0.00000000000E+00  0.00000000000E+00  0.74505805969E-08  0.10566000000E+00  0.10566000000E+00 0.  1.
     999900   -1    0    0    0    0 -0.00000000000E+00 -0.00000000000E+00 -0.74505805969E-08  0.93827000000E+00  0.93827000000E+00 0.  1.
     999902    2    1    2    0    0  0.19331241703E-01  0.61482920237E-02 -0.12629011181E-01  0.10200345962E+01  0.10197546700E+01 0.  0.
     999903    2    3    3    0    0 -0.67829500199E-01  0.84171771599E-01 -0.70241567799E-01  0.13042576923E+00  0.19780677478E-01 0.  0.
         14    1    1    2    0    0 -0.19331241703E-01 -0.61482920237E-02  0.12629011181E-01  0.23895403826E-01  0.00000000000E+00 0.  1.
     999901    1    3    3    0    0  0.87160741902E-01 -0.78023479576E-01  0.57612556618E-01  0.88960882694E+00  0.88000000000E+00 0. -1.
        -11    1    4    4    0    0 -0.65168882716E-01  0.78742020376E-01 -0.70789373227E-01  0.12433296236E+00  0.51100000000E-03 0. -1.
         11    1    4    4    0    0 -0.26606174830E-02  0.54297512235E-02  0.54780542853E-03  0.60928068678E-02  0.51100000000E-03 0.  1.
</event>
<event>
 8    1  0.1051655E+005  0.1043930E+01  0.7957747E-01            NaN
         13   -1    0    0    0    0  0.00000000000E+00  0.00000000000E+00  0.74505805969E-08  0.10566000000E+00  0.10566000000E+00 0.  1.
     999900   -1    0    0    0    0 -0.00000000000E+00 -0.00000000000E+00 -0.74505805969E-08  0.93827000000E+00  0.93827000000E+00 0. -1.
     999902    2    1    2    0    0  0.19325527451E-01 -0.13253696337E-01  0.40343066262E-02  0.10201516042E+01  0.10198744449E+01 0.  0.
     999903    2    3    3    0    0 -0.10843173530E+00 -0.63921440962E-01  0.21997656821E-01  0.12930267171E+00  0.19796266592E-01 0.  0.
         14    1    1    2    0    0 -0.19325527451E-01  0.13253696337E-01 -0.40343066262E-02  0.23778395821E-01  0.00000000000E+00 0. -1.
     999901    1    3    3    0    0  0.12775726275E+00  0.50667744625E-01 -0.17963350195E-01  0.89084893247E+00  0.88000000000E+00 0. -1.
        -11    1    4    4    0    0 -0.54124305616E-01 -0.25429188983E-01  0.21570110869E-02  0.59841439894E-01  0.51100000000E-03 0.  1.
         11    1    4    4    0    0 -0.54307429684E-01 -0.38492251979E-01  0.19840645734E-01  0.69461231817E-01  0.51100000000E-03 0. -1.
</event>
<event>
 8    1  0.1051655E+005  0.1043930E+01  0.7957747E-01            NaN
         13   -1    0    0    0    0  0.00000000000E+00  0.00000000000E+00  0.74505805969E-08  0.10566000000E+00  0.10566000000E+00 0.  1.
     999900   -1    0    0    0    0 -0.00000000000E+00 -0.00000000000E+00 -0.74505805969E-08  0.93827000000E+00  0.93827000000E+00 0. -1.
     999902    2    1    2    0    0 -0.16416118970E-01  0.11915244929E-01 -0.13567555016E-01  0.10195263000E+01  0.10192341909E+01 0.  0.
     999903    2    3    3    0    0  0.12227227768E+00 -0.30213650154E-01  0.59432440581E-03  0.12755664022E+00  0.20173465208E-01 0.  0.
         14    1    1    2    0    0  0.16416118970E-01 -0.11915244929E-01  0.13567555016E-01  0.24403699984E-01  0.00000000000E+00 0.  1.
     999901    1    3    3    0    0 -0.13868839665E+00  0.42128895084E-01 -0.14161879422E-01  0.89196965980E+00  0.88000000000E+00 0.  1.
        -11    1    4    4    0    0  0.61462704574E-01 -0.25004460915E-01  0.35458324863E-02  0.66450892907E-01  0.51100000000E-03 0. -1.
         11    1    4    4    0    0  0.60809573106E-01 -0.52091892390E-02 -0.29515080805E-02  0.61105747314E-01  0.51100000000E-03 0.  1.
</event>
<event>
 8    1  0.1051655E+005  0.1043930E+01  0.7957747E-01            NaN
         13   -1    0    0    0    0  0.00000000000E+00  0.00000000000E+00  0.74505805969E-08  0.10566000000E+00  0.10566000000E+00 0. -1.
     999900   -1    0    0    0    0 -0.00000000000E+00 -0.00000000000E+00 -0.74505805969E-08  0.93827000000E+00  0.93827000000E+00 0.  1.
     999902    2    1    2    0    0  0.20735943723E-01  0.10340556890E-01 -0.90840839245E-02  0.10190417084E+01  0.10187377368E+01 0.  0.
     999903    2    3    3    0    0  0.31514087019E-01  0.29508534253E-01  0.12018052333E+00  0.12932663128E+00  0.20448180784E-01 0.  0.
         14    1    1    2    0    0 -0.20735943723E-01 -0.10340556890E-01  0.90840839245E-02  0.24888291617E-01  0.00000000000E+00 0.  1.
     999901    1    3    3    0    0 -0.10778143296E-01 -0.19167977363E-01 -0.12926460725E+00  0.88971507710E+00  0.88000000000E+00 0.  1.
        -11    1    4    4    0    0  0.12109757139E-01  0.23847244715E-01  0.79842020402E-01  0.84204196103E-01  0.51100000000E-03 0. -1.
         11    1    4    4    0    0  0.19404329880E-01  0.56612895378E-02  0.40338502926E-01  0.45122435181E-01  0.51100000000E-03 0.  1.
</event>
<event>
 8    1  0.1074262E+005  0.1043930E+01  0.7957747E-01            NaN
         13   -1    0    0    0    0  0.00000000000E+00  0.00000000000E+00  0.74505805969E-08  0.10566000000E+00  0.10566000000E+00 0. -1.
     999900   -1    0    0    0    0 -0.00000000000E+00 -0.00000000000E+00 -0.74505805969E-08  0.93827000000E+00  0.93827000000E+00 0. -1.
     999902    2    1    2    0    0  0.18049136122E-01 -0.40839871153E-03  0.14662201280E-01  0.10206723507E+01  0.10204073350E+01 0.  0.
     999903    2    3    3    0    0  0.69595013204E-01  0.27036578397E-01 -0.10534611057E+00  0.13060931972E+00  0.19660848191E-01 0.  0.
         14    1    1    2    0    0 -0.18049136122E-01  0.40839871153E-03 -0.14662201280E-01  0.23257649293E-01  0.00000000000E+00 0.  1.
     999901    1    3    3    0    0 -0.51545877083E-01 -0.27444977109E-01  0.12000831185E+00  0.89006303098E+00  0.88000000000E+00 0.  1.
        -11    1    4    4    0    0  0.46353325097E-01  0.22812906094E-01 -0.57862184155E-01  0.77571598593E-01  0.51100000000E-03 0. -1.
         11    1    4    4    0    0  0.23241688108E-01  0.42236723034E-02 -0.47483926415E-01  0.53037721130E-01  0.51100000000E-03 0.  1.
</event>
<event>
 8    1  0.1051655E+005  0.1043930E+01  0.7957747E-01            NaN
         13   -1    0    0    0    0  0.00000000000E+00  0.00000000000E+00  0.74505805969E-08  0.10566000000E+00  0.10566000000E+00 0. -1.
     999900   -1    0    0    0    0 -0.00000000000E+00 -0.00000000000E+00 -0.74505805969E-08  0.93827000000E+00  0.93827000000E+00 0.  1.
     999902    2    1    2    0    0  0.58657254295E-02  0.18674962277E-01 -0.33886382164E-02  0.10240643558E+01  0.10238716526E+01 0.  0.
     999903    2    3    3    0    0 -0.38389453278E-01  0.12847047908E+00  0.58809960765E-02  0.13608941106E+00  0.22523933233E-01 0.  0.
         14    1    1    2    0    0 -0.58657254295E-02 -0.18674962277E-01  0.33886382164E-02  0.19865644208E-01  0.00000000000E+00 0. -1.
     999901    1    3    3    0    0  0.44255178707E-01 -0.10979551681E+00 -0.92696342928E-02  0.88797494473E+00  0.88000000000E+00 0.  1.
        -11    1    4    4    0    0 -0.16348652365E-01  0.81429770947E-01 -0.42295136702E-02  0.83163910066E-01  0.51100000000E-03 0.  1.
         11    1    4    4    0    0 -0.22040800913E-01  0.47040708138E-01  0.10110509747E-01  0.52925500993E-01  0.51100000000E-03 0. -1.
</event>
<event>
 8    1  0.1051655E+005  0.1043930E+01  0.7957747E-01            NaN
         13   -1    0    0    0    0  0.00000000000E+00  0.00000000000E+00  0.74505805969E-08  0.10566000000E+00  0.10566000000E+00 0.  1.
     999900   -1    0    0    0    0 -0.00000000000E+00 -0.00000000000E+00 -0.74505805969E-08  0.93827000000E+00  0.93827000000E+00 0. -1.
     999902    2    1    2    0    0  0.23612591883E-01 -0.16370336625E-02 -0.83034182671E-03  0.10202461692E+01  0.10199712358E+01 0.  0.
     999903    2    3    3    0    0  0.92345108814E-01 -0.90841825705E-01  0.10746868810E-01  0.13299440919E+00  0.28145359594E-01 0.  0.
         14    1    1    2    0    0 -0.23612591883E-01  0.16370336625E-02  0.83034182671E-03  0.23683830818E-01  0.00000000000E+00 0. -1.
     999901    1    3    3    0    0 -0.68732516931E-01  0.89204792042E-01 -0.11577210637E-01  0.88725175999E+00  0.88000000000E+00 0.  1.
        -11    1    4    4    0    0  0.94889995018E-02 -0.22034206044E-02  0.62317865617E-02  0.11575511162E-01  0.51100000000E-03 0.  1.
         11    1    4    4    0    0  0.82856109313E-01 -0.88638405101E-01  0.45150822481E-02  0.12141889803E+00  0.51100000000E-03 0. -1.
</event>
<event>
 8    1  0.1051655E+005  0.1043930E+01  0.7957747E-01            NaN
         13   -1    0    0    0    0  0.00000000000E+00  0.00000000000E+00  0.74505805969E-08  0.10566000000E+00  0.10566000000E+00 0.  1.
     999900   -1    0    0    0    0 -0.00000000000E+00 -0.00000000000E+00 -0.74505805969E-08  0.93827000000E+00  0.93827000000E+00 0.  1.
     999902    2    1    2    0    0  0.21728495795E-01  0.18981689407E-01 -0.34016513971E-02  0.10148782652E+01  0.10144623649E+01 0.  0.
     999903    2    3    3    0    0  0.12346087723E+00 -0.26290041997E-01 -0.56376613169E-02  0.12785853215E+00  0.19551636834E-01 0.  0.
         14    1    1    2    0    0 -0.21728495795E-01 -0.18981689407E-01  0.34016513971E-02  0.29051734793E-01  0.00000000000E+00 0. -1.
     999901    1    3    3    0    0 -0.10173238144E+00  0.45271731404E-01  0.22360099198E-02  0.88701973306E+00  0.88000000000E+00 0.  1.
        -11    1    4    4    0    0  0.42732276554E-01 -0.18574950082E-01 -0.54579386378E-03  0.46600807311E-01  0.51100000000E-03 0.  1.
         11    1    4    4    0    0  0.80728600677E-01 -0.77150919150E-02 -0.50918674531E-02  0.81257724837E-01  0.51100000000E-03 0. -1.
</event>
<event>
 8    1  0.1051655E+005  0.1043930E+01  0.7957747E-01            NaN
         13   -1    0    0    0    0  0.00000000000E+00  0.00000000000E+00  0.74505805969E-08  0.10566000000E+00  0.10566000000E+00 0.  1.
     999900   -1    0    0    0    0 -0.00000000000E+00 -0.00000000000E+00 -0.74505805969E-08  0.93827000000E+00  0.93827000000E+00 0. -1.
     999902    2    1    2    0    0  0.18166593173E-01  0.78228030672E-02  0.16242988253E-01  0.10183359377E+01  0.10180142563E+01 0.  0.
     999903    2    3    3    0    0  0.67037152542E-01 -0.98332458192E-01 -0.44197070904E-01  0.12855491310E+00  0.20241848992E-01 0.  0.
         14    1    1    2    0    0 -0.18166593173E-01 -0.78228030672E-02 -0.16242988253E-01  0.25594062256E-01  0.00000000000E+00 0. -1.
     999901    1    3    3    0    0 -0.48870559369E-01  0.10615526126E+00  0.60440059158E-01  0.88978102464E+00  0.88000000000E+00 0.  1.
        -11    1    4    4    0    0  0.33058804931E-01 -0.65884917901E-01 -0.28064865636E-01  0.78877150015E-01  0.51100000000E-03 0. -1.
         11    1    4    4    0    0  0.33978347612E-01 -0.32447540291E-01 -0.16132205268E-01  0.49677763085E-01  0.51100000000E-03 0.  1.
</event>
<event>
 8    1  0.1051655E+005  0.1043930E+01  0.7957747E-01            NaN
         13   -1    0    0    0    0  0.00000000000E+00  0.00000000000E+00  0.74505805969E-08  0.10566000000E+00  0.10566000000E+00 0.  1.
     999900   -1    0    0    0    0 -0.00000000000E+00 -0.00000000000E+00 -0.74505805969E-08  0.93827000000E+00  0.93827000000E+00 0. -1.
     999902    2    1    2    0    0  0.11260721411E-01 -0.13409788662E-01  0.14855482564E-01  0.10209667328E+01  0.10207084588E+01 0.  0.
     999903    2    3    3    0    0 -0.39362479231E-01 -0.12030719706E-01 -0.12075078990E+00  0.12914070076E+00  0.20060517027E-01 0.  0.
         14    1    1    2    0    0 -0.11260721411E-01  0.13409788662E-01 -0.14855482564E-01  0.22963267208E-01  0.00000000000E+00 0.  1.
     999901    1    3    3    0    0  0.50623200641E-01 -0.13790689561E-02  0.13560627247E+00  0.89182603203E+00  0.88000000000E+00 0.  1.
        -11    1    4    4    0    0 -0.22394146329E-01  0.94047038793E-03 -0.42816546283E-01  0.48331149696E-01  0.51100000000E-03 0.  1.
         11    1    4    4    0    0 -0.16968332902E-01 -0.12971190093E-01 -0.77934243619E-01  0.80809551066E-01  0.51100000000E-03 0. -1.
</event>
<event>
 8    1  0.1051655E+005  0.1043930E+01  0.7957747E-01            NaN
         13   -1    0    0    0    0  0.00000000000E+00  0.00000000000E+00  0.74505805969E-08  0.10566000000E+00  0.10566000000E+00 0.  1.
     999900   -1    0    0    0    0 -0.00000000000E+00 -0.00000000000E+00 -0.74505805969E-08  0.93827000000E+00  0.93827000000E+00 0. -1.
     999902    2    1    2    0    0 -0.41281337112E-02 -0.11751957608E-01  0.20920627770E-01  0.10195820502E+01  0.10192912902E+01 0.  0.
     999903    2    3    3    0    0 -0.38321237146E-02  0.67768438783E-03  0.13043618393E+00  0.13270650045E+00  0.24130328539E-01 0.  0.
         14    1    1    2    0    0  0.41281337112E-02  0.11751957608E-01 -0.20920627770E-01  0.24347949849E-01  0.00000000000E+00 0.  1.
     999901    1    3    3    0    0 -0.29600999659E-03 -0.12429641996E-01 -0.10951555616E+00  0.88687554970E+00  0.88000000000E+00 0. -1.
        -11    1    4    4    0    0  0.51321821638E-02 -0.75855931356E-02  0.26217354279E-01  0.27775732274E-01  0.51100000000E-03 0.  1.
         11    1    4    4    0    0 -0.89643058784E-02  0.82632775235E-02  0.10421882965E+00  0.10493076817E+00  0.51100000000E-03 0. -1.
</event>
<event>
 7    1  0.1051655E+005  0.1043930E+01  0.7957747E-01            NaN
         13   -1    0    0    0    0  0.00000000000E+00  0.00000000000E+00  0.74505805969E-08  0.10566000000E+00  0.10566000000E+00 0.  1.
     999900   -1    0    0    0    0 -0.00000000000E+00 -0.00000000000E+00 -0.74505805969E-08  0.93827000000E+00  0.93827000000E+00 0. -1.
     999903    2    1    2    0    0 -0.10390696686E+00  0.19729095268E-02 -0.56458156019E-01  0.11994408766E+00  0.19962731482E-01 0.  0.
         14    1    1    2    0    0  0.17816635935E-01  0.25321256811E-02  0.35182133289E-01  0.39517422478E-01  0.00000000000E+00 0.  1.
     999901    1    1    2    0    0  0.86090330927E-01 -0.45050352079E-02  0.21276022729E-01  0.88446848987E+00  0.88000000000E+00 0. -1.
        -11    1    3    3    0    0 -0.82622612703E-01  0.91132127903E-02 -0.41037463327E-01  0.92703189236E-01  0.51100000000E-03 0.  1.
         11    1    3    3    0    0 -0.21284354160E-01 -0.71403032635E-02 -0.15420692691E-01  0.27240898421E-01  0.51100000000E-03 0. -1.
</event>
<event>
 8    1  0.1051655E+005  0.1043930E+01  0.7957747E-01            NaN
         13   -1    0    0    0    0  0.00000000000E+00  0.00000000000E+00  0.74505805969E-08  0.10566000000E+00  0.10566000000E+00 0.  1.
     999900   -1    0    0    0    0 -0.00000000000E+00 -0.00000000000E+00 -0.74505805969E-08  0.93827000000E+00  0.93827000000E+00 0. -1.
     999902    2    1    2    0    0  0.18552972219E-01 -0.46499863251E-02  0.12946053700E-01  0.10208337783E+01  0.10205724704E+01 0.  0.
     999903    2    3    3    0    0 -0.67072979645E-01 -0.91715761934E-01 -0.58825840153E-01  0.12950698207E+00  0.20025317692E-01 0.  0.
         14    1    1    2    0    0 -0.18552972219E-01  0.46499863251E-02 -0.12946053700E-01  0.23096221712E-01  0.00000000000E+00 0. -1.
     999901    1    3    3    0    0  0.85625951864E-01  0.87065775609E-01  0.71771893853E-01  0.89132679622E+00  0.88000000000E+00 0.  1.
        -11    1    4    4    0    0 -0.30609810666E-01 -0.47907325105E-01 -0.18892360100E-01  0.59910388906E-01  0.51100000000E-03 0. -1.
         11    1    4    4    0    0 -0.36463168979E-01 -0.43808436829E-01 -0.39933480053E-01  0.69596593160E-01  0.51100000000E-03 0.  1.
</event>
<event>
 8    1  0.1051655E+005  0.1043930E+01  0.7957747E-01            NaN
         13   -1    0    0    0    0  0.00000000000E+00  0.00000000000E+00  0.74505805969E-08  0.10566000000E+00  0.10566000000E+00 0. -1.
     999900   -1    0    0    0    0 -0.00000000000E+00 -0.00000000000E+00 -0.74505805969E-08  0.93827000000E+00  0.93827000000E+00 0. -1.
     999902    2    1    2    0    0  0.16736390774E-01 -0.88226796425E-02 -0.13986901091E-01  0.10204017222E+01  0.10201304303E+01 0.  0.
     999903    2    3    3    0    0 -0.27103189640E-01  0.82465406920E-01 -0.95131031391E-01  0.13088511563E+00  0.23363949408E-01 0.  0.
         14    1    1    2    0    0 -0.16736390774E-01  0.88226796425E-02  0.13986901091E-01  0.23528277760E-01  0.00000000000E+00 0. -1.
     999901    1    3    3    0    0  0.43839580414E-01 -0.91288086562E-01  0.81144130300E-01  0.88951660661E+00  0.88000000000E+00 0.  1.
        -11    1    4    4    0    0 -0.18781616895E-01  0.22381421203E-01 -0.31955704231E-01  0.43302486097E-01  0.51100000000E-03 0.  1.
         11    1    4    4    0    0 -0.83215727445E-02  0.60083985717E-01 -0.63175327160E-01  0.87582629529E-01  0.51100000000E-03 0. -1.
</event>
<event>
 8    1  0.1051655E+005  0.1043930E+01  0.7957747E-01            NaN
         13   -1    0    0    0    0  0.00000000000E+00  0.00000000000E+00  0.74505805969E-08  0.10566000000E+00  0.10566000000E+00 0. -1.
     999900   -1    0    0    0    0 -0.00000000000E+00 -0.00000000000E+00 -0.74505805969E-08  0.93827000000E+00  0.93827000000E+00 0. -1.
     999902    2    1    2    0    0  0.15111575068E-01  0.18414704838E-01  0.35023586215E-02  0.10198524675E+01  0.10195682066E+01 0.  0.
     999903    2    3    3    0    0 -0.19469587021E-01  0.68101587346E-01 -0.10841624875E+00  0.13070095188E+00  0.17656863002E-01 0.  0.
         14    1    1    2    0    0 -0.15111575068E-01 -0.18414704838E-01 -0.35023586215E-02  0.24077532499E-01  0.00000000000E+00 0.  1.
     999901    1    3    3    0    0  0.34581162090E-01 -0.49686882507E-01  0.11191860737E+00  0.88915151563E+00  0.88000000000E+00 0.  1.
        -11    1    4    4    0    0 -0.12386485824E-01  0.21485774052E-01 -0.27393111034E-01  0.36955475519E-01  0.51100000000E-03 0.  1.
         11    1    4    4    0    0 -0.70831011979E-02  0.46615813293E-01 -0.81023137712E-01  0.93745476357E-01  0.51100000000E-03 0. -1.
</event>
<event>
 8    1  0.1051655E+005  0.1043930E+01  0.7957747E-01            NaN
         13   -1    0    0    0    0  0.00000000000E+00  0.00000000000E+00  0.74505805969E-08  0.10566000000E+00  0.10566000000E+00 0.  1.
     999900   -1    0    0    0    0 -0.00000000000E+00 -0.00000000000E+00 -0.74505805969E-08  0.93827000000E+00  0.93827000000E+00 0.  1.
     999902    2    1    2    0    0  0.53255705321E-02  0.28910565271E-01  0.72569138650E-02  0.10136505468E+01  0.10131981967E+01 0.  0.
     999903    2    3    3    0    0 -0.36131739549E-01 -0.20051396315E-01 -0.11431442247E+00  0.12297913039E+00  0.18668642902E-01 0.  0.
         14    1    1    2    0    0 -0.53255705321E-02 -0.28910565271E-01 -0.72569138650E-02  0.30279453176E-01  0.00000000000E+00 0. -1.
     999901    1    3    3    0    0  0.41457310081E-01  0.48961961586E-01  0.12157133634E+00  0.89067141644E+00  0.88000000000E+00 0. -1.
        -11    1    4    4    0    0 -0.18492794247E-01 -0.10279172777E-01 -0.83569303988E-01  0.86207508502E-01  0.51100000000E-03 0.  1.
         11    1    4    4    0    0 -0.17638945302E-01 -0.97722235376E-02 -0.30745118486E-01  0.36771621884E-01  0.51100000000E-03 0. -1.
</event>
<event>
 8    1  0.1051655E+005  0.1043930E+01  0.7957747E-01            NaN
         13   -1    0    0    0    0  0.00000000000E+00  0.00000000000E+00  0.74505805969E-08  0.10566000000E+00  0.10566000000E+00 0.  1.
     999900   -1    0    0    0    0 -0.00000000000E+00 -0.00000000000E+00 -0.74505805969E-08  0.93827000000E+00  0.93827000000E+00 0. -1.
     999902    2    1    2    0    0  0.10318356667E-01 -0.12770908929E-01 -0.17073655411E-01  0.10202429928E+01  0.10199679849E+01 0.  0.
     999903    2    3    3    0    0  0.31396731184E-01 -0.53323854464E-01 -0.11662484986E+00  0.13345142794E+00  0.19461239187E-01 0.  0.
         14    1    1    2    0    0 -0.10318356667E-01  0.12770908929E-01  0.17073655411E-01  0.23687007161E-01  0.00000000000E+00 0.  1.
     999901    1    3    3    0    0 -0.21078374518E-01  0.40552945535E-01  0.99551194445E-01  0.88679156490E+00  0.88000000000E+00 0.  1.
        -11    1    4    4    0    0  0.14756523701E-01 -0.39520682466E-01 -0.65136932935E-01  0.77606188462E-01  0.51100000000E-03 0.  1.
         11    1    4    4    0    0  0.16640207483E-01 -0.13803171998E-01 -0.51487916921E-01  0.55845239476E-01  0.51100000000E-03 0. -1.
</event>
<event>
 8    1  0.1051655E+005  0.1043930E+01  0.7957747E-01            NaN
         13   -1    0    0    0    0  0.00000000000E+00  0.00000000000E+00  0.74505805969E-08  0.10566000000E+00  0.10566000000E+00 0. -1.
     999900   -1    0    0    0    0 -0.00000000000E+00 -0.00000000000E+00 -0.74505805969E-08  0.93827000000E+00  0.93827000000E+00 0. -1.
     999902    2    1    2    0    0 -0.20554904449E-01 -0.12724069716E-01 -0.17490609607E-03  0.10197548756E+01  0.10194682779E+01 0.  0.
     999903    2    3    3    0    0  0.65934097645E-01  0.10384276090E-01 -0.10823714068E+00  0.12863659521E+00  0.19415369721E-01 0.  0.
         14    1    1    2    0    0  0.20554904449E-01  0.12724069716E-01  0.17490609607E-03  0.24175124388E-01  0.00000000000E+00 0. -1.
     999901    1    3    3    0    0 -0.86489002094E-01 -0.23108345806E-01  0.10806223458E+00  0.89111828041E+00  0.88000000000E+00 0.  1.
        -11    1    4    4    0    0  0.99237880972E-02 -0.46116172558E-03 -0.31373078094E-01  0.32912389619E-01  0.51100000000E-03 0.  1.
         11    1    4    4    0    0  0.56010309548E-01  0.10845437816E-01 -0.76864062587E-01  0.95724205588E-01  0.51100000000E-03 0. -1.
</event>
<event>
 8    1  0.1051655E+005  0.1043930E+01  0.7957747E-01            NaN
         13   -1    0    0    0    0  0.00000000000E+00  0.00000000000E+00  0.74505805969E-08  0.10566000000E+00  0.10566000000E+00 0.  1.
     999900   -1    0    0    0    0 -0.00000000000E+00 -0.00000000000E+00 -0.74505805969E-08  0.93827000000E+00  0.93827000000E+00 0. -1.
     999902    2    1    2    0    0  0.22080153289E-01  0.73541631712E-03  0.80965214905E-02  0.10204007062E+01  0.10201293906E+01 0.  0.
     999903    2    3    3    0    0 -0.25633446796E-01  0.12326770409E+00 -0.26125220521E-01  0.12997278840E+00  0.18931405380E-01 0.  0.
         14    1    1    2    0    0 -0.22080153289E-01 -0.73541631712E-03 -0.80965214905E-02  0.23529293799E-01  0.00000000000E+00 0.  1.
     999901    1    3    3    0    0  0.47713600085E-01 -0.12253228777E+00  0.34221742012E-01  0.89042791781E+00  0.88000000000E+00 0. -1.
        -11    1    4    4    0    0 -0.21127794822E-01  0.86928021804E-01 -0.26657358840E-01  0.93347418765E-01  0.51100000000E-03 0. -1.
         11    1    4    4    0    0 -0.45056519748E-02  0.36339682287E-01  0.53213831810E-03  0.36625369631E-01  0.51100000000E-03 0.  1.
</event>
<event>
 8    1  0.1051655E+005  0.1043930E+01  0.7957747E-01            NaN
         13   -1    0    0    0    0  0.00000000000E+00  0.00000000000E+00  0.74505805969E-08  0.10566000000E+00  0.10566000000E+00 0. -1.
     999900   -1    0    0    0    0 -0.00000000000E+00 -0.00000000000E+00 -0.74505805969E-08  0.93827000000E+00  0.93827000000E+00 0.  1.
     999902    2    1    2    0    0  0.70970755251E-02  0.22121018762E-01  0.45196717803E-02  0.10202628205E+01  0.10199882781E+01 0.  0.
     999903    2    3    3    0    0 -0.36058253054E-01 -0.85699762664E-01 -0.85299563755E-01  0.12809960766E+00  0.22109884015E-01 0.  0.
         14    1    1    2    0    0 -0.70970755251E-02 -0.22121018762E-01 -0.45196717803E-02  0.23667179491E-01  0.00000000000E+00 0.  1.
     999901    1    3    3    0    0  0.43155328579E-01  0.10782078143E+00  0.89819235536E-01  0.89216321285E+00  0.88000000000E+00 0. -1.
        -11    1    4    4    0    0  0.33266332131E-03 -0.19197158193E-01 -0.23076556355E-01  0.30023825902E-01  0.51100000000E-03 0. -1.
         11    1    4    4    0    0 -0.36390916375E-01 -0.66502604471E-01 -0.62223007401E-01  0.98075781756E-01  0.51100000000E-03 0.  1.
</event>
<event>
 8    1  0.1051655E+005  0.1043930E+01  0.7957747E-01            NaN
         13   -1    0    0    0    0  0.00000000000E+00  0.00000000000E+00  0.74505805969E-08  0.10566000000E+00  0.10566000000E+00 0. -1.
     999900   -1    0    0    0    0 -0.00000000000E+00 -0.00000000000E+00 -0.74505805969E-08  0.93827000000E+00  0.93827000000E+00 0. -1.
     999902    2    1    2    0    0  0.27920487082E-01 -0.51494804167E-02 -0.75625445364E-03  0.10155285446E+01  0.10151313128E+01 0.  0.
     999903    2    3    3    0    0  0.73376730695E-01 -0.32567385973E-01  0.98276810017E-01  0.12838393437E+00  0.19476241413E-01 0.  0.
         14    1    1    2    0    0 -0.27920487082E-01  0.51494804167E-02  0.75625445364E-03  0.28401455389E-01  0.00000000000E+00 0. -1.
     999901    1    3    3    0    0 -0.45456243613E-01  0.27417905556E-01 -0.99033064470E-01  0.88714461025E+00  0.88000000000E+00 0. -1.
        -11    1    4    4    0    0  0.40435079896E-01 -0.22791179605E-01  0.69420867175E-01  0.83510187847E-01  0.51100000000E-03 0. -1.
         11    1    4    4    0    0  0.32941650799E-01 -0.97762063673E-02  0.28855942842E-01  0.44873746519E-01  0.51100000000E-03 0.  1.
</event>
<event>
 8    1  0.1051655E+005  0.1043930E+01  0.7957747E-01            NaN
         13   -1    0    0    0    0  0.00000000000E+00  0.00000000000E+00  0.74505805969E-08  0.10566000000E+00  0.10566000000E+00 0. -1.
     999900   -1    0    0    0    0 -0.00000000000E+00 -0.00000000000E+00 -0.74505805969E-08  0.93827000000E+00  0.93827000000E+00 0.  1.
     999902    2    1    2    0    0 -0.22710092543E-01 -0.36903779929E-02 -0.88375229365E-02  0.10192831137E+01  0.10189850818E+01 0.  0.
     999903    2    3    3    0    0  0.10890281012E+00 -0.56720106997E-01  0.26583624053E-01  0.12721318036E+00  0.19987786241E-01 0.  0.
         14    1    1    2    0    0  0.22710092543E-01  0.36903779929E-02  0.88375229365E-02  0.24646886308E-01  0.00000000000E+00 0. -1.
     999901    1    3    3    0    0 -0.13161290266E+00  0.53029729004E-01 -0.35421146989E-01  0.89206993333E+00  0.88000000000E+00 0. -1.
        -11    1    4    4    0    0  0.70361822906E-01 -0.47112730790E-01  0.18354667757E-01  0.86646122098E-01  0.51100000000E-03 0. -1.
         11    1    4    4    0    0  0.38540987215E-01 -0.96073762071E-02  0.82289562951E-02  0.40567058259E-01  0.51100000000E-03 0.  1.
</event>
<event>
 8    1  0.1051655E+005  0.1043930E+01  0.7957747E-01            NaN
         13   -1    0    0    0    0  0.00000000000E+00  0.00000000000E+00  0.74505805969E-08  0.10566000000E+00  0.10566000000E+00 0. -1.
     999900   -1    0    0    0    0 -0.00000000000E+00 -0.00000000000E+00 -0.74505805969E-08  0.93827000000E+00  0.93827000000E+00 0.  1.
     999902    2    1    2    0    0  0.11858769927E-01  0.10552267658E-01 -0.11732028880E-01  0.10241911733E+01  0.10240009464E+01 0.  0.
     999903    2    3    3    0    0  0.60885822812E-03  0.95042454676E-01  0.92310492153E-01  0.13397210006E+00  0.19845849299E-01 0.  0.
         14    1    1    2    0    0 -0.11858769927E-01 -0.10552267658E-01  0.11732028880E-01  0.19738826676E-01  0.00000000000E+00 0. -1.
     999901    1    3    3    0    0  0.11249911699E-01 -0.84490187018E-01 -0.10404252103E+00  0.89021907326E+00  0.88000000000E+00 0.  1.
        -11    1    4    4    0    0 -0.71306398684E-02  0.53326154521E-01  0.60346856939E-01  0.80848803605E-01  0.51100000000E-03 0. -1.
         11    1    4    4    0    0  0.77394980966E-02  0.41716300154E-01  0.31963635214E-01  0.53123296457E-01  0.51100000000E-03 0.  1.
</event>
<event>
 8    1  0.1051655E+005  0.1043930E+01  0.7957747E-01            NaN
         13   -1    0    0    0    0  0.00000000000E+00  0.00000000000E+00  0.74505805969E-08  0.10566000000E+00  0.10566000000E+00 0.  1.
     999900   -1    0    0    0    0 -0.00000000000E+00 -0.00000000000E+00 -0.74505805969E-08  0.93827000000E+00  0.93827000000E+00 0.  1.
     999902    2    1    2    0    0  0.14401701824E-01 -0.13432715747E-01  0.11844457381E-01  0.10209487459E+01  0.10206900625E+01 0.  0.
     999903    2    3    3    0    0  0.89332753012E-01  0.90896361836E-01  0.24092927451E-01  0.13153925426E+00  0.21900157588E-01 0.  0.
         14    1    1    2    0    0 -0.14401701824E-01  0.13432715747E-01 -0.11844457381E-01  0.22981254065E-01  0.00000000000E+00 0.  1.
     999901    1    3    3    0    0 -0.74931051189E-01 -0.10432907758E+00 -0.12248470069E-01  0.88940949167E+00  0.88000000000E+00 0. -1.
        -11    1    4    4    0    0  0.31612778389E-01  0.42086050189E-01  0.15707132474E-02  0.52662431002E-01  0.51100000000E-03 0. -1.
         11    1    4    4    0    0  0.57719974624E-01  0.48810311647E-01  0.22522214203E-01  0.78876823258E-01  0.51100000000E-03 0.  1.
</event>
<event>
 8    1  0.1051655E+005  0.1043930E+01  0.7957747E-01            NaN
         13   -1    0    0    0    0  0.00000000000E+00  0.00000000000E+00  0.74505805969E-08  0.10566000000E+00  0.10566000000E+00 0.  1.
     999900   -1    0    0    0    0 -0.00000000000E+00 -0.00000000000E+00 -0.74505805969E-08  0.93827000000E+00  0.93827000000E+00 0. -1.
     999902    2    1    2    0    0 -0.20310377869E-01  0.56634712237E-02 -0.11393933101E-01  0.10199631882E+01  0.10196815666E+01 0.  0.
     999903    2    3    3    0    0  0.12081076716E+00  0.37646553769E-01 -0.85409374425E-02  0.12814132555E+00  0.18296098727E-01 0.  0.
         14    1    1    2    0    0  0.20310377869E-01 -0.56634712237E-02  0.11393933101E-01  0.23966811782E-01  0.00000000000E+00 0. -1.
     999901    1    3    3    0    0 -0.14112114503E+00 -0.31983082545E-01 -0.28529956581E-02  0.89182186267E+00  0.88000000000E+00 0.  1.
        -11    1    4    4    0    0  0.97448597161E-01  0.29928071937E-01 -0.14097873700E-01  0.10291224292E+00  0.51100000000E-03 0.  1.
         11    1    4    4    0    0  0.23362170003E-01  0.77184818320E-02  0.55569362574E-02  0.25229082635E-01  0.51100000000E-03 0. -1.
</event>
<event>
 8    1  0.1051655E+005  0.1043930E+01  0.7957747E-01            NaN
         13   -1    0    0    0    0  0.00000000000E+00  0.00000000000E+00  0.74505805969E-08  0.10566000000E+00  0.10566000000E+00 0.  1.
     999900   -1    0    0    0    0 -0.00000000000E+00 -0.00000000000E+00 -0.74505805969E-08  0.93827000000E+00  0.93827000000E+00 0. -1.
     999902    2    1    2    0    0 -0.10195268324E-01  0.23553862651E-01  0.17830858648E-03  0.10182636848E+01  0.10179401613E+01 0.  0.
     999903    2    3    3    0    0 -0.30235068873E-01 -0.35342623631E-01  0.11779334145E+00  0.12826161421E+00  0.20310341060E-01 0.  0.
         14    1    1    2    0    0  0.10195268324E-01 -0.23553862651E-01 -0.17830858648E-03  0.25666315200E-01  0.00000000000E+00 0.  1.
     999901    1    3    3    0    0  0.20039800550E-01  0.58896486282E-01 -0.11761503287E+00  0.89000207059E+00  0.88000000000E+00 0.  1.
        -11    1    4    4    0    0 -0.15473017979E-02 -0.96397597444E-02  0.10915080997E-01  0.14653300821E-01  0.51100000000E-03 0. -1.
         11    1    4    4    0    0 -0.28687767076E-01 -0.25702863887E-01  0.10687826046E+00  0.11360831339E+00  0.51100000000E-03 0.  1.
</event>
<event>
 8    1  0.1051655E+005  0.1043930E+01  0.7957747E-01            NaN
         13   -1    0    0    0    0  0.00000000000E+00  0.00000000000E+00  0.74505805969E-08  0.10566000000E+00  0.10566000000E+00 0. -1.
     999900   -1    0    0    0    0 -0.00000000000E+00 -0.00000000000E+00 -0.74505805969E-08  0.93827000000E+00  0.93827000000E+00 0. -1.
     999902    2    1    2    0    0  0.14668111724E-01  0.17891707437E-01 -0.50352378932E-02  0.10202525779E+01  0.10199777951E+01 0.  0.
     999903    2    3    3    0    0  0.12554635856E+00  0.28436055737E-01 -0.27603857420E-01  0.13294512753E+00  0.18491527141E-01 0.  0.
         14    1    1    2    0    0 -0.14668111724E-01 -0.17891707437E-01  0.50352378932E-02  0.23677422097E-01  0.00000000000E+00 0.  1.
     999901    1    3    3    0    0 -0.11087824683E+00 -0.10544348300E-01  0.22568619527E-01  0.88730745037E+00  0.88000000000E+00 0.  1.
        -11    1    4    4    0    0  0.83020552214E-01  0.18824496934E-01 -0.92230729682E-02  0.85627682269E-01  0.51100000000E-03 0.  1.
         11    1    4    4    0    0  0.42525806344E-01  0.96115588034E-02 -0.18380784452E-01  0.47317445259E-01  0.51100000000E-03 0. -1.
</event>
<event>
 8    1  0.1051655E+005  0.1043930E+01  0.7957747E-01            NaN
         13   -1    0    0    0    0  0.00000000000E+00  0.00000000000E+00  0.74505805969E-08  0.10566000000E+00  0.10566000000E+00 0. -1.
     999900   -1    0    0    0    0 -0.00000000000E+00 -0.00000000000E+00 -0.74505805969E-08  0.93827000000E+00  0.93827000000E+00 0.  1.
     999902    2    1    2    0    0 -0.81830597008E-02  0.25424874342E-01 -0.61696576258E-02  0.10165173865E+01  0.10161476988E+01 0.  0.
     999903    2    3    3    0    0 -0.54707182512E-01 -0.75763928116E-01  0.80768688172E-01  0.12524753755E+00  0.20744060648E-01 0.  0.
         14    1    1    2    0    0  0.81830597008E-02 -0.25424874342E-01  0.61696576258E-02  0.27412613458E-01  0.00000000000E+00 0.  1.
     999901    1    3    3    0    0  0.46524122811E-01  0.10118880246E+00 -0.86938345798E-01  0.89126984899E+00  0.88000000000E+00 0. -1.
        -11    1    4    4    0    0 -0.49377876499E-01 -0.54193124420E-01  0.65175315057E-01  0.98097666821E-01  0.51100000000E-03 0. -1.
         11    1    4    4    0    0 -0.53293060124E-02 -0.21570803696E-01  0.15593373116E-01  0.27149870732E-01  0.51100000000E-03 0.  1.
</event>
<event>
 8    1  0.1051655E+005  0.1043930E+01  0.7957747E-01            NaN
         13   -1    0    0    0    0  0.00000000000E+00  0.00000000000E+00  0.74505805969E-08  0.10566000000E+00  0.10566000000E+00 0.  1.
     999900   -1    0    0    0    0 -0.00000000000E+00 -0.00000000000E+00 -0.74505805969E-08  0.93827000000E+00  0.93827000000E+00 0. -1.
     999902    2    1    2    0    0  0.59173689616E-02  0.21904602121E-01 -0.55845728166E-02  0.10205630511E+01  0.10202955096E+01 0.  0.
     999903    2    3    3    0    0 -0.12343390668E+00 -0.20735968473E-01 -0.27913348313E-01  0.12980576369E+00  0.20111478521E-01 0.  0.
         14    1    1    2    0    0 -0.59173689616E-02 -0.21904602121E-01  0.55845728166E-02  0.23366948947E-01  0.00000000000E+00 0. -1.
     999901    1    3    3    0    0  0.12935127564E+00  0.42640570595E-01  0.22328775496E-01  0.89075728736E+00  0.88000000000E+00 0. -1.
        -11    1    4    4    0    0 -0.94831930677E-01 -0.17895869362E-01 -0.29781901961E-01  0.10099792088E+00  0.51100000000E-03 0.  1.
         11    1    4    4    0    0 -0.28601975998E-01 -0.28400991116E-02  0.18685536482E-02  0.28807842816E-01  0.51100000000E-03 0. -1.
</event>
<event>
 8    1  0.1051655E+005  0.1043930E+01  0.7957747E-01            NaN
         13   -1    0    0    0    0  0.00000000000E+00  0.00000000000E+00  0.74505805969E-08  0.10566000000E+00  0.10566000000E+00 0.  1.
     999900   -1    0    0    0    0 -0.00000000000E+00 -0.00000000000E+00 -0.74505805969E-08  0.93827000000E+00  0.93827000000E+00 0. -1.
     999902    2    1    2    0    0  0.17561791809E-01  0.15437617074E-01  0.40767361325E-02  0.10201948714E+01  0.10199187317E+01 0.  0.
     999903    2    3    3    0    0 -0.16639251819E-02  0.12894655383E+00  0.22939827753E-01  0.13249575393E+00  0.19972649355E-01 0.  0.
         14    1    1    2    0    0 -0.17561791809E-01 -0.15437617074E-01 -0.40767361325E-02  0.23735128606E-01  0.00000000000E+00 0. -1.
     999901    1    3    3    0    0  0.19225716991E-01 -0.11350893675E+00 -0.18863091620E-01  0.88769911746E+00  0.88000000000E+00 0. -1.
        -11    1    4    4    0    0 -0.23750917843E-02  0.11016153720E+00  0.12257257962E-01  0.11086797028E+00  0.51100000000E-03 0. -1.
         11    1    4    4    0    0  0.71116660237E-03  0.18785016624E-01  0.10682569791E-01  0.21627783655E-01  0.51100000000E-03 0.  1.
</event>
<event>
 8    1  0.1051655E+005  0.1043930E+01  0.7957747E-01            NaN
         13   -1    0    0    0    0  0.00000000000E+00  0.00000000000E+00  0.74505805969E-08  0.10566000000E+00  0.10566000000E+00 0.  1.
     999900   -1    0    0    0    0 -0.00000000000E+00 -0.00000000000E+00 -0.74505805969E-08  0.93827000000E+00  0.93827000000E+00 0. -1.
     999902    2    1    2    0    0  0.23126545232E-01 -0.61174696912E-02  0.77282767268E-03  0.10199955522E+01  0.10197146996E+01 0.  0.
     999903    2    3    3    0    0 -0.61700701791E-01 -0.10010295237E+00  0.51809199235E-01  0.12947118754E+00  0.15843535088E-01 0.  0.
         14    1    1    2    0    0 -0.23126545232E-01  0.61174696912E-02 -0.77282767268E-03  0.23934447819E-01  0.00000000000E+00 0.  1.
     999901    1    3    3    0    0  0.84827247023E-01  0.93985482677E-01 -0.51036371563E-01  0.89052436464E+00  0.88000000000E+00 0. -1.
        -11    1    4    4    0    0 -0.25806513236E-01 -0.54243853439E-01  0.31221588755E-01  0.67700963706E-01  0.51100000000E-03 0. -1.
         11    1    4    4    0    0 -0.35894188555E-01 -0.45859098929E-01  0.20587610480E-01  0.61770223837E-01  0.51100000000E-03 0.  1.
</event>
<event>
 8    1  0.1051655E+005  0.1043930E+01  0.7957747E-01            NaN
         13   -1    0    0    0    0  0.00000000000E+00  0.00000000000E+00  0.74505805969E-08  0.10566000000E+00  0.10566000000E+00 0.  1.
     999900   -1    0    0    0    0 -0.00000000000E+00 -0.00000000000E+00 -0.74505805969E-08  0.93827000000E+00  0.93827000000E+00 0. -1.
     999902    2    1    2    0    0  0.16248674687E-01 -0.48935540597E-02  0.16497121074E-01  0.10202631180E+01  0.10199885826E+01 0.  0.
     999903    2    3    3    0    0  0.10848946413E+00 -0.20904189013E-01  0.70752758466E-01  0.13363558748E+00  0.25408039396E-01 0.  0.
         14    1    1    2    0    0 -0.16248674687E-01  0.48935540597E-02 -0.16497121074E-01  0.23666882012E-01  0.00000000000E+00 0. -1.
     999901    1    3    3    0    0 -0.92240789438E-01  0.16010634953E-01 -0.54255637392E-01  0.88662753051E+00  0.88000000000E+00 0. -1.
        -11    1    4    4    0    0  0.40539382898E-01 -0.10624276177E-01  0.41378132992E-01  0.58895906657E-01  0.51100000000E-03 0.  1.
         11    1    4    4    0    0  0.67950081227E-01 -0.10279912836E-01  0.29374625474E-01  0.74739680822E-01  0.51100000000E-03 0. -1.
</event>
<event>
 8    1  0.1051655E+005  0.1043930E+01  0.7957747E-01            NaN
         13   -1    0    0    0    0  0.00000000000E+00  0.00000000000E+00  0.74505805969E-08  0.10566000000E+00  0.10566000000E+00 0.  1.
     999900   -1    0    0    0    0 -0.00000000000E+00 -0.00000000000E+00 -0.74505805969E-08  0.93827000000E+00  0.93827000000E+00 0.  1.
     999902    2    1    2    0    0 -0.98272155195E-02 -0.20832831086E-01  0.13653290889E-02  0.10208552272E+01  0.10205944100E+01 0.  0.
     999903    2    3    3    0    0  0.11153859568E+00 -0.52673550479E-01 -0.40808946067E-01  0.13095514235E+00  0.16386518331E-01 0.  0.
         14    1    1    2    0    0  0.98272155195E-02  0.20832831086E-01 -0.13653290889E-02  0.23074772793E-01  0.00000000000E+00 0. -1.
     999901    1    3    3    0    0 -0.12136581120E+00  0.31840719393E-01  0.42174275156E-01  0.88990008485E+00  0.88000000000E+00 0. -1.
        -11    1    4    4    0    0  0.83311534429E-01 -0.39820017887E-01 -0.37842547956E-01  0.99793612773E-01  0.51100000000E-03 0. -1.
         11    1    4    4    0    0  0.28227061251E-01 -0.12853532592E-01 -0.29663981109E-02  0.31161529579E-01  0.51100000000E-03 0.  1.
</event>
<event>
 8    1  0.1051655E+005  0.1043930E+01  0.7957747E-01            NaN
         13   -1    0    0    0    0  0.00000000000E+00  0.00000000000E+00  0.74505805969E-08  0.10566000000E+00  0.10566000000E+00 0. -1.
     999900   -1    0    0    0    0 -0.00000000000E+00 -0.00000000000E+00 -0.74505805969E-08  0.93827000000E+00  0.93827000000E+00 0.  1.
     999902    2    1    2    0    0  0.74536594533E-02 -0.20410968542E-01  0.85498891378E-02  0.10205790840E+01  0.10203119137E+01 0.  0.
     999903    2    3    3    0    0  0.11984051549E+00  0.43789878203E-01  0.21607042841E-01  0.13101568351E+00  0.20468083455E-01 0.  0.
         14    1    1    2    0    0 -0.74536594533E-02  0.20410968542E-01 -0.85498891378E-02  0.23350916049E-01  0.00000000000E+00 0. -1.
     999901    1    3    3    0    0 -0.11238685604E+00 -0.64200846744E-01 -0.13057153703E-01  0.88956340044E+00  0.88000000000E+00 0.  1.
        -11    1    4    4    0    0  0.72229962127E-01  0.25104863799E-01  0.28069087336E-02  0.76521640552E-01  0.51100000000E-03 0.  1.
         11    1    4    4    0    0  0.47610553365E-01  0.18685014404E-01  0.18800134107E-01  0.54494042963E-01  0.51100000000E-03 0. -1.
</event>
<event>
 8    1  0.1051655E+005  0.1043930E+01  0.7957747E-01            NaN
         13   -1    0    0    0    0  0.00000000000E+00  0.00000000000E+00  0.74505805969E-08  0.10566000000E+00  0.10566000000E+00 0. -1.
     999900   -1    0    0    0    0 -0.00000000000E+00 -0.00000000000E+00 -0.74505805969E-08  0.93827000000E+00  0.93827000000E+00 0.  1.
     999902    2    1    2    0    0  0.15910830088E-01 -0.16167022849E-01  0.60351827046E-02  0.10204576637E+01  0.10201876753E+01 0.  0.
     999903    2    3    3    0    0 -0.14543383516E-01 -0.75709828390E-01 -0.10410259922E+00  0.13107409299E+00  0.19989461467E-01 0.  0.
         14    1    1    2    0    0 -0.15910830088E-01  0.16167022849E-01 -0.60351827046E-02  0.23472336317E-01  0.00000000000E+00 0.  1.
     999901    1    3    3    0    0  0.30454213604E-01  0.59542805541E-01  0.11013778192E+00  0.88938357070E+00  0.88000000000E+00 0. -1.
        -11    1    4    4    0    0 -0.14171730688E-01 -0.45328692370E-01 -0.49601111144E-01  0.68673573159E-01  0.51100000000E-03 0.  1.
         11    1    4    4    0    0 -0.37165282838E-03 -0.30381136020E-01 -0.54501488073E-01  0.62400519828E-01  0.51100000000E-03 0. -1.
</event>
<event>
 8    1  0.1051655E+005  0.1043930E+01  0.7957747E-01            NaN
         13   -1    0    0    0    0  0.00000000000E+00  0.00000000000E+00  0.74505805969E-08  0.10566000000E+00  0.10566000000E+00 0. -1.
     999900   -1    0    0    0    0 -0.00000000000E+00 -0.00000000000E+00 -0.74505805969E-08  0.93827000000E+00  0.93827000000E+00 0. -1.
     999902    2    1    2    0    0 -0.10389669082E-01  0.13678336667E-01  0.77251984294E-02  0.10250959668E+01  0.10249229338E+01 0.  0.
     999903    2    3    3    0    0 -0.66529186091E-01  0.87708368072E-01  0.79877754996E-01  0.13726823440E+00  0.18526251626E-01 0.  0.
         14    1    1    2    0    0  0.10389669082E-01 -0.13678336667E-01 -0.77251984294E-02  0.18834033248E-01  0.00000000000E+00 0.  1.
     999901    1    3    3    0    0  0.56139517010E-01 -0.74030031405E-01 -0.72152556567E-01  0.88782773236E+00  0.88000000000E+00 0. -1.
        -11    1    4    4    0    0 -0.59259711513E-01  0.65846547392E-01  0.63061621278E-01  0.10874056470E+00  0.51100000000E-03 0. -1.
         11    1    4    4    0    0 -0.72694745778E-02  0.21861820680E-01  0.16816133718E-01  0.28527669696E-01  0.51100000000E-03 0.  1.
</event>
<event>
 8    1  0.1051655E+005  0.1043930E+01  0.7957747E-01            NaN
         13   -1    0    0    0    0  0.00000000000E+00  0.00000000000E+00  0.74505805969E-08  0.10566000000E+00  0.10566000000E+00 0.  1.
     999900   -1    0    0    0    0 -0.00000000000E+00 -0.00000000000E+00 -0.74505805969E-08  0.93827000000E+00  0.93827000000E+00 0. -1.
     999902    2    1    2    0    0  0.36217183806E-02 -0.59715109373E-02 -0.19764167269E-01  0.10229681753E+01  0.10227533865E+01 0.  0.
     999903    2    3    3    0    0  0.12439649329E+00 -0.49911300342E-02  0.41043004177E-01  0.13263957332E+00  0.20231888131E-01 0.  0.
         14    1    1    2    0    0 -0.36217183806E-02  0.59715109373E-02  0.19764167269E-01  0.20961824699E-01  0.00000000000E+00 0.  1.
     999901    1    3    3    0    0 -0.12077477491E+00 -0.98038090312E-03 -0.60807171446E-01  0.89032860198E+00  0.88000000000E+00 0. -1.
        -11    1    4    4    0    0  0.19337370590E-01  0.12028879020E-02 -0.76522512222E-03  0.19396585554E-01  0.51100000000E-03 0.  1.
         11    1    4    4    0    0  0.10505912270E+00 -0.61940179362E-02  0.41808229299E-01  0.11324298777E+00  0.51100000000E-03 0. -1.
</event>
<event>
 8    1  0.1051655E+005  0.1043930E+01  0.7957747E-01            NaN
         13   -1    0    0    0    0  0.00000000000E+00  0.00000000000E+00  0.74505805969E-08  0.10566000000E+00  0.10566000000E+00 0. -1.
     999900   -1    0    0    0    0 -0.00000000000E+00 -0.00000000000E+00 -0.74505805969E-08  0.93827000000E+00  0.93827000000E+00 0. -1.
     999902    2    1    2    0    0  0.53692819992E-03  0.11542164124E-01  0.20843329874E-01  0.10200982094E+01  0.10198197892E+01 0.  0.
     999903    2    3    3    0    0  0.10172391286E+00 -0.77655552916E-01 -0.51905457680E-02  0.12943957596E+00  0.18695526525E-01 0.  0.
         14    1    1    2    0    0 -0.53692819992E-03 -0.11542164124E-01 -0.20843329874E-01  0.23831790633E-01  0.00000000000E+00 0.  1.
     999901    1    3    3    0    0 -0.10118698466E+00  0.89197717041E-01  0.26033875642E-01  0.89065863341E+00  0.88000000000E+00 0. -1.
        -11    1    4    4    0    0  0.26326373561E-01 -0.20024553075E-01  0.68333806349E-02  0.33778941408E-01  0.51100000000E-03 0. -1.
         11    1    4    4    0    0  0.75397539298E-01 -0.57630999841E-01 -0.12023926403E-01  0.95660634547E-01  0.51100000000E-03 0.  1.
</event>
<event>
 8    1  0.1051655E+005  0.1043930E+01  0.7957747E-01            NaN
         13   -1    0    0    0    0  0.00000000000E+00  0.00000000000E+00  0.74505805969E-08  0.10566000000E+00  0.10566000000E+00 0. -1.
     999900   -1    0    0    0    0 -0.00000000000E+00 -0.00000000000E+00 -0.74505805969E-08  0.93827000000E+00  0.93827000000E+00 0. -1.
     999902    2    1    2    0    0  0.19224559204E-01  0.26031780011E-02  0.16952737691E-01  0.10181665467E+01  0.10178405382E+01 0.  0.
     999903    2    3    3    0    0  0.49735987856E-01 -0.11745379408E+00 -0.64744317102E-03  0.12931650859E+00  0.21290326002E-01 0.  0.
         14    1    1    2    0    0 -0.19224559204E-01 -0.26031780011E-02 -0.16952737691E-01  0.25763453330E-01  0.00000000000E+00 0.  1.
     999901    1    3    3    0    0 -0.30511428652E-01  0.12005697208E+00  0.17600180862E-01  0.88885003808E+00  0.88000000000E+00 0.  1.
        -11    1    4    4    0    0  0.44389397411E-01 -0.81954819397E-01 -0.37402796706E-02  0.93280554447E-01  0.51100000000E-03 0. -1.
         11    1    4    4    0    0  0.53465904454E-02 -0.35498974679E-01  0.30928364995E-02  0.36035954147E-01  0.51100000000E-03 0.  1.
</event>
<event>
 8    1  0.1051655E+005  0.1043930E+01  0.7957747E-01            NaN
         13   -1    0    0    0    0  0.00000000000E+00  0.00000000000E+00  0.74505805969E-08  0.10566000000E+00  0.10566000000E+00 0.  1.
     999900   -1    0    0    0    0 -0.00000000000E+00 -0.00000000000E+00 -0.74505805969E-08  0.93827000000E+00  0.93827000000E+00 0. -1.
     999902    2    1    2    0    0  0.90026146481E-03  0.70182423898E-02 -0.85074520399E-02  0.10328646063E+01  0.10328053312E+01 0.  0.
     999903    2    3    3    0    0  0.62296059434E-02  0.14110958420E+00 -0.76093301805E-03  0.14265738415E+00  0.19995686799E-01 0.  0.
         14    1    1    2    0    0 -0.90026146481E-03 -0.70182423898E-02  0.85074520399E-02  0.11065393674E-01  0.00000000000E+00 0. -1.
     999901    1    3    3    0    0 -0.53293444786E-02 -0.13409134181E+00 -0.77465190219E-02  0.89020722218E+00  0.88000000000E+00 0.  1.
        -11    1    4    4    0    0  0.68779583182E-02  0.24479946780E-01 -0.51208306502E-02  0.25943363940E-01  0.51100000000E-03 0.  1.
         11    1    4    4    0    0 -0.64835237479E-03  0.11662963742E+00  0.43598976322E-02  0.11671402021E+00  0.51100000000E-03 0. -1.
</event>
<event>
 8    1  0.1051655E+005  0.1043930E+01  0.7957747E-01            NaN
         13   -1    0    0    0    0  0.00000000000E+00  0.00000000000E+00  0.74505805969E-08  0.10566000000E+00  0.10566000000E+00 0. -1.
     999900   -1    0    0    0    0 -0.00000000000E+00 -0.00000000000E+00 -0.74505805969E-08  0.93827000000E+00  0.93827000000E+00 0. -1.
     999902    2    1    2    0    0 -0.13293885379E-01  0.18868478639E-01 -0.49929893535E-02  0.10203148181E+01  0.10200414948E+01 0.  0.
     999903    2    3    3    0    0 -0.11080808522E+00  0.66307398346E-01  0.24369330037E-01  0.13317243036E+00  0.21585391758E-01 0.  0.
         14    1    1    2    0    0  0.13293885379E-01 -0.18868478639E-01  0.49929893535E-02  0.23615181924E-01  0.00000000000E+00 0. -1.
     999901    1    3    3    0    0  0.97514199841E-01 -0.47438919707E-01 -0.29362319391E-01  0.88714238771E+00  0.88000000000E+00 0.  1.
        -11    1    4    4    0    0 -0.29450170673E-01  0.29180323402E-01  0.90865935314E-02  0.42445625563E-01  0.51100000000E-03 0. -1.
         11    1    4    4    0    0 -0.81357914547E-01  0.37127074944E-01  0.15282736506E-01  0.90726804802E-01  0.51100000000E-03 0.  1.
</event>
<event>
 8    1  0.1051655E+005  0.1043930E+01  0.7957747E-01            NaN
         13   -1    0    0    0    0  0.00000000000E+00  0.00000000000E+00  0.74505805969E-08  0.10566000000E+00  0.10566000000E+00 0.  1.
     999900   -1    0    0    0    0 -0.00000000000E+00 -0.00000000000E+00 -0.74505805969E-08  0.93827000000E+00  0.93827000000E+00 0. -1.
     999902    2    1    2    0    0 -0.15054308000E-01  0.13499749084E-01  0.11388955912E-01  0.10207225932E+01  0.10204587343E+01 0.  0.
     999903    2    3    3    0    0 -0.91121409735E-01  0.30941555054E-02  0.95550143468E-01  0.13337960096E+00  0.18644112352E-01 0.  0.
         14    1    1    2    0    0  0.15054308000E-01 -0.13499749084E-01 -0.11388955912E-01  0.23207406823E-01  0.00000000000E+00 0.  1.
     999901    1    3    3    0    0  0.76067101735E-01  0.10405593578E-01 -0.84161187556E-01  0.88734299222E+00  0.88000000000E+00 0. -1.
        -11    1    4    4    0    0 -0.37722919389E-01  0.99118128902E-02  0.35660830838E-01  0.52850909728E-01  0.51100000000E-03 0.  1.
         11    1    4    4    0    0 -0.53398490345E-01 -0.68176573848E-02  0.59889312629E-01  0.80528691232E-01  0.51100000000E-03 0. -1.
</event>
<event>
 8    1  0.1051655E+005  0.1043930E+01  0.7957747E-01            NaN
         13   -1    0    0    0    0  0.00000000000E+00  0.00000000000E+00  0.74505805969E-08  0.10566000000E+00  0.10566000000E+00 0.  1.
     999900   -1    0    0    0    0 -0.00000000000E+00 -0.00000000000E+00 -0.74505805969E-08  0.93827000000E+00  0.93827000000E+00 0. -1.
     999902    2    1    2    0    0 -0.69550889831E-02  0.22667883356E-01 -0.21712735801E-02  0.10201199049E+01  0.10198419975E+01 0.  0.
     999903    2    3    3    0    0  0.46514282772E-01 -0.19487448325E-01 -0.11808159368E+00  0.12991136306E+00  0.19757538822E-01 0.  0.
         14    1    1    2    0    0  0.69550889831E-02 -0.22667883356E-01  0.21712735801E-02  0.23810095077E-01  0.00000000000E+00 0.  1.
     999901    1    3    3    0    0 -0.53469371755E-01  0.42155331680E-01  0.11591032010E+00  0.89020854187E+00  0.88000000000E+00 0.  1.
        -11    1    4    4    0    0  0.41814153200E-01 -0.11056302870E-01 -0.83957727479E-01  0.94444832391E-01  0.51100000000E-03 0.  1.
         11    1    4    4    0    0  0.47001295723E-02 -0.84311454549E-02 -0.34123866205E-01  0.35466530666E-01  0.51100000000E-03 0. -1.
</event>
<event>
 8    1  0.1051655E+005  0.1043930E+01  0.7957747E-01            NaN
         13   -1    0    0    0    0  0.00000000000E+00  0.00000000000E+00  0.74505805969E-08  0.10566000000E+00  0.10566000000E+00 0.  1.
     999900   -1    0    0    0    0 -0.00000000000E+00 -0.00000000000E+00 -0.74505805969E-08  0.93827000000E+00  0.93827000000E+00 0.  1.
     999902    2    1    2    0    0  0.25476573668E-01  0.15867239791E-02 -0.67118178466E-02  0.10175364023E+01  0.10171940366E+01 0.  0.
     999903    2    3    3    0    0  0.25776680344E-01 -0.84884555362E-01 -0.91950619148E-01  0.12919917726E+00  0.19175141546E-01 0.  0.
         14    1    1    2    0    0 -0.25476573668E-01 -0.15867239791E-02  0.67118178466E-02  0.26393597664E-01  0.00000000000E+00 0.  1.
     999901    1    3    3    0    0 -0.30010667592E-03  0.86471279342E-01  0.85238801301E-01  0.88833722508E+00  0.88000000000E+00 0. -1.
        -11    1    4    4    0    0  0.27117093257E-01 -0.62956908319E-01 -0.73500746123E-01  0.10050636723E+00  0.51100000000E-03 0.  1.
         11    1    4    4    0    0 -0.13404129131E-02 -0.21927647044E-01 -0.18449873025E-01  0.28692810028E-01  0.51100000000E-03 0. -1.
</event>
<event>
 8    1  0.1051655E+005  0.1043930E+01  0.7957747E-01            NaN
         13   -1    0    0    0    0  0.00000000000E+00  0.00000000000E+00  0.74505805969E-08  0.10566000000E+00  0.10566000000E+00 0. -1.
     999900   -1    0    0    0    0 -0.00000000000E+00 -0.00000000000E+00 -0.74505805969E-08  0.93827000000E+00  0.93827000000E+00 0.  1.
     999902    2    1    2    0    0  0.11991805255E-01  0.62788139411E-02 -0.15080384915E-01  0.10236656247E+01  0.10234650293E+01 0.  0.
     999903    2    3    3    0    0 -0.56584173486E-01  0.96548670280E-01 -0.71683105883E-01  0.13459016116E+00  0.21275088467E-01 0.  0.
         14    1    1    2    0    0 -0.11991805255E-01 -0.62788139411E-02  0.15080384915E-01  0.20264375316E-01  0.00000000000E+00 0. -1.
     999901    1    3    3    0    0  0.68575978741E-01 -0.90269856339E-01  0.56602720968E-01  0.88907546353E+00  0.88000000000E+00 0. -1.
        -11    1    4    4    0    0 -0.44367202040E-01  0.82175950448E-01 -0.67586545208E-01  0.11528025704E+00  0.51100000000E-03 0. -1.
         11    1    4    4    0    0 -0.12216971446E-01  0.14372719832E-01 -0.40965606757E-02  0.19309904118E-01  0.51100000000E-03 0.  1.
</event>
<event>
 8    1  0.1051655E+005  0.1043930E+01  0.7957747E-01            NaN
         13   -1    0    0    0    0  0.00000000000E+00  0.00000000000E+00  0.74505805969E-08  0.10566000000E+00  0.10566000000E+00 0.  1.
     999900   -1    0    0    0    0 -0.00000000000E+00 -0.00000000000E+00 -0.74505805969E-08  0.93827000000E+00  0.93827000000E+00 0. -1.
     999902    2    1    2    0    0 -0.18287210443E-01  0.12877631855E-01  0.63632703996E-02  0.10206760395E+01  0.10204111088E+01 0.  0.
     999903    2    3    3    0    0  0.96680097037E-01  0.85202119457E-01 -0.33178475231E-02  0.13020311048E+00  0.18313916684E-01 0.  0.
         14    1    1    2    0    0  0.18287210443E-01 -0.12877631855E-01 -0.63632703996E-02  0.23253960483E-01  0.00000000000E+00 0. -1.
     999901    1    3    3    0    0 -0.11496730748E+00 -0.72324487602E-01  0.96811179227E-02  0.89047292903E+00  0.88000000000E+00 0.  1.
        -11    1    4    4    0    0  0.64768212172E-01  0.59942196471E-01 -0.10494196205E-01  0.88872816433E-01  0.51100000000E-03 0. -1.
         11    1    4    4    0    0  0.31911884865E-01  0.25259922986E-01  0.71763486819E-02  0.41330294051E-01  0.51100000000E-03 0.  1.
</event>
<event>
 8    1  0.1051655E+005  0.1043930E+01  0.7957747E-01            NaN
         13   -1    0    0    0    0  0.00000000000E+00  0.00000000000E+00  0.74505805969E-08  0.10566000000E+00  0.10566000000E+00 0.  1.
     999900   -1    0    0    0    0 -0.00000000000E+00 -0.00000000000E+00 -0.74505805969E-08  0.93827000000E+00  0.93827000000E+00 0. -1.
     999902    2    1    2    0    0  0.34334326954E-02  0.22291173369E-01  0.74801855430E-02  0.10201678863E+01  0.10198911110E+01 0.  0.
     999903    2    3    3    0    0 -0.10948903474E-01  0.60008812460E-02  0.12934190379E+00  0.13150456224E+00  0.20204770531E-01 0.  0.
         14    1    1    2    0    0 -0.34334326954E-02 -0.22291173369E-01 -0.74801855430E-02  0.23762113668E-01  0.00000000000E+00 0. -1.
     999901    1    3    3    0    0  0.14382336169E-01  0.16290292123E-01 -0.12186171824E+00  0.88866332409E+00  0.88000000000E+00 0. -1.
        -11    1    4    4    0    0 -0.11432895455E-01 -0.50553070387E-02  0.60903057375E-01  0.62174840139E-01  0.51100000000E-03 0. -1.
         11    1    4    4    0    0  0.48399198078E-03  0.11056188285E-01  0.68438846411E-01  0.69329722102E-01  0.51100000000E-03 0.  1.
</event>
<event>
 8    1  0.1051655E+005  0.1043930E+01  0.7957747E-01            NaN
         13   -1    0    0    0    0  0.00000000000E+00  0.00000000000E+00  0.74505805969E-08  0.10566000000E+00  0.10566000000E+00 0. -1.
     999900   -1    0    0    0    0 -0.00000000000E+00 -0.00000000000E+00 -0.74505805969E-08  0.93827000000E+00  0.93827000000E+00 0. -1.
     999902    2    1    2    0    0  0.11659902558E-01  0.70337900460E-02  0.17302771060E-01  0.10219115210E+01  0.10216742844E+01 0.  0.
     999903    2    3    3    0    0 -0.40880915655E-01 -0.28454505239E-01 -0.11767067617E+00  0.12936584256E+00  0.20204580163E-01 0.  0.
         14    1    1    2    0    0 -0.11659902558E-01 -0.70337900460E-02 -0.17302771060E-01  0.22018478976E-01  0.00000000000E+00 0.  1.
     999901    1    3    3    0    0  0.52540818213E-01  0.35488295285E-01  0.13497344723E+00  0.89254567846E+00  0.88000000000E+00 0.  1.
        -11    1    4    4    0    0 -0.33175467186E-01 -0.18232245900E-01 -0.65584429656E-01  0.75727174434E-01  0.51100000000E-03 0.  1.
         11    1    4    4    0    0 -0.77054484693E-02 -0.10222259339E-01 -0.52086246511E-01  0.53638668130E-01  0.51100000000E-03 0. -1.
</event>
<event>
 8    1  0.1051655E+005  0.1043930E+01  0.7957747E-01            NaN
         13   -1    0    0    0    0  0.00000000000E+00  0.00000000000E+00  0.74505805969E-08  0.10566000000E+00  0.10566000000E+00 0.  1.
     999900   -1    0    0    0    0 -0.00000000000E+00 -0.00000000000E+00 -0.74505805969E-08  0.93827000000E+00  0.93827000000E+00 0. -1.
     999902    2    1    2    0    0  0.17164618089E-01 -0.16277104697E-01  0.12269562253E-02  0.10202430062E+01  0.10199679986E+01 0.  0.
     999903    2    3    3    0    0 -0.69879317972E-01 -0.82767119586E-01 -0.70570457508E-01  0.13055067881E+00  0.18159710891E-01 0.  0.
         14    1    1    2    0    0 -0.17164618089E-01  0.16277104697E-01 -0.12269562253E-02  0.23686993753E-01  0.00000000000E+00 0.  1.
     999901    1    3    3    0    0  0.87043936061E-01  0.66490014889E-01  0.71797413733E-01  0.88969232744E+00  0.88000000000E+00 0. -1.
        -11    1    4    4    0    0 -0.57614495237E-01 -0.57255583139E-01 -0.48054608303E-01  0.94377636981E-01  0.51100000000E-03 0. -1.
         11    1    4    4    0    0 -0.12264822735E-01 -0.25511536448E-01 -0.22515849205E-01  0.36173041827E-01  0.51100000000E-03 0.  1.
</event>
<event>
 8    1  0.1051655E+005  0.1043930E+01  0.7957747E-01            NaN
         13   -1    0    0    0    0  0.00000000000E+00  0.00000000000E+00  0.74505805969E-08  0.10566000000E+00  0.10566000000E+00 0.  1.
     999900   -1    0    0    0    0 -0.00000000000E+00 -0.00000000000E+00 -0.74505805969E-08  0.93827000000E+00  0.93827000000E+00 0. -1.
     999902    2    1    2    0    0 -0.11398539815E-01  0.17680938336E-01 -0.10770029663E-01  0.10202966374E+01  0.10200228882E+01 0.  0.
     999903    2    3    3    0    0 -0.28711218124E-02 -0.86347966922E-01 -0.95640037128E-01  0.13007326756E+00  0.17544899532E-01 0.  0.
         14    1    1    2    0    0  0.11398539815E-01 -0.17680938336E-01  0.10770029663E-01  0.23633362632E-01  0.00000000000E+00 0.  1.
     999901    1    3    3    0    0 -0.85274180029E-02  0.10402890526E+00  0.84870007465E-01  0.89022336981E+00  0.88000000000E+00 0. -1.
        -11    1    4    4    0    0 -0.73299446258E-02 -0.71935087845E-01 -0.72130055150E-01  0.10213418100E+00  0.51100000000E-03 0. -1.
         11    1    4    4    0    0  0.44588228135E-02 -0.14412879077E-01 -0.23509981978E-01  0.27939086560E-01  0.51100000000E-03 0.  1.
</event>
<event>
 8    1  0.1051655E+005  0.1043930E+01  0.7957747E-01            NaN
         13   -1    0    0    0    0  0.00000000000E+00  0.00000000000E+00  0.74505805969E-08  0.10566000000E+00  0.10566000000E+00 0.  1.
     999900   -1    0    0    0    0 -0.00000000000E+00 -0.00000000000E+00 -0.74505805969E-08  0.93827000000E+00  0.93827000000E+00 0.  1.
     999902    2    1    2    0    0 -0.14120704997E-01  0.16667345573E-01 -0.80137136141E-02  0.10206616884E+01  0.10203964268E+01 0.  0.
     999903    2    3    3    0    0  0.64861893190E-01 -0.31568146858E-01 -0.10668524897E+00  0.13032412017E+00  0.19975506645E-01 0.  0.
         14    1    1    2    0    0  0.14120704997E-01 -0.16667345573E-01  0.80137136141E-02  0.23268311584E-01  0.00000000000E+00 0. -1.
     999901    1    3    3    0    0 -0.78982598187E-01  0.48235492432E-01  0.98671535354E-01  0.89033756825E+00  0.88000000000E+00 0.  1.
        -11    1    4    4    0    0  0.60397131480E-01 -0.27197224661E-01 -0.85067763744E-01  0.10781599172E+00  0.51100000000E-03 0. -1.
         11    1    4    4    0    0  0.44647617107E-02 -0.43709221973E-02 -0.21617485224E-01  0.22508128452E-01  0.51100000000E-03 0.  1.
</event>
<event>
 8    1  0.1051655E+005  0.1043930E+01  0.7957747E-01            NaN
         13   -1    0    0    0    0  0.00000000000E+00  0.00000000000E+00  0.74505805969E-08  0.10566000000E+00  0.10566000000E+00 0. -1.
     999900   -1    0    0    0    0 -0.00000000000E+00 -0.00000000000E+00 -0.74505805969E-08  0.93827000000E+00  0.93827000000E+00 0. -1.
     999902    2    1    2    0    0  0.75583816831E-02  0.18467038421E-01 -0.20941902090E-02  0.10238664441E+01  0.10236698438E+01 0.  0.
     999903    2    3    3    0    0  0.35932613851E-01  0.12993910232E+00  0.58840749566E-02  0.13634474253E+00  0.19492137597E-01 0.  0.
         14    1    1    2    0    0 -0.75583816831E-02 -0.18467038421E-01  0.20941902090E-02  0.20063555874E-01  0.00000000000E+00 0.  1.
     999901    1    3    3    0    0 -0.28374232168E-01 -0.11147206390E+00 -0.79782651656E-02  0.88752170159E+00  0.88000000000E+00 0.  1.
        -11    1    4    4    0    0  0.22318477990E-01  0.45726276787E-01  0.34662614199E-02  0.51002773824E-01  0.51100000000E-03 0. -1.
         11    1    4    4    0    0  0.13614135861E-01  0.84212825535E-01  0.24178135368E-02  0.85341968709E-01  0.51100000000E-03 0.  1.
</event>
<event>
 8    1  0.1051655E+005  0.1043930E+01  0.7957747E-01            NaN
         13   -1    0    0    0    0  0.00000000000E+00  0.00000000000E+00  0.74505805969E-08  0.10566000000E+00  0.10566000000E+00 0. -1.
     999900   -1    0    0    0    0 -0.00000000000E+00 -0.00000000000E+00 -0.74505805969E-08  0.93827000000E+00  0.93827000000E+00 0. -1.
     999902    2    1    2    0    0 -0.10112206543E-01 -0.22308193920E-02 -0.21079390165E-01  0.10204443881E+01  0.10201740907E+01 0.  0.
     999903    2    3    3    0    0  0.19249862615E-01 -0.12678064413E+00 -0.19320072605E-01  0.13118745946E+00  0.19824110989E-01 0.  0.
         14    1    1    2    0    0  0.10112206543E-01  0.22308193920E-02  0.21079390165E-01  0.23485611894E-01  0.00000000000E+00 0. -1.
     999901    1    3    3    0    0 -0.29362069159E-01  0.12454982474E+00 -0.17593175597E-02  0.88925692865E+00  0.88000000000E+00 0.  1.
        -11    1    4    4    0    0  0.19266968982E-01 -0.80439474404E-01 -0.18869453966E-01  0.84841278574E-01  0.51100000000E-03 0. -1.
         11    1    4    4    0    0 -0.17106366938E-04 -0.46341169729E-01 -0.45061863849E-03  0.46346180885E-01  0.51100000000E-03 0.  1.
</event>
<event>
 8    1  0.1051655E+005  0.1043930E+01  0.7957747E-01            NaN
         13   -1    0    0    0    0  0.00000000000E+00  0.00000000000E+00  0.74505805969E-08  0.10566000000E+00  0.10566000000E+00 0. -1.
     999900   -1    0    0    0    0 -0.00000000000E+00 -0.00000000000E+00 -0.74505805969E-08  0.93827000000E+00  0.93827000000E+00 0.  1.
     999902    2    1    2    0    0 -0.24755371698E-02 -0.98746418307E-02 -0.21373361107E-01  0.10202560185E+01  0.10199813164E+01 0.  0.
     999903    2    3    3    0    0  0.96440195987E-01  0.79687704214E-01  0.24202975829E-01  0.12903049227E+00  0.20303750681E-01 0.  0.
         14    1    1    2    0    0  0.24755371698E-02  0.98746418307E-02  0.21373361107E-01  0.23673981511E-01  0.00000000000E+00 0. -1.
     999901    1    3    3    0    0 -0.98915733157E-01 -0.89562346044E-01 -0.45576336936E-01  0.89122552622E+00  0.88000000000E+00 0.  1.
        -11    1    4    4    0    0  0.44135254291E-01  0.32665418541E-01  0.20446697917E-01  0.58594187565E-01  0.51100000000E-03 0. -1.
         11    1    4    4    0    0  0.52304941696E-01  0.47022285673E-01  0.37562779120E-02  0.70436304705E-01  0.51100000000E-03 0.  1.
</event>
<event>
 8    1  0.1051655E+005  0.1043930E+01  0.7957747E-01            NaN
         13   -1    0    0    0    0  0.00000000000E+00  0.00000000000E+00  0.74505805969E-08  0.10566000000E+00  0.10566000000E+00 0.  1.
     999900   -1    0    0    0    0 -0.00000000000E+00 -0.00000000000E+00 -0.74505805969E-08  0.93827000000E+00  0.93827000000E+00 0.  1.
     999902    2    1    2    0    0  0.73344640216E-02 -0.23570315321E-01  0.14195049292E-02  0.10192041204E+01  0.10189041515E+01 0.  0.
     999903    2    3    3    0    0 -0.48407624325E-01  0.28848075299E-01 -0.11364441704E+00  0.12842099629E+00  0.20034700484E-01 0.  0.
         14    1    1    2    0    0 -0.73344640216E-02  0.23570315321E-01 -0.14195049292E-02  0.24725879581E-01  0.00000000000E+00 0.  1.
     999901    1    3    3    0    0  0.55742088347E-01 -0.52418390620E-01  0.11506392197E+00  0.89078312413E+00  0.88000000000E+00 0. -1.
        -11    1    4    4    0    0 -0.30328686123E-01  0.28533484384E-01 -0.76240059022E-01  0.86872300842E-01  0.51100000000E-03 0.  1.
         11    1    4    4    0    0 -0.18078938202E-01  0.31459091560E-03 -0.37404358018E-01  0.41548695451E-01  0.51100000000E-03 0. -1.
</event>
<event>
 8    1  0.1051655E+005  0.1043930E+01  0.7957747E-01            NaN
         13   -1    0    0    0    0  0.00000000000E+00  0.00000000000E+00  0.74505805969E-08  0.10566000000E+00  0.10566000000E+00 0.  1.
     999900   -1    0    0    0    0 -0.00000000000E+00 -0.00000000000E+00 -0.74505805969E-08  0.93827000000E+00  0.93827000000E+00 0. -1.
     999902    2    1    2    0    0 -0.93470964371E-02 -0.21596339464E-01  0.57977769574E-02  0.10196939874E+01  0.10194059268E+01 0.  0.
     999903    2    3    3    0    0  0.34283889668E-01  0.74206704818E-01  0.98108140195E-01  0.12862547744E+00  0.15404095039E-01 0.  0.
         14    1    1    2    0    0  0.93470964371E-02  0.21596339464E-01 -0.57977769574E-02  0.24236012620E-01  0.00000000000E+00 0. -1.
     999901    1    3    3    0    0 -0.43630986105E-01 -0.95803044282E-01 -0.92310363238E-01  0.89106850994E+00  0.88000000000E+00 0. -1.
        -11    1    4    4    0    0  0.14366839215E-01  0.48253204912E-01  0.62728596040E-01  0.80435786410E-01  0.51100000000E-03 0.  1.
         11    1    4    4    0    0  0.19917050453E-01  0.25953499906E-01  0.35379544156E-01  0.48189691032E-01  0.51100000000E-03 0. -1.
</event>
<event>
 8    1  0.1051655E+005  0.1043930E+01  0.7957747E-01            NaN
         13   -1    0    0    0    0  0.00000000000E+00  0.00000000000E+00  0.74505805969E-08  0.10566000000E+00  0.10566000000E+00 0.  1.
     999900   -1    0    0    0    0 -0.00000000000E+00 -0.00000000000E+00 -0.74505805969E-08  0.93827000000E+00  0.93827000000E+00 0.  1.
     999902    2    1    2    0    0 -0.11269620276E-01 -0.21357403894E-01 -0.54905724824E-02  0.10191653189E+01  0.10188643962E+01 0.  0.
     999903    2    3    3    0    0 -0.42547118684E-02 -0.94558383740E-01 -0.90066802248E-01  0.13205724714E+00  0.19175430823E-01 0.  0.
         14    1    1    2    0    0  0.11269620276E-01  0.21357403894E-01  0.54905724824E-02  0.24764681069E-01  0.00000000000E+00 0.  1.
     999901    1    3    3    0    0 -0.70149084079E-02  0.73200979846E-01  0.84576229766E-01  0.88710807179E+00  0.88000000000E+00 0.  1.
        -11    1    4    4    0    0  0.43752081339E-02 -0.68838826759E-02 -0.49401269916E-02  0.95496734291E-02  0.51100000000E-03 0. -1.
         11    1    4    4    0    0 -0.86299200023E-02 -0.87674501064E-01 -0.85126675257E-01  0.12250757371E+00  0.51100000000E-03 0.  1.
</event>
<event>
 8    1  0.1051655E+005  0.1043930E+01  0.7957747E-01            NaN
         13   -1    0    0    0    0  0.00000000000E+00  0.00000000000E+00  0.74505805969E-08  0.10566000000E+00  0.10566000000E+00 0.  1.
     999900   -1    0    0    0    0 -0.00000000000E+00 -0.00000000000E+00 -0.74505805969E-08  0.93827000000E+00  0.93827000000E+00 0. -1.
     999902    2    1    2    0    0  0.19676827115E-01  0.94272648550E-02 -0.28231372936E-02  0.10219295238E+01  0.10216926792E+01 0.  0.
     999903    2    3    3    0    0  0.26771994875E-01 -0.24378997659E-01 -0.12564738661E+00  0.13272819622E+00  0.22769125447E-01 0.  0.
         14    1    1    2    0    0 -0.19676827115E-01 -0.94272648550E-02  0.28231372936E-02  0.22000476180E-01  0.00000000000E+00 0.  1.
     999901    1    3    3    0    0 -0.70951677593E-02  0.33806262514E-01  0.12282424931E+00  0.88920132760E+00  0.88000000000E+00 0.  1.
        -11    1    4    4    0    0  0.40087054836E-02  0.20694334977E-02 -0.39801630134E-01  0.40059744845E-01  0.51100000000E-03 0. -1.
         11    1    4    4    0    0  0.22763289391E-01 -0.26448431157E-01 -0.85845756472E-01  0.92668451373E-01  0.51100000000E-03 0.  1.
</event>
<event>
 8    1  0.1051655E+005  0.1043930E+01  0.7957747E-01            NaN
         13   -1    0    0    0    0  0.00000000000E+00  0.00000000000E+00  0.74505805969E-08  0.10566000000E+00  0.10566000000E+00 0. -1.
     999900   -1    0    0    0    0 -0.00000000000E+00 -0.00000000000E+00 -0.74505805969E-08  0.93827000000E+00  0.93827000000E+00 0.  1.
     999902    2    1    2    0    0  0.21253984086E-01  0.30914617862E-02 -0.96469914943E-02  0.10203852889E+01  0.10201136135E+01 0.  0.
     999903    2    3    3    0    0 -0.11160181587E+00 -0.59914427948E-01  0.10413114898E-02  0.12812151314E+00  0.19218059689E-01 0.  0.
         14    1    1    2    0    0 -0.21253984086E-01 -0.30914617862E-02  0.96469914943E-02  0.23544711092E-01  0.00000000000E+00 0.  1.
     999901    1    3    3    0    0  0.13285579996E+00  0.63005889735E-01 -0.10688302984E-01  0.89226377577E+00  0.88000000000E+00 0. -1.
        -11    1    4    4    0    0 -0.10224124176E+00 -0.48801819950E-01 -0.18059196757E-02  0.11330671478E+00  0.51100000000E-03 0. -1.
         11    1    4    4    0    0 -0.93605741065E-02 -0.11112607999E-01  0.28472311654E-02  0.14814798360E-01  0.51100000000E-03 0.  1.
</event>
<event>
 7    1  0.1051655E+005  0.1043930E+01  0.7957747E-01            NaN
         13   -1    0    0    0    0  0.00000000000E+00  0.00000000000E+00  0.74505805969E-08  0.10566000000E+00  0.10566000000E+00 0. -1.
     999900   -1    0    0    0    0 -0.00000000000E+00 -0.00000000000E+00 -0.74505805969E-08  0.93827000000E+00  0.93827000000E+00 0.  1.
     999903    2    1    2    0    0 -0.99346912293E-01  0.28772660381E-01 -0.23383717796E-01  0.10800269427E+00  0.20496554432E-01 0.  0.
         14    1    1    2    0    0 -0.36913515110E-01 -0.22044829627E-01  0.14488151910E-01  0.45370570383E-01  0.00000000000E+00 0. -1.
     999901    1    1    2    0    0  0.13626042740E+00 -0.67278307534E-02  0.88955658862E-02  0.89055673535E+00  0.88000000000E+00 0. -1.
        -11    1    3    3    0    0 -0.45749341993E-01  0.22388701289E-01 -0.16739391882E-01  0.53616458292E-01  0.51100000000E-03 0.  1.
         11    1    3    3    0    0 -0.53597570301E-01  0.63839590917E-02 -0.66443259143E-02  0.54386235976E-01  0.51100000000E-03 0. -1.
</event>
<event>
 8    1  0.1051655E+005  0.1043930E+01  0.7957747E-01            NaN
         13   -1    0    0    0    0  0.00000000000E+00  0.00000000000E+00  0.74505805969E-08  0.10566000000E+00  0.10566000000E+00 0. -1.
     999900   -1    0    0    0    0 -0.00000000000E+00 -0.00000000000E+00 -0.74505805969E-08  0.93827000000E+00  0.93827000000E+00 0.  1.
     999902    2    1    2    0    0  0.18389608354E-01  0.17182015115E-01 -0.18276921119E-01  0.10128262191E+01  0.10123485096E+01 0.  0.
     999903    2    3    3    0    0  0.35783940435E-01  0.11475267855E+00  0.31437298631E-01  0.12586844066E+00  0.20146785868E-01 0.  0.
         14    1    1    2    0    0 -0.18389608354E-01 -0.17182015115E-01  0.18276921119E-01  0.31103780870E-01  0.00000000000E+00 0. -1.
     999901    1    3    3    0    0 -0.17394332081E-01 -0.97570663433E-01 -0.49714219749E-01  0.88695777847E+00  0.88000000000E+00 0. -1.
        -11    1    4    4    0    0  0.11144447084E-02  0.33687223029E-01  0.85579228566E-02  0.34778875011E-01  0.51100000000E-03 0.  1.
         11    1    4    4    0    0  0.34669495727E-01  0.81065455519E-01  0.22879375774E-01  0.91089565644E-01  0.51100000000E-03 0. -1.
</event>
<event>
 8    1  0.1051655E+005  0.1043930E+01  0.7957747E-01            NaN
         13   -1    0    0    0    0  0.00000000000E+00  0.00000000000E+00  0.74505805969E-08  0.10566000000E+00  0.10566000000E+00 0.  1.
     999900   -1    0    0    0    0 -0.00000000000E+00 -0.00000000000E+00 -0.74505805969E-08  0.93827000000E+00  0.93827000000E+00 0.  1.
     999902    2    1    2    0    0  0.23501975821E-01 -0.58555315147E-02  0.39550228936E-02  0.10193887628E+01  0.10190933114E+01 0.  0.
     999903    2    3    3    0    0  0.10868095405E+00 -0.73271970600E-01  0.58317728706E-02  0.13270733367E+00  0.19922233462E-01 0.  0.
         14    1    1    2    0    0 -0.23501975821E-01  0.58555315147E-02 -0.39550228936E-02  0.24541237192E-01  0.00000000000E+00 0.  1.
     999901    1    3    3    0    0 -0.85178978227E-01  0.67416439086E-01 -0.18767499770E-02  0.88668142914E+00  0.88000000000E+00 0. -1.
        -11    1    4    4    0    0  0.66589314969E-01 -0.37312965762E-01  0.10927421728E-01  0.77110725251E-01  0.51100000000E-03 0. -1.
         11    1    4    4    0    0  0.42091639079E-01 -0.35959004838E-01 -0.50956488575E-02  0.55596608418E-01  0.51100000000E-03 0.  1.
</event>
<event>
 8    1  0.1051655E+005  0.1043930E+01  0.7957747E-01            NaN
         13   -1    0    0    0    0  0.00000000000E+00  0.00000000000E+00  0.74505805969E-08  0.10566000000E+00  0.10566000000E+00 0. -1.
     999900   -1    0    0    0    0 -0.00000000000E+00 -0.00000000000E+00 -0.74505805969E-08  0.93827000000E+00  0.93827000000E+00 0.  1.
     999902    2    1    2    0    0 -0.51524007722E-02  0.21277355202E-01 -0.23009788368E-01  0.10121695932E+01  0.10116711729E+01 0.  0.
     999903    2    3    3    0    0  0.49639375559E-01 -0.52085082374E-01 -0.99354312586E-01  0.12413092718E+00  0.18981154905E-01 0.  0.
         14    1    1    2    0    0  0.51524007722E-02 -0.21277355202E-01  0.23009788368E-01  0.31760406781E-01  0.00000000000E+00 0.  1.
     999901    1    3    3    0    0 -0.54791776332E-01  0.73362437577E-01  0.76344524217E-01  0.88803866604E+00  0.88000000000E+00 0. -1.
        -11    1    4    4    0    0  0.27052710622E-01 -0.22173261808E-01 -0.33960548913E-01  0.48755335038E-01  0.51100000000E-03 0.  1.
         11    1    4    4    0    0  0.22586664937E-01 -0.29911820566E-01 -0.65393763673E-01  0.75375592143E-01  0.51100000000E-03 0. -1.
</event>
<event>
 8    1  0.1122532E+005  0.1043930E+01  0.7957747E-01            NaN
         13   -1    0    0    0    0  0.00000000000E+00  0.00000000000E+00  0.74505805969E-08  0.10566000000E+00  0.10566000000E+00 0. -1.
     999900   -1    0    0    0    0 -0.00000000000E+00 -0.00000000000E+00 -0.74505805969E-08  0.93827000000E+00  0.93827000000E+00 0. -1.
     999902    2    1    2    0    0  0.70109383732E-02  0.14512660121E-01 -0.16448878618E-01  0.10209009712E+01  0.10206411988E+01 0.  0.
     999903    2    3    3    0    0 -0.90388742177E-01 -0.78957702187E-01  0.45010923343E-01  0.12848811064E+00  0.88751286392E-02 0.  0.
         14    1    1    2    0    0 -0.70109383732E-02 -0.14512660121E-01  0.16448878618E-01  0.23029028821E-01  0.00000000000E+00 0. -1.
     999901    1    3    3    0    0  0.97399680550E-01  0.93470362308E-01 -0.61459801961E-01  0.89241286054E+00  0.88000000000E+00 0. -1.
        -11    1    4    4    0    0 -0.66270375906E-01 -0.53133390059E-01  0.33698526594E-01  0.91382556746E-01  0.51100000000E-03 0.  1.
         11    1    4    4    0    0 -0.24118366271E-01 -0.25824312128E-01  0.11312396749E-01  0.37105553892E-01  0.51100000000E-03 0. -1.
</event>
<event>
 8    1  0.1070963E+005  0.1043930E+01  0.7957747E-01            NaN
         13   -1    0    0    0    0  0.00000000000E+00  0.00000000000E+00  0.74505805969E-08  0.10566000000E+00  0.10566000000E+00 0.  1.
     999900   -1    0    0    0    0 -0.00000000000E+00 -0.00000000000E+00 -0.74505805969E-08  0.93827000000E+00  0.93827000000E+00 0. -1.
     999902    2    1    2    0    0  0.17793961422E-01  0.11834729874E-01 -0.20368532098E-01  0.10144077543E+01  0.10139780712E+01 0.  0.
     999903    2    3    3    0    0 -0.53031355262E-01 -0.61557566593E-01  0.88569827019E-01  0.12184390737E+00  0.19991619747E-01 0.  0.
         14    1    1    2    0    0 -0.17793961422E-01 -0.11834729874E-01  0.20368532098E-01  0.29522245750E-01  0.00000000000E+00 0.  1.
     999901    1    3    3    0    0  0.70825316684E-01  0.73392296468E-01 -0.10893835912E+00  0.89256384688E+00  0.88000000000E+00 0. -1.
        -11    1    4    4    0    0 -0.20183156942E-01 -0.38705808794E-01  0.46429715995E-01  0.63729734873E-01  0.51100000000E-03 0. -1.
         11    1    4    4    0    0 -0.32848198320E-01 -0.22851757799E-01  0.42140111024E-01  0.58114172501E-01  0.51100000000E-03 0.  1.
</event>
<event>
 8    1  0.1051655E+005  0.1043930E+01  0.7957747E-01            NaN
         13   -1    0    0    0    0  0.00000000000E+00  0.00000000000E+00  0.74505805969E-08  0.10566000000E+00  0.10566000000E+00 0.  1.
     999900   -1    0    0    0    0 -0.00000000000E+00 -0.00000000000E+00 -0.74505805969E-08  0.93827000000E+00  0.93827000000E+00 0. -1.
     999902    2    1    2    0    0 -0.19576467051E-01  0.16075865190E-01  0.50622963805E-04  0.10185987137E+01  0.10182836861E+01 0.  0.
     999903    2    3    3    0    0  0.19822408770E-01 -0.65498970991E-01  0.10564376722E+00  0.12766850462E+00  0.21344751756E-01 0.  0.
         14    1    1    2    0    0  0.19576467051E-01 -0.16075865190E-01 -0.50622963805E-04  0.25331286318E-01  0.00000000000E+00 0.  1.
     999901    1    3    3    0    0 -0.39398875821E-01  0.81574836181E-01 -0.10559314426E+00  0.89093020907E+00  0.88000000000E+00 0. -1.
        -11    1    4    4    0    0  0.21628569279E-01 -0.57000388150E-01  0.10053310404E+00  0.11757553056E+00  0.51100000000E-03 0.  1.
         11    1    4    4    0    0 -0.18061605092E-02 -0.84985828401E-02  0.51106631860E-02  0.10092974055E-01  0.51100000000E-03 0. -1.
</event>
<event>
 8    1  0.1051655E+005  0.1043930E+01  0.7957747E-01            NaN
         13   -1    0    0    0    0  0.00000000000E+00  0.00000000000E+00  0.74505805969E-08  0.10566000000E+00  0.10566000000E+00 0.  1.
     999900   -1    0    0    0    0 -0.00000000000E+00 -0.00000000000E+00 -0.74505805969E-08  0.93827000000E+00  0.93827000000E+00 0. -1.
     999902    2    1    2    0    0  0.19996214931E-01 -0.10957731316E-01 -0.73257164338E-02  0.10199803318E+01  0.10196991177E+01 0.  0.
     999903    2    3    3    0    0 -0.36999324849E-01  0.12104670528E+00  0.38725612685E-02  0.12824098406E+00  0.20236065902E-01 0.  0.
         14    1    1    2    0    0 -0.19996214931E-01  0.10957731316E-01  0.73257164338E-02  0.23949668232E-01  0.00000000000E+00 0.  1.
     999901    1    3    3    0    0  0.56995539779E-01 -0.13200443659E+00 -0.11198277702E-01  0.89173934771E+00  0.88000000000E+00 0. -1.
        -11    1    4    4    0    0 -0.34246239093E-01  0.92673374038E-01  0.92326430055E-02  0.99230348006E-01  0.51100000000E-03 0. -1.
         11    1    4    4    0    0 -0.27530857559E-02  0.28373331239E-01 -0.53600817370E-02  0.29010636050E-01  0.51100000000E-03 0.  1.
</event>
<event>
 8    1  0.1051655E+005  0.1043930E+01  0.7957747E-01            NaN
         13   -1    0    0    0    0  0.00000000000E+00  0.00000000000E+00  0.74505805969E-08  0.10566000000E+00  0.10566000000E+00 0.  1.
     999900   -1    0    0    0    0 -0.00000000000E+00 -0.00000000000E+00 -0.74505805969E-08  0.93827000000E+00  0.93827000000E+00 0. -1.
     999902    2    1    2    0    0 -0.17066121592E-01 -0.12624290169E-01 -0.11168794613E-01  0.10199431873E+01  0.10196610899E+01 0.  0.
     999903    2    3    3    0    0 -0.17943244550E-01  0.11996262254E+00 -0.43092699596E-01  0.12943816519E+00  0.13574498837E-01 0.  0.
         14    1    1    2    0    0  0.17066121592E-01  0.12624290169E-01  0.11168794613E-01  0.23986812660E-01  0.00000000000E+00 0.  1.
     999901    1    3    3    0    0  0.87712295726E-03 -0.13258691270E+00  0.31923904983E-01  0.89050502215E+00  0.88000000000E+00 0. -1.
        -11    1    4    4    0    0 -0.16859837977E-01  0.90614135865E-01 -0.37657120231E-01  0.99566538456E-01  0.51100000000E-03 0.  1.
         11    1    4    4    0    0 -0.10834065727E-02  0.29348486671E-01 -0.54355793654E-02  0.29871626733E-01  0.51100000000E-03 0. -1.
</event>
<event>
 8    1  0.1051655E+005  0.1043930E+01  0.7957747E-01            NaN
         13   -1    0    0    0    0  0.00000000000E+00  0.00000000000E+00  0.74505805969E-08  0.10566000000E+00  0.10566000000E+00 0.  1.
     999900   -1    0    0    0    0 -0.00000000000E+00 -0.00000000000E+00 -0.74505805969E-08  0.93827000000E+00  0.93827000000E+00 0. -1.
     999902    2    1    2    0    0  0.14638683094E-01 -0.59463359863E-02  0.26849754629E-02  0.10279031772E+01  0.10277782264E+01 0.  0.
     999903    2    3    3    0    0 -0.77238143932E-01  0.10951049436E+00 -0.60580990503E-02  0.13557584248E+00  0.19642536699E-01 0.  0.
         14    1    1    2    0    0 -0.14638683094E-01  0.59463359863E-02 -0.26849754629E-02  0.16026822755E-01  0.00000000000E+00 0.  1.
     999901    1    3    3    0    0  0.91876827026E-01 -0.11545683034E+00  0.87430745132E-02  0.89232733477E+00  0.88000000000E+00 0. -1.
        -11    1    4    4    0    0 -0.47970210670E-01  0.58772439024E-01  0.47343784304E-02  0.76013263057E-01  0.51100000000E-03 0. -1.
         11    1    4    4    0    0 -0.29267933262E-01  0.50738055332E-01 -0.10792477481E-01  0.59562579423E-01  0.51100000000E-03 0.  1.
</event>
<event>
 8    1  0.1051655E+005  0.1043930E+01  0.7957747E-01            NaN
         13   -1    0    0    0    0  0.00000000000E+00  0.00000000000E+00  0.74505805969E-08  0.10566000000E+00  0.10566000000E+00 0. -1.
     999900   -1    0    0    0    0 -0.00000000000E+00 -0.00000000000E+00 -0.74505805969E-08  0.93827000000E+00  0.93827000000E+00 0. -1.
     999902    2    1    2    0    0  0.10417837486E-01 -0.10074111062E-01  0.18798090477E-01  0.10201942199E+01  0.10199180649E+01 0.  0.
     999903    2    3    3    0    0 -0.62587459454E-02  0.21015601888E-01  0.12907105087E+00  0.13261053118E+00  0.21104250333E-01 0.  0.
         14    1    1    2    0    0 -0.10417837486E-01  0.10074111062E-01 -0.18798090477E-01  0.23735780105E-01  0.00000000000E+00 0.  1.
     999901    1    3    3    0    0  0.16676583432E-01 -0.31089712951E-01 -0.11027296039E+00  0.88758368872E+00  0.88000000000E+00 0. -1.
        -11    1    4    4    0    0 -0.13742239063E-01  0.13263033356E-01  0.93833747184E-01  0.95759022655E-01  0.51100000000E-03 0. -1.
         11    1    4    4    0    0  0.74834931177E-02  0.77525685328E-02  0.35237303688E-01  0.36851508521E-01  0.51100000000E-03 0.  1.
</event>
<event>
 8    1  0.1051655E+005  0.1043930E+01  0.7957747E-01            NaN
         13   -1    0    0    0    0  0.00000000000E+00  0.00000000000E+00  0.74505805969E-08  0.10566000000E+00  0.10566000000E+00 0.  1.
     999900   -1    0    0    0    0 -0.00000000000E+00 -0.00000000000E+00 -0.74505805969E-08  0.93827000000E+00  0.93827000000E+00 0.  1.
     999902    2    1    2    0    0 -0.41890493548E-02 -0.15256001284E-01  0.19248032489E-01  0.10190145336E+01  0.10187098897E+01 0.  0.
     999903    2    3    3    0    0  0.74453770195E-01 -0.10250892593E+00  0.27193785908E-01  0.13117395057E+00  0.20387729794E-01 0.  0.
         14    1    1    2    0    0  0.41890493548E-02  0.15256001284E-01 -0.19248032489E-01  0.24915466369E-01  0.00000000000E+00 0. -1.
     999901    1    3    3    0    0 -0.78642819550E-01  0.87252924643E-01 -0.79457534187E-02  0.88784058306E+00  0.88000000000E+00 0.  1.
        -11    1    4    4    0    0  0.67001511196E-01 -0.87237170341E-01  0.16872732621E-01  0.11128556339E+00  0.51100000000E-03 0.  1.
         11    1    4    4    0    0  0.74522589989E-02 -0.15271755586E-01  0.10321053287E-01  0.19888387185E-01  0.51100000000E-03 0. -1.
</event>
<event>
 8    1  0.1051655E+005  0.1043930E+01  0.7957747E-01            NaN
         13   -1    0    0    0    0  0.00000000000E+00  0.00000000000E+00  0.74505805969E-08  0.10566000000E+00  0.10566000000E+00 0. -1.
     999900   -1    0    0    0    0 -0.00000000000E+00 -0.00000000000E+00 -0.74505805969E-08  0.93827000000E+00  0.93827000000E+00 0.  1.
     999902    2    1    2    0    0  0.77586277036E-02  0.18327775686E-01  0.12523001034E-01  0.10204155529E+01  0.10201445836E+01 0.  0.
     999903    2    3    3    0    0 -0.85912591731E-01  0.89310989665E-01  0.41222997048E-01  0.13213822925E+00  0.20093527587E-01 0.  0.
         14    1    1    2    0    0 -0.77586277036E-02 -0.18327775686E-01 -0.12523001034E-01  0.23514447056E-01  0.00000000000E+00 0.  1.
     999901    1    3    3    0    0  0.93671219435E-01 -0.70983213979E-01 -0.28699996014E-01  0.88827732369E+00  0.88000000000E+00 0.  1.
        -11    1    4    4    0    0 -0.23024550414E-01  0.37263001845E-01  0.11845788748E-01  0.45378905456E-01  0.51100000000E-03 0. -1.
         11    1    4    4    0    0 -0.62888041318E-01  0.52047987820E-01  0.29377208300E-01  0.86759323795E-01  0.51100000000E-03 0.  1.
</event>
<event>
 8    1  0.1051655E+005  0.1043930E+01  0.7957747E-01            NaN
         13   -1    0    0    0    0  0.00000000000E+00  0.00000000000E+00  0.74505805969E-08  0.10566000000E+00  0.10566000000E+00 0.  1.
     999900   -1    0    0    0    0 -0.00000000000E+00 -0.00000000000E+00 -0.74505805969E-08  0.93827000000E+00  0.93827000000E+00 0.  1.
     999902    2    1    2    0    0 -0.15164114300E-01 -0.16476668240E-01  0.68282795347E-02  0.10205193964E+01  0.10202508427E+01 0.  0.
     999903    2    3    3    0    0 -0.52279224348E-01  0.11150003516E+00  0.36903481371E-01  0.12998018573E+00  0.19173069830E-01 0.  0.
         14    1    1    2    0    0  0.15164114300E-01  0.16476668240E-01 -0.68282795347E-02  0.23410603585E-01  0.00000000000E+00 0.  1.
     999901    1    3    3    0    0  0.37115110047E-01 -0.12797670339E+00 -0.30075201836E-01  0.89053921069E+00  0.88000000000E+00 0. -1.
        -11    1    4    4    0    0 -0.24476216980E-01  0.36417183567E-01  0.19627324691E-01  0.48070671434E-01  0.51100000000E-03 0. -1.
         11    1    4    4    0    0 -0.27803007367E-01  0.75082851588E-01  0.17276156680E-01  0.81909514294E-01  0.51100000000E-03 0.  1.
</event>
<event>
 8    1  0.1051655E+005  0.1043930E+01  0.7957747E-01            NaN
         13   -1    0    0    0    0  0.00000000000E+00  0.00000000000E+00  0.74505805969E-08  0.10566000000E+00  0.10566000000E+00 0.  1.
     999900   -1    0    0    0    0 -0.00000000000E+00 -0.00000000000E+00 -0.74505805969E-08  0.93827000000E+00  0.93827000000E+00 0. -1.
     999902    2    1    2    0    0  0.49379971503E-02 -0.23538243125E-01  0.81592230833E-02  0.10185330390E+01  0.10182163552E+01 0.  0.
     999903    2    3    3    0    0 -0.12312880919E+00 -0.34287193647E-01 -0.14635790271E-02  0.12914603376E+00  0.18445613846E-01 0.  0.
         14    1    1    2    0    0 -0.49379971503E-02  0.23538243125E-01 -0.81592230833E-02  0.25396960971E-01  0.00000000000E+00 0. -1.
     999901    1    3    3    0    0  0.12806680634E+00  0.10748950523E-01  0.96228021103E-02  0.88938700527E+00  0.88000000000E+00 0.  1.
        -11    1    4    4    0    0 -0.19651354482E-01 -0.28954499098E-02 -0.64637596195E-02  0.20894991566E-01  0.51100000000E-03 0. -1.
         11    1    4    4    0    0 -0.10347745471E+00 -0.31391743738E-01  0.50001805925E-02  0.10825104219E+00  0.51100000000E-03 0.  1.
</event>
<event>
 8    1  0.1051655E+005  0.1043930E+01  0.7957747E-01            NaN
         13   -1    0    0    0    0  0.00000000000E+00  0.00000000000E+00  0.74505805969E-08  0.10566000000E+00  0.10566000000E+00 0. -1.
     999900   -1    0    0    0    0 -0.00000000000E+00 -0.00000000000E+00 -0.74505805969E-08  0.93827000000E+00  0.93827000000E+00 0.  1.
     999902    2    1    2    0    0 -0.83676940791E-02 -0.12996406693E-01 -0.18801768610E-01  0.10195900864E+01  0.10192995207E+01 0.  0.
     999903    2    3    3    0    0 -0.46622500240E-01 -0.11264974165E+00 -0.48496039222E-01  0.13264253042E+00  0.19456444504E-01 0.  0.
         14    1    1    2    0    0  0.83676940791E-02  0.12996406693E-01  0.18801768610E-01  0.24339913599E-01  0.00000000000E+00 0. -1.
     999901    1    3    3    0    0  0.38254806161E-01  0.99653334954E-01  0.29694270611E-01  0.88694755599E+00  0.88000000000E+00 0. -1.
        -11    1    4    4    0    0 -0.45379650505E-01 -0.91339762362E-01 -0.42230350478E-01  0.11038989306E+00  0.51100000000E-03 0. -1.
         11    1    4    4    0    0 -0.12428497357E-02 -0.21309979286E-01 -0.62656887435E-02  0.22252637350E-01  0.51100000000E-03 0.  1.
</event>
<event>
 8    1  0.1051655E+005  0.1043930E+01  0.7957747E-01            NaN
         13   -1    0    0    0    0  0.00000000000E+00  0.00000000000E+00  0.74505805969E-08  0.10566000000E+00  0.10566000000E+00 0.  1.
     999900   -1    0    0    0    0 -0.00000000000E+00 -0.00000000000E+00 -0.74505805969E-08  0.93827000000E+00  0.93827000000E+00 0. -1.
     999902    2    1    2    0    0 -0.84695630445E-02 -0.21643363399E-01  0.12491805276E-02  0.10206549247E+01  0.10203895071E+01 0.  0.
     999903    2    3    3    0    0 -0.10279392498E+00 -0.70002363693E-01  0.44327278710E-01  0.13324780242E+00  0.17976297630E-01 0.  0.
         14    1    1    2    0    0  0.84695630445E-02  0.21643363399E-01 -0.12491805276E-02  0.23275075282E-01  0.00000000000E+00 0. -1.
     999901    1    3    3    0    0  0.94324361935E-01  0.48359000293E-01 -0.43078098182E-01  0.88740712230E+00  0.88000000000E+00 0.  1.
        -11    1    4    4    0    0 -0.63462288830E-01 -0.41252514030E-01  0.17741965348E-01  0.77744906411E-01  0.51100000000E-03 0.  1.
         11    1    4    4    0    0 -0.39331636149E-01 -0.28749849662E-01  0.26585313362E-01  0.55502896009E-01  0.51100000000E-03 0. -1.
</event>
<event>
 8    1  0.1051655E+005  0.1043930E+01  0.7957747E-01            NaN
         13   -1    0    0    0    0  0.00000000000E+00  0.00000000000E+00  0.74505805969E-08  0.10566000000E+00  0.10566000000E+00 0. -1.
     999900   -1    0    0    0    0 -0.00000000000E+00 -0.00000000000E+00 -0.74505805969E-08  0.93827000000E+00  0.93827000000E+00 0.  1.
     999902    2    1    2    0    0 -0.38833228417E-02 -0.25766797856E-01  0.81863690167E-02  0.10166165472E+01  0.10162495654E+01 0.  0.
     999903    2    3    3    0    0  0.18758446132E-01 -0.12776926659E+00  0.59047021211E-02  0.13043239061E+00  0.17345841760E-01 0.  0.
         14    1    1    2    0    0  0.38833228417E-02  0.25766797856E-01 -0.81863690167E-02  0.27313452834E-01  0.00000000000E+00 0.  1.
     999901    1    3    3    0    0 -0.22641768974E-01  0.10200246873E+00  0.22816668956E-02  0.88618415656E+00  0.88000000000E+00 0.  1.
        -11    1    4    4    0    0  0.12894613253E-01 -0.10181594506E+00 -0.20681650922E-02  0.10265133291E+00  0.51100000000E-03 0.  1.
         11    1    4    4    0    0  0.58638328793E-02 -0.25953321528E-01  0.79728672133E-02  0.27781057701E-01  0.51100000000E-03 0. -1.
</event>
<event>
 8    1  0.1051655E+005  0.1043930E+01  0.7957747E-01            NaN
         13   -1    0    0    0    0  0.00000000000E+00  0.00000000000E+00  0.74505805969E-08  0.10566000000E+00  0.10566000000E+00 0. -1.
     999900   -1    0    0    0    0 -0.00000000000E+00 -0.00000000000E+00 -0.74505805969E-08  0.93827000000E+00  0.93827000000E+00 0. -1.
     999902    2    1    2    0    0  0.59799704420E-02  0.19792765344E-01 -0.11411590406E-01  0.10203135227E+01  0.10200401691E+01 0.  0.
     999903    2    3    3    0    0 -0.11597940368E+00  0.97973957848E-02 -0.56261563430E-01  0.13071500848E+00  0.19334913497E-01 0.  0.
         14    1    1    2    0    0 -0.59799704420E-02 -0.19792765344E-01  0.11411590406E-01  0.23616477342E-01  0.00000000000E+00 0. -1.
     999901    1    3    3    0    0  0.12195937412E+00  0.99953695589E-02  0.44849973024E-01  0.88959851418E+00  0.88000000000E+00 0.  1.
        -11    1    4    4    0    0 -0.75220003830E-01  0.13541984900E-01 -0.42942413388E-01  0.87668388373E-01  0.51100000000E-03 0. -1.
         11    1    4    4    0    0 -0.40759399850E-01 -0.37445891150E-02 -0.13319150042E-01  0.43046620107E-01  0.51100000000E-03 0.  1.
</event>
<event>
 8    1  0.1051655E+005  0.1043930E+01  0.7957747E-01            NaN
         13   -1    0    0    0    0  0.00000000000E+00  0.00000000000E+00  0.74505805969E-08  0.10566000000E+00  0.10566000000E+00 0. -1.
     999900   -1    0    0    0    0 -0.00000000000E+00 -0.00000000000E+00 -0.74505805969E-08  0.93827000000E+00  0.93827000000E+00 0. -1.
     999902    2    1    2    0    0 -0.10062731065E-01 -0.12543358863E-01  0.17272326805E-01  0.10203306847E+01  0.10200577329E+01 0.  0.
     999903    2    3    3    0    0  0.12638048917E+00 -0.32909407227E-02 -0.17526920068E-01  0.12908809869E+00  0.19330958613E-01 0.  0.
         14    1    1    2    0    0  0.10062731065E-01  0.12543358863E-01 -0.17272326805E-01  0.23599315272E-01  0.00000000000E+00 0.  1.
     999901    1    3    3    0    0 -0.13644322024E+00 -0.92524181404E-02  0.34799246873E-01  0.89124258604E+00  0.88000000000E+00 0.  1.
        -11    1    4    4    0    0  0.86986130751E-01 -0.47115556483E-02 -0.33044108605E-02  0.87177783590E-01  0.51100000000E-03 0.  1.
         11    1    4    4    0    0  0.39394358423E-01  0.14206149255E-02 -0.14222509207E-01  0.41910315096E-01  0.51100000000E-03 0. -1.
</event>
<event>
 8    1  0.1051655E+005  0.1043930E+01  0.7957747E-01            NaN
         13   -1    0    0    0    0  0.00000000000E+00  0.00000000000E+00  0.74505805969E-08  0.10566000000E+00  0.10566000000E+00 0. -1.
     999900   -1    0    0    0    0 -0.00000000000E+00 -0.00000000000E+00 -0.74505805969E-08  0.93827000000E+00  0.93827000000E+00 0.  1.
     999902    2    1    2    0    0  0.13048521861E-01  0.22701501866E-01 -0.20250979797E-02  0.10176674196E+01  0.10173284886E+01 0.  0.
     999903    2    3    3    0    0 -0.90140446815E-01  0.16734252618E-01  0.86096380514E-01  0.12724675139E+00  0.19334260775E-01 0.  0.
         14    1    1    2    0    0 -0.13048521861E-01 -0.22701501866E-01  0.20250979797E-02  0.26262580444E-01  0.00000000000E+00 0. -1.
     999901    1    3    3    0    0  0.10318896868E+00  0.59672492486E-02 -0.88121478494E-01  0.89042066816E+00  0.88000000000E+00 0.  1.
        -11    1    4    4    0    0 -0.54591830695E-01  0.10913830648E-01  0.39107740909E-01  0.68037167770E-01  0.51100000000E-03 0. -1.
         11    1    4    4    0    0 -0.35548616120E-01  0.58204219696E-02  0.46988639605E-01  0.59209583623E-01  0.51100000000E-03 0.  1.
</event>
<event>
 8    1  0.1101143E+005  0.1043930E+01  0.7957747E-01            NaN
         13   -1    0    0    0    0  0.00000000000E+00  0.00000000000E+00  0.74505805969E-08  0.10566000000E+00  0.10566000000E+00 0. -1.
     999900   -1    0    0    0    0 -0.00000000000E+00 -0.00000000000E+00 -0.74505805969E-08  0.93827000000E+00  0.93827000000E+00 0. -1.
     999902    2    1    2    0    0 -0.57169831384E-02  0.16452226540E-01  0.15533243054E-01  0.10205924488E+01  0.10203255879E+01 0.  0.
     999903    2    3    3    0    0  0.83921222204E-01  0.91966433884E-01 -0.36868859525E-01  0.13127620378E+00  0.19326985786E-01 0.  0.
         14    1    1    2    0    0  0.57169831384E-02 -0.16452226540E-01 -0.15533243054E-01  0.23337551159E-01  0.00000000000E+00 0. -1.
     999901    1    3    3    0    0 -0.89638205343E-01 -0.75514207344E-01  0.52402102579E-01  0.88931624506E+00  0.88000000000E+00 0.  1.
        -11    1    4    4    0    0  0.52762216277E-01  0.66355156051E-01 -0.17650493390E-01  0.86594799145E-01  0.51100000000E-03 0.  1.
         11    1    4    4    0    0  0.31159005928E-01  0.25611277833E-01 -0.19218366134E-01  0.44681404639E-01  0.51100000000E-03 0. -1.
</event>
<event>
 8    1  0.1051655E+005  0.1043930E+01  0.7957747E-01            NaN
         13   -1    0    0    0    0  0.00000000000E+00  0.00000000000E+00  0.74505805969E-08  0.10566000000E+00  0.10566000000E+00 0. -1.
     999900   -1    0    0    0    0 -0.00000000000E+00 -0.00000000000E+00 -0.74505805969E-08  0.93827000000E+00  0.93827000000E+00 0.  1.
     999902    2    1    2    0    0  0.15245611928E-01 -0.10654439055E-01 -0.14957746264E-01  0.10200620313E+01  0.10197827552E+01 0.  0.
     999903    2    3    3    0    0 -0.94142030016E-01  0.83735106244E-01 -0.13250008319E-01  0.12827844838E+00  0.20137223363E-01 0.  0.
         14    1    1    2    0    0 -0.15245611928E-01  0.10654439055E-01  0.14957746264E-01  0.23867968659E-01  0.00000000000E+00 0. -1.
     999901    1    3    3    0    0  0.10938764194E+00 -0.94389545299E-01 -0.17077379444E-02  0.89178358296E+00  0.88000000000E+00 0. -1.
        -11    1    4    4    0    0 -0.19970064929E-01  0.21300510186E-01 -0.11281700258E-01  0.31305799929E-01  0.51100000000E-03 0.  1.
         11    1    4    4    0    0 -0.74171965087E-01  0.62434596057E-01 -0.19683080608E-02  0.96972648449E-01  0.51100000000E-03 0. -1.
</event>
<event>
 7    1  0.1051655E+005  0.1043930E+01  0.7957747E-01            NaN
         13   -1    0    0    0    0  0.00000000000E+00  0.00000000000E+00  0.74505805969E-08  0.10566000000E+00  0.10566000000E+00 0. -1.
     999900   -1    0    0    0    0 -0.00000000000E+00 -0.00000000000E+00 -0.74505805969E-08  0.93827000000E+00  0.93827000000E+00 0.  1.
     999902    2    1    2    0    0 -0.36578738496E-02  0.21292956437E-01  0.14567591464E-01  0.10178726641E+01  0.10175390781E+01 0.  0.
         14    1    1    2    0    0  0.36578738496E-02 -0.21292956437E-01 -0.14567591464E-01  0.26057335934E-01  0.00000000000E+00 0.  1.
     999901    1    3    3    0    0 -0.10545090125E+00 -0.16751768156E-01 -0.45025524872E-01  0.88759664950E+00  0.88000000000E+00 0. -1.
        -11    1    3    3    0    0  0.96084176869E-01  0.24897709436E-01  0.59896577192E-01  0.11593069507E+00  0.51100000000E-03 0.  1.
         11    1    3    3    0    0  0.57088505309E-02  0.13147015157E-01 -0.30346085665E-03  0.14345319495E-01  0.51100000000E-03 0. -1.
</event>
<event>
 8    1  0.1051655E+005  0.1043930E+01  0.7957747E-01            NaN
         13   -1    0    0    0    0  0.00000000000E+00  0.00000000000E+00  0.74505805969E-08  0.10566000000E+00  0.10566000000E+00 0. -1.
     999900   -1    0    0    0    0 -0.00000000000E+00 -0.00000000000E+00 -0.74505805969E-08  0.93827000000E+00  0.93827000000E+00 0.  1.
     999902    2    1    2    0    0  0.11763952331E-01  0.15555177113E-01  0.58418722102E-02  0.10235711793E+01  0.10233686909E+01 0.  0.
     999903    2    3    3    0    0 -0.93537506005E-01 -0.20163975186E-01 -0.88212108007E-01  0.13160122119E+00  0.19535979504E-01 0.  0.
         14    1    1    2    0    0 -0.11763952331E-01 -0.15555177113E-01 -0.58418722102E-02  0.20358820702E-01  0.00000000000E+00 0.  1.
     999901    1    3    3    0    0  0.10530145834E+00  0.35719152299E-01  0.94053980217E-01  0.89196995811E+00  0.88000000000E+00 0.  1.
        -11    1    4    4    0    0 -0.57031750270E-01 -0.38873246904E-02 -0.45150769993E-01  0.72846310710E-01  0.51100000000E-03 0.  1.
         11    1    4    4    0    0 -0.36505755735E-01 -0.16276650495E-01 -0.43061338014E-01  0.58754910482E-01  0.51100000000E-03 0. -1.
</event>
<event>
 8    1  0.1051655E+005  0.1043930E+01  0.7957747E-01            NaN
         13   -1    0    0    0    0  0.00000000000E+00  0.00000000000E+00  0.74505805969E-08  0.10566000000E+00  0.10566000000E+00 0.  1.
     999900   -1    0    0    0    0 -0.00000000000E+00 -0.00000000000E+00 -0.74505805969E-08  0.93827000000E+00  0.93827000000E+00 0.  1.
     999902    2    1    2    0    0 -0.47970764341E-02  0.15403698883E-01  0.16453270136E-01  0.10208866500E+01  0.10206265508E+01 0.  0.
     999903    2    3    3    0    0 -0.12315699242E+00 -0.13973767577E-01  0.41266222881E-01  0.13213033475E+00  0.19814470699E-01 0.  0.
         14    1    1    2    0    0  0.47970764341E-02 -0.15403698883E-01 -0.16453270136E-01  0.23043350011E-01  0.00000000000E+00 0. -1.
     999901    1    3    3    0    0  0.11835991598E+00  0.29377466460E-01 -0.24812952746E-01  0.88875631524E+00  0.88000000000E+00 0. -1.
        -11    1    4    4    0    0 -0.93348330875E-01 -0.13610708417E-01  0.22776733257E-01  0.97047426342E-01  0.51100000000E-03 0. -1.
         11    1    4    4    0    0 -0.29808661544E-01 -0.36305915955E-03  0.18489489624E-01  0.35082908411E-01  0.51100000000E-03 0.  1.
</event>
<event>
 8    1  0.1051655E+005  0.1043930E+01  0.7957747E-01            NaN
         13   -1    0    0    0    0  0.00000000000E+00  0.00000000000E+00  0.74505805969E-08  0.10566000000E+00  0.10566000000E+00 0. -1.
     999900   -1    0    0    0    0 -0.00000000000E+00 -0.00000000000E+00 -0.74505805969E-08  0.93827000000E+00  0.93827000000E+00 0.  1.
     999902    2    1    2    0    0  0.14133657529E-01  0.18314649601E-01  0.36977172032E-02  0.10205022434E+01  0.10202332915E+01 0.  0.
     999903    2    3    3    0    0  0.11461894949E-01  0.34534488949E-01  0.12530908229E+00  0.13198688306E+00  0.19853594980E-01 0.  0.
         14    1    1    2    0    0 -0.14133657529E-01 -0.18314649601E-01 -0.36977172032E-02  0.23427756565E-01  0.00000000000E+00 0.  1.
     999901    1    3    3    0    0  0.26717625809E-02 -0.16219839348E-01 -0.12161136508E+00  0.88851536037E+00  0.88000000000E+00 0.  1.
        -11    1    4    4    0    0 -0.91077791906E-03  0.23672839762E-01  0.57192152717E-01  0.61906674214E-01  0.51100000000E-03 0. -1.
         11    1    4    4    0    0  0.12372672868E-01  0.10861649188E-01  0.68116929570E-01  0.70080208846E-01  0.51100000000E-03 0.  1.
</event>
<event>
 8    1  0.1051655E+005  0.1043930E+01  0.7957747E-01            NaN
         13   -1    0    0    0    0  0.00000000000E+00  0.00000000000E+00  0.74505805969E-08  0.10566000000E+00  0.10566000000E+00 0.  1.
     999900   -1    0    0    0    0 -0.00000000000E+00 -0.00000000000E+00 -0.74505805969E-08  0.93827000000E+00  0.93827000000E+00 0. -1.
     999902    2    1    2    0    0 -0.54248080694E-02 -0.14827621234E-01  0.16153594106E-01  0.10213418284E+01  0.10210920159E+01 0.  0.
     999903    2    3    3    0    0 -0.11970669169E+00 -0.54217142430E-01 -0.48154249938E-02  0.13283094885E+00  0.18753188680E-01 0.  0.
         14    1    1    2    0    0  0.54248080694E-02  0.14827621234E-01 -0.16153594106E-01  0.22588171608E-01  0.00000000000E+00 0. -1.
     999901    1    3    3    0    0  0.11428188362E+00  0.39389521196E-01  0.20969019100E-01  0.88851087954E+00  0.88000000000E+00 0. -1.
        -11    1    4    4    0    0 -0.10954354477E+00 -0.43665218383E-01 -0.63121274389E-02  0.11809548498E+00  0.51100000000E-03 0. -1.
         11    1    4    4    0    0 -0.10163146917E-01 -0.10551924047E-01  0.14967024451E-02  0.14735463874E-01  0.51100000000E-03 0.  1.
</event>
<event>
 8    1  0.1051655E+005  0.1043930E+01  0.7957747E-01            NaN
         13   -1    0    0    0    0  0.00000000000E+00  0.00000000000E+00  0.74505805969E-08  0.10566000000E+00  0.10566000000E+00 0.  1.
     999900   -1    0    0    0    0 -0.00000000000E+00 -0.00000000000E+00 -0.74505805969E-08  0.93827000000E+00  0.93827000000E+00 0. -1.
     999902    2    1    2    0    0  0.18696568219E-02  0.13226575747E-01  0.19582984728E-01  0.10202249117E+01  0.10199494787E+01 0.  0.
     999903    2    3    3    0    0  0.26435447070E-01 -0.12321994139E+00  0.22919907735E-01  0.12936450444E+00  0.18107070979E-01 0.  0.
         14    1    1    2    0    0 -0.18696568219E-02 -0.13226575747E-01 -0.19582984728E-01  0.23705088346E-01  0.00000000000E+00 0.  1.
     999901    1    3    3    0    0 -0.24565790248E-01  0.13644651714E+00 -0.33369230067E-02  0.89086040722E+00  0.88000000000E+00 0.  1.
        -11    1    4    4    0    0  0.26574003197E-01 -0.10387201075E+00  0.14268741857E-01  0.10816390515E+00  0.51100000000E-03 0. -1.
         11    1    4    4    0    0 -0.13855612652E-03 -0.19347930647E-01  0.86511658776E-02  0.21200599288E-01  0.51100000000E-03 0.  1.
</event>
<event>
 8    1  0.1051655E+005  0.1043930E+01  0.7957747E-01            NaN
         13   -1    0    0    0    0  0.00000000000E+00  0.00000000000E+00  0.74505805969E-08  0.10566000000E+00  0.10566000000E+00 0. -1.
     999900   -1    0    0    0    0 -0.00000000000E+00 -0.00000000000E+00 -0.74505805969E-08  0.93827000000E+00  0.93827000000E+00 0.  1.
     999902    2    1    2    0    0 -0.12011718796E-01  0.16121196048E-01 -0.87809117037E-02  0.10219919335E+01  0.10217564453E+01 0.  0.
     999903    2    3    3    0    0  0.64511381664E-01  0.50962722406E-01  0.10033896271E+00  0.13127488313E+00  0.20156142074E-01 0.  0.
         14    1    1    2    0    0  0.12011718796E-01 -0.16121196048E-01  0.87809117037E-02  0.21938066478E-01  0.00000000000E+00 0.  1.
     999901    1    3    3    0    0 -0.76523100460E-01 -0.34841526358E-01 -0.10911987442E+00  0.89071705039E+00  0.88000000000E+00 0.  1.
        -11    1    4    4    0    0  0.22862592596E-01  0.19069352992E-01  0.22121292284E-01  0.37093814269E-01  0.51100000000E-03 0. -1.
         11    1    4    4    0    0  0.41648789068E-01  0.31893369414E-01  0.78217670431E-01  0.94181068862E-01  0.51100000000E-03 0.  1.
</event>
<event>
 8    1  0.1051655E+005  0.1043930E+01  0.7957747E-01            NaN
         13   -1    0    0    0    0  0.00000000000E+00  0.00000000000E+00  0.74505805969E-08  0.10566000000E+00  0.10566000000E+00 0. -1.
     999900   -1    0    0    0    0 -0.00000000000E+00 -0.00000000000E+00 -0.74505805969E-08  0.93827000000E+00  0.93827000000E+00 0. -1.
     999902    2    1    2    0    0 -0.90007042800E-02 -0.18747301662E-01  0.12275553576E-01  0.10197812275E+01  0.10194952618E+01 0.  0.
     999903    2    3    3    0    0  0.72475439421E-02  0.10771286561E+00  0.67415477118E-01  0.12888471801E+00  0.20293734765E-01 0.  0.
         14    1    1    2    0    0  0.90007042800E-02  0.18747301662E-01 -0.12275553576E-01  0.24148772489E-01  0.00000000000E+00 0. -1.
     999901    1    3    3    0    0 -0.16248248222E-01 -0.12646016727E+00 -0.55139923542E-01  0.89089650950E+00  0.88000000000E+00 0. -1.
        -11    1    4    4    0    0  0.12571415582E-01  0.96922086857E-01  0.61410063303E-01  0.11542698301E+00  0.51100000000E-03 0. -1.
         11    1    4    4    0    0 -0.53238716396E-02  0.10790778749E-01  0.60054138153E-02  0.13457735000E-01  0.51100000000E-03 0.  1.
</event>
<event>
 8    1  0.1051655E+005  0.1043930E+01  0.7957747E-01            NaN
         13   -1    0    0    0    0  0.00000000000E+00  0.00000000000E+00  0.74505805969E-08  0.10566000000E+00  0.10566000000E+00 0.  1.
     999900   -1    0    0    0    0 -0.00000000000E+00 -0.00000000000E+00 -0.74505805969E-08  0.93827000000E+00  0.93827000000E+00 0.  1.
     999902    2    1    2    0    0 -0.18287337976E-01  0.41634095099E-04  0.14208075306E-01  0.10207718941E+01  0.10205091680E+01 0.  0.
     999903    2    3    3    0    0 -0.68978974017E-01 -0.57036911520E-01 -0.90861054004E-01  0.13123992491E+00  0.30933454751E-01 0.  0.
         14    1    1    2    0    0  0.18287337976E-01 -0.41634095099E-04 -0.14208075306E-01  0.23158105871E-01  0.00000000000E+00 0. -1.
     999901    1    3    3    0    0  0.50691636040E-01  0.57078545615E-01  0.10506912931E+00  0.88953196922E+00  0.88000000000E+00 0. -1.
        -11    1    4    4    0    0 -0.56852206493E-01 -0.56132872409E-01 -0.66274789220E-01  0.10380598034E+00  0.51100000000E-03 0. -1.
         11    1    4    4    0    0 -0.12126767523E-01 -0.90403911109E-03 -0.24586264783E-01  0.27433944563E-01  0.51100000000E-03 0.  1.
</event>
<event>
 8    1  0.1051655E+005  0.1043930E+01  0.7957747E-01            NaN
         13   -1    0    0    0    0  0.00000000000E+00  0.00000000000E+00  0.74505805969E-08  0.10566000000E+00  0.10566000000E+00 0.  1.
     999900   -1    0    0    0    0 -0.00000000000E+00 -0.00000000000E+00 -0.74505805969E-08  0.93827000000E+00  0.93827000000E+00 0. -1.
     999902    2    1    2    0    0 -0.48125032607E-02  0.12610093095E-01 -0.19392521892E-01  0.10203028008E+01  0.10200291961E+01 0.  0.
     999903    2    3    3    0    0  0.11299887357E+00  0.36163329094E-01 -0.53122844126E-01  0.13149910480E+00  0.19835478160E-01 0.  0.
         14    1    1    2    0    0  0.48125032607E-02 -0.12610093095E-01  0.19392521892E-01  0.23627199174E-01  0.00000000000E+00 0.  1.
     999901    1    3    3    0    0 -0.11781137684E+00 -0.23553235998E-01  0.33730322235E-01  0.88880369603E+00  0.88000000000E+00 0. -1.
        -11    1    4    4    0    0  0.52963601948E-01  0.23666588653E-01 -0.34096920624E-01  0.67291245098E-01  0.51100000000E-03 0.  1.
         11    1    4    4    0    0  0.60035271626E-01  0.12496740441E-01 -0.19025923502E-01  0.64207859698E-01  0.51100000000E-03 0. -1.
</event>
<event>
 8    1  0.1051655E+005  0.1043930E+01  0.7957747E-01            NaN
         13   -1    0    0    0    0  0.00000000000E+00  0.00000000000E+00  0.74505805969E-08  0.10566000000E+00  0.10566000000E+00 0.  1.
     999900   -1    0    0    0    0 -0.00000000000E+00 -0.00000000000E+00 -0.74505805969E-08  0.93827000000E+00  0.93827000000E+00 0.  1.
     999902    2    1    2    0    0  0.14531995051E-01 -0.75367771291E-02  0.15755448735E-01  0.10212096115E+01  0.10209568328E+01 0.  0.
     999903    2    3    3    0    0 -0.35070018998E-01 -0.14026109511E-01  0.12677030522E+00  0.13282525232E+00  0.12049870941E-01 0.  0.
         14    1    1    2    0    0 -0.14531995051E-01  0.75367771291E-02 -0.15755448735E-01  0.22720388520E-01  0.00000000000E+00 0. -1.
     999901    1    3    3    0    0  0.49602014049E-01  0.64893323821E-02 -0.11101485648E+00  0.88838435916E+00  0.88000000000E+00 0.  1.
        -11    1    4    4    0    0 -0.22448272180E-01 -0.52382911096E-02  0.91192125764E-01  0.94061838914E-01  0.51100000000E-03 0. -1.
         11    1    4    4    0    0 -0.12621746819E-01 -0.87878184016E-02  0.35578179453E-01  0.38763413410E-01  0.51100000000E-03 0.  1.
</event>
<event>
 8    1  0.1051655E+005  0.1043930E+01  0.7957747E-01            NaN
         13   -1    0    0    0    0  0.00000000000E+00  0.00000000000E+00  0.74505805969E-08  0.10566000000E+00  0.10566000000E+00 0.  1.
     999900   -1    0    0    0    0 -0.00000000000E+00 -0.00000000000E+00 -0.74505805969E-08  0.93827000000E+00  0.93827000000E+00 0. -1.
     999902    2    1    2    0    0 -0.17172734056E-02  0.84964371308E-02 -0.22360709569E-01  0.10199479274E+01  0.10196659428E+01 0.  0.
     999903    2    3    3    0    0 -0.10653733499E+00  0.73272561858E-01 -0.69367160184E-02  0.13122913546E+00  0.21304832704E-01 0.  0.
         14    1    1    2    0    0  0.17172734056E-02 -0.84964371308E-02  0.22360709569E-01  0.23982072560E-01  0.00000000000E+00 0. -1.
     999901    1    3    3    0    0  0.10482006158E+00 -0.64776124728E-01 -0.15423993551E-01  0.88871879198E+00  0.88000000000E+00 0.  1.
        -11    1    4    4    0    0 -0.51293749107E-01  0.32984484740E-01  0.71930860021E-02  0.61408684551E-01  0.51100000000E-03 0. -1.
         11    1    4    4    0    0 -0.55243585879E-01  0.40288077118E-01 -0.14129802021E-01  0.69820450907E-01  0.51100000000E-03 0.  1.
</event>
<event>
 8    1  0.1051655E+005  0.1043930E+01  0.7957747E-01            NaN
         13   -1    0    0    0    0  0.00000000000E+00  0.00000000000E+00  0.74505805969E-08  0.10566000000E+00  0.10566000000E+00 0. -1.
     999900   -1    0    0    0    0 -0.00000000000E+00 -0.00000000000E+00 -0.74505805969E-08  0.93827000000E+00  0.93827000000E+00 0. -1.
     999902    2    1    2    0    0  0.45714072560E-02  0.22902323386E-01 -0.49167824787E-02  0.10200639377E+01  0.10197847067E+01 0.  0.
     999903    2    3    3    0    0  0.10131139451E+00  0.80058270708E-01  0.21891967218E-01  0.13251442553E+00  0.20186366169E-01 0.  0.
         14    1    1    2    0    0 -0.45714072560E-02 -0.22902323386E-01  0.49167824787E-02  0.23866062322E-01  0.00000000000E+00 0. -1.
     999901    1    3    3    0    0 -0.96739987256E-01 -0.57155947321E-01 -0.26808749696E-01  0.88754951214E+00  0.88000000000E+00 0. -1.
        -11    1    4    4    0    0  0.48133472010E-01  0.50799194048E-01  0.10813744800E-01  0.70813751780E-01  0.51100000000E-03 0.  1.
         11    1    4    4    0    0  0.53177922502E-01  0.29259076660E-01  0.11078222418E-01  0.61700673753E-01  0.51100000000E-03 0. -1.
</event>
<event>
 8    1  0.1051655E+005  0.1043930E+01  0.7957747E-01            NaN
         13   -1    0    0    0    0  0.00000000000E+00  0.00000000000E+00  0.74505805969E-08  0.10566000000E+00  0.10566000000E+00 0.  1.
     999900   -1    0    0    0    0 -0.00000000000E+00 -0.00000000000E+00 -0.74505805969E-08  0.93827000000E+00  0.93827000000E+00 0. -1.
     999902    2    1    2    0    0 -0.14205102598E-01 -0.16566431952E-01  0.90036339248E-02  0.10203228606E+01  0.10200497257E+01 0.  0.
     999903    2    3    3    0    0 -0.74849013738E-01 -0.10632687412E+00 -0.20485277567E-01  0.13319027927E+00  0.20303321784E-01 0.  0.
         14    1    1    2    0    0  0.14205102598E-01  0.16566431952E-01 -0.90036339248E-02  0.23607139413E-01  0.00000000000E+00 0. -1.
     999901    1    3    3    0    0  0.60643911140E-01  0.89760442173E-01  0.29488911492E-01  0.88713258132E+00  0.88000000000E+00 0. -1.
        -11    1    4    4    0    0 -0.27838830051E-01 -0.56577400502E-01 -0.12405532581E-01  0.64266329176E-01  0.51100000000E-03 0. -1.
         11    1    4    4    0    0 -0.47010183688E-01 -0.49749473623E-01 -0.80797449859E-02  0.68923950091E-01  0.51100000000E-03 0.  1.
</event>
<event>
 8    1  0.1051655E+005  0.1043930E+01  0.7957747E-01            NaN
         13   -1    0    0    0    0  0.00000000000E+00  0.00000000000E+00  0.74505805969E-08  0.10566000000E+00  0.10566000000E+00 0. -1.
     999900   -1    0    0    0    0 -0.00000000000E+00 -0.00000000000E+00 -0.74505805969E-08  0.93827000000E+00  0.93827000000E+00 0. -1.
     999902    2    1    2    0    0  0.10596582300E-01 -0.46125082233E-02  0.20379481654E-01  0.10205016825E+01  0.10202327175E+01 0.  0.
     999903    2    3    3    0    0 -0.47513965412E-01  0.10949003672E+00 -0.44399032122E-01  0.12887817318E+00  0.19815761852E-01 0.  0.
         14    1    1    2    0    0 -0.10596582300E-01  0.46125082233E-02 -0.20379481654E-01  0.23428317504E-01  0.00000000000E+00 0.  1.
     999901    1    3    3    0    0  0.58110547712E-01 -0.11410254495E+00  0.64778513776E-01  0.89162350932E+00  0.88000000000E+00 0. -1.
        -11    1    4    4    0    0 -0.37771951331E-01  0.64573674426E-01 -0.31203441421E-01  0.81057976867E-01  0.51100000000E-03 0.  1.
         11    1    4    4    0    0 -0.97420140806E-02  0.44916362299E-01 -0.13195590700E-01  0.47820196313E-01  0.51100000000E-03 0. -1.
</event>
<event>
 8    1  0.1051655E+005  0.1043930E+01  0.7957747E-01            NaN
         13   -1    0    0    0    0  0.00000000000E+00  0.00000000000E+00  0.74505805969E-08  0.10566000000E+00  0.10566000000E+00 0. -1.
     999900   -1    0    0    0    0 -0.00000000000E+00 -0.00000000000E+00 -0.74505805969E-08  0.93827000000E+00  0.93827000000E+00 0.  1.
     999902    2    1    2    0    0  0.20595341986E-01  0.65921103633E-02 -0.50537131258E-03  0.10222994792E+01  0.10220706168E+01 0.  0.
     999903    2    3    3    0    0 -0.11783118295E-02  0.11940285918E+00  0.54184128308E-01  0.13314746832E+00  0.23106219127E-01 0.  0.
         14    1    1    2    0    0 -0.20595341986E-01 -0.65921103633E-02  0.50537131258E-03  0.21630520815E-01  0.00000000000E+00 0.  1.
     999901    1    3    3    0    0  0.21773653815E-01 -0.11281074881E+00 -0.54689499620E-01  0.88915201086E+00  0.88000000000E+00 0.  1.
        -11    1    4    4    0    0  0.85256245943E-02  0.63684546214E-01  0.21141198877E-01  0.67643322746E-01  0.51100000000E-03 0. -1.
         11    1    4    4    0    0 -0.97039364238E-02  0.55718312964E-01  0.33042929431E-01  0.65504145579E-01  0.51100000000E-03 0.  1.
</event>
<event>
 8    1  0.1051655E+005  0.1043930E+01  0.7957747E-01            NaN
         13   -1    0    0    0    0  0.00000000000E+00  0.00000000000E+00  0.74505805969E-08  0.10566000000E+00  0.10566000000E+00 0.  1.
     999900   -1    0    0    0    0 -0.00000000000E+00 -0.00000000000E+00 -0.74505805969E-08  0.93827000000E+00  0.93827000000E+00 0. -1.
     999902    2    1    2    0    0 -0.22446164287E-01 -0.10914065548E-01 -0.22162843956E-02  0.10188728846E+01  0.10185647234E+01 0.  0.
     999903    2    3    3    0    0 -0.97383208275E-01  0.22042649722E-01 -0.82755063840E-01  0.13141122305E+00  0.21240086909E-01 0.  0.
         14    1    1    2    0    0  0.22446164287E-01  0.10914065548E-01  0.22162843956E-02  0.25057115447E-01  0.00000000000E+00 0.  1.
     999901    1    3    3    0    0  0.74937043988E-01 -0.32956715270E-01  0.80538779444E-01  0.88746166150E+00  0.88000000000E+00 0.  1.
        -11    1    4    4    0    0 -0.47500724959E-01  0.37915085159E-02 -0.49657985792E-01  0.68824930675E-01  0.51100000000E-03 0. -1.
         11    1    4    4    0    0 -0.49882483316E-01  0.18251141206E-01 -0.33097078048E-01  0.62586292376E-01  0.51100000000E-03 0.  1.
</event>
<event>
 8    1  0.1051655E+005  0.1043930E+01  0.7957747E-01            NaN
         13   -1    0    0    0    0  0.00000000000E+00  0.00000000000E+00  0.74505805969E-08  0.10566000000E+00  0.10566000000E+00 0.  1.
     999900   -1    0    0    0    0 -0.00000000000E+00 -0.00000000000E+00 -0.74505805969E-08  0.93827000000E+00  0.93827000000E+00 0.  1.
     999902    2    1    2    0    0  0.13244430262E-01  0.13538375879E-01 -0.14691963915E-01  0.10199600947E+01  0.10196783995E+01 0.  0.
     999903    2    3    3    0    0  0.12007932211E+00 -0.32491152942E-01  0.35427196308E-01  0.13089072632E+00  0.20064331086E-01 0.  0.
         14    1    1    2    0    0 -0.13244430262E-01 -0.13538375879E-01  0.14691963915E-01  0.23969905258E-01  0.00000000000E+00 0. -1.
     999901    1    3    3    0    0 -0.10683489184E+00  0.46029528821E-01 -0.50119160223E-01  0.88906936842E+00  0.88000000000E+00 0. -1.
        -11    1    4    4    0    0  0.40165607206E-01 -0.13758113512E-01  0.27659900226E-02  0.42549659358E-01  0.51100000000E-03 0. -1.
         11    1    4    4    0    0  0.79913714901E-01 -0.18733039430E-01  0.32661206286E-01  0.88341066965E-01  0.51100000000E-03 0.  1.
</event>
<event>
 8    1  0.1051655E+005  0.1043930E+01  0.7957747E-01            NaN
         13   -1    0    0    0    0  0.00000000000E+00  0.00000000000E+00  0.74505805969E-08  0.10566000000E+00  0.10566000000E+00 0.  1.
     999900   -1    0    0    0    0 -0.00000000000E+00 -0.00000000000E+00 -0.74505805969E-08  0.93827000000E+00  0.93827000000E+00 0. -1.
     999902    2    1    2    0    0  0.18695775298E-01 -0.82899631251E-02  0.12694104067E-01  0.10198593585E+01  0.10195752623E+01 0.  0.
     999903    2    3    3    0    0  0.66318882583E-01  0.11740393638E-01  0.11236827378E+00  0.13272683425E+00  0.21301468153E-01 0.  0.
         14    1    1    2    0    0 -0.18695775298E-01  0.82899631251E-02 -0.12694104067E-01  0.24070641468E-01  0.00000000000E+00 0. -1.
     999901    1    3    3    0    0 -0.47623107286E-01 -0.20030356763E-01 -0.99674169717E-01  0.88713252429E+00  0.88000000000E+00 0. -1.
        -11    1    4    4    0    0  0.11419623572E-01  0.10100641122E-01  0.18591802032E-01  0.24048845657E-01  0.51100000000E-03 0.  1.
         11    1    4    4    0    0  0.54899259012E-01  0.16397525161E-02  0.93776471752E-01  0.10867798859E+00  0.51100000000E-03 0. -1.
</event>
<event>
 8    1  0.1051655E+005  0.1043930E+01  0.7957747E-01            NaN
         13   -1    0    0    0    0  0.00000000000E+00  0.00000000000E+00  0.74505805969E-08  0.10566000000E+00  0.10566000000E+00 0. -1.
     999900   -1    0    0    0    0 -0.00000000000E+00 -0.00000000000E+00 -0.74505805969E-08  0.93827000000E+00  0.93827000000E+00 0.  1.
     999902    2    1    2    0    0  0.20274130733E-01  0.93479058612E-03  0.13804176423E-01  0.10193847459E+01  0.10190891967E+01 0.  0.
     999903    2    3    3    0    0  0.27592688002E-01 -0.12555961952E+00  0.54170925772E-02  0.13027016375E+00  0.20356723370E-01 0.  0.
         14    1    1    2    0    0 -0.20274130733E-01 -0.93479058612E-03 -0.13804176423E-01  0.24545254065E-01  0.00000000000E+00 0.  1.
     999901    1    3    3    0    0 -0.73185572690E-02  0.12649441011E+00  0.83870838461E-02  0.88911458218E+00  0.88000000000E+00 0.  1.
        -11    1    4    4    0    0  0.27371976727E-01 -0.93326646017E-01 -0.16225771982E-02  0.97272718911E-01  0.51100000000E-03 0.  1.
         11    1    4    4    0    0  0.22071127436E-03 -0.32232973508E-01  0.70396697754E-02  0.32997444843E-01  0.51100000000E-03 0. -1.
</event>
<event>
 8    1  0.1051655E+005  0.1043930E+01  0.7957747E-01            NaN
         13   -1    0    0    0    0  0.00000000000E+00  0.00000000000E+00  0.74505805969E-08  0.10566000000E+00  0.10566000000E+00 0. -1.
     999900   -1    0    0    0    0 -0.00000000000E+00 -0.00000000000E+00 -0.74505805969E-08  0.93827000000E+00  0.93827000000E+00 0. -1.
     999902    2    1    2    0    0 -0.15881210389E-01 -0.12871792861E-01  0.12310875028E-01  0.10200667743E+01  0.10197876105E+01 0.  0.
     999903    2    3    3    0    0  0.68146759863E-01  0.85499079973E-01  0.65588247340E-01  0.12901346123E+00  0.19712468983E-01 0.  0.
         14    1    1    2    0    0  0.15881210389E-01  0.12871792861E-01 -0.12310875028E-01  0.23863225659E-01  0.00000000000E+00 0.  1.
     999901    1    3    3    0    0 -0.84027970252E-01 -0.98370872834E-01 -0.53277372312E-01  0.89105331311E+00  0.88000000000E+00 0. -1.
        -11    1    4    4    0    0  0.98443571094E-02  0.24195814748E-01  0.20054400382E-01  0.32936133864E-01  0.51100000000E-03 0. -1.
         11    1    4    4    0    0  0.58302402753E-01  0.61303265225E-01  0.45533846958E-01  0.96077327366E-01  0.51100000000E-03 0.  1.
</event>
<event>
 8    1  0.1051655E+005  0.1043930E+01  0.7957747E-01            NaN
         13   -1    0    0    0    0  0.00000000000E+00  0.00000000000E+00  0.74505805969E-08  0.10566000000E+00  0.10566000000E+00 0. -1.
     999900   -1    0    0    0    0 -0.00000000000E+00 -0.00000000000E+00 -0.74505805969E-08  0.93827000000E+00  0.93827000000E+00 0.  1.
     999902    2    1    2    0    0 -0.12230600848E-01 -0.20992281724E-02  0.23230964846E-01  0.10175923448E+01  0.10172514478E+01 0.  0.
     999903    2    3    3    0    0  0.60330990439E-01 -0.33328680251E-01  0.10843265846E+00  0.12995514871E+00  0.19495382042E-01 0.  0.
         14    1    1    2    0    0  0.12230600848E-01  0.20992281724E-02 -0.23230964846E-01  0.26337655243E-01  0.00000000000E+00 0.  1.
     999901    1    3    3    0    0 -0.72561591287E-01  0.31229452078E-01 -0.85201693616E-01  0.88763719604E+00  0.88000000000E+00 0.  1.
        -11    1    4    4    0    0  0.10991898160E-01 -0.50333336222E-02  0.79108260369E-02  0.14456782564E-01  0.51100000000E-03 0.  1.
         11    1    4    4    0    0  0.49339092279E-01 -0.28295346628E-01  0.10052183243E+00  0.11549836615E+00  0.51100000000E-03 0. -1.
</event>
<event>
 8    1  0.1051655E+005  0.1043930E+01  0.7957747E-01            NaN
         13   -1    0    0    0    0  0.00000000000E+00  0.00000000000E+00  0.74505805969E-08  0.10566000000E+00  0.10566000000E+00 0. -1.
     999900   -1    0    0    0    0 -0.00000000000E+00 -0.00000000000E+00 -0.74505805969E-08  0.93827000000E+00  0.93827000000E+00 0.  1.
     999902    2    1    2    0    0 -0.13513810095E-01 -0.20049328239E-01 -0.62263767726E-02  0.10189626935E+01  0.10186567647E+01 0.  0.
     999903    2    3    3    0    0  0.94655266790E-01 -0.33284892497E-02 -0.84794138837E-01  0.12870821927E+00  0.20126136117E-01 0.  0.
         14    1    1    2    0    0  0.13513810095E-01  0.20049328239E-01  0.62263767726E-02  0.24967306499E-01  0.00000000000E+00 0.  1.
     999901    1    3    3    0    0 -0.10816907689E+00 -0.16720838989E-01  0.78567762064E-01  0.89025447423E+00  0.88000000000E+00 0. -1.
        -11    1    4    4    0    0  0.55487330135E-01  0.73784229949E-02 -0.53601408261E-01  0.77502625890E-01  0.51100000000E-03 0.  1.
         11    1    4    4    0    0  0.39167936655E-01 -0.10706912245E-01 -0.31192730576E-01  0.51205593380E-01  0.51100000000E-03 0. -1.
</event>
<event>
 8    1  0.1051655E+005  0.1043930E+01  0.7957747E-01            NaN
         13   -1    0    0    0    0  0.00000000000E+00  0.00000000000E+00  0.74505805969E-08  0.10566000000E+00  0.10566000000E+00 0. -1.
     999900   -1    0    0    0    0 -0.00000000000E+00 -0.00000000000E+00 -0.74505805969E-08  0.93827000000E+00  0.93827000000E+00 0.  1.
     999902    2    1    2    0    0  0.72167685668E-02 -0.20925983811E-01 -0.49037134525E-02  0.10212578816E+01  0.10210061879E+01 0.  0.
     999903    2    3    3    0    0  0.93224769859E-01  0.68423692706E-03  0.90564515836E-01  0.13166327689E+00  0.21022869877E-01 0.  0.
         14    1    1    2    0    0 -0.72167685668E-02  0.20925983811E-01  0.49037134525E-02  0.22672118398E-01  0.00000000000E+00 0. -1.
     999901    1    3    3    0    0 -0.86008001292E-01 -0.21610220738E-01 -0.95468229288E-01  0.88959460471E+00  0.88000000000E+00 0.  1.
        -11    1    4    4    0    0  0.20428032421E-01  0.89113882816E-02  0.22063644977E-01  0.31365313651E-01  0.51100000000E-03 0.  1.
         11    1    4    4    0    0  0.72796737437E-01 -0.82271513545E-02  0.68500870858E-01  0.10029796324E+00  0.51100000000E-03 0. -1.
</event>
<event>
 8    1  0.1051655E+005  0.1043930E+01  0.7957747E-01            NaN
         13   -1    0    0    0    0  0.00000000000E+00  0.00000000000E+00  0.74505805969E-08  0.10566000000E+00  0.10566000000E+00 0.  1.
     999900   -1    0    0    0    0 -0.00000000000E+00 -0.00000000000E+00 -0.74505805969E-08  0.93827000000E+00  0.93827000000E+00 0. -1.
     999902    2    1    2    0    0  0.82958905941E-02  0.21175546813E-01  0.60502369961E-02  0.10203963868E+01  0.10201249704E+01 0.  0.
     999903    2    3    3    0    0  0.11904275816E+00 -0.48218646014E-01  0.14105329704E-01  0.13070806653E+00  0.19733784094E-01 0.  0.
         14    1    1    2    0    0 -0.82958905941E-02 -0.21175546813E-01 -0.60502369961E-02  0.23533613222E-01  0.00000000000E+00 0. -1.
     999901    1    3    3    0    0 -0.11074686757E+00  0.69394192827E-01 -0.80550927077E-02  0.88968832025E+00  0.88000000000E+00 0. -1.
        -11    1    4    4    0    0  0.50393803647E-01 -0.20146322181E-01  0.15776595743E-01  0.56520543501E-01  0.51100000000E-03 0. -1.
         11    1    4    4    0    0  0.68648954515E-01 -0.28072323833E-01 -0.16712660391E-02  0.74187523025E-01  0.51100000000E-03 0.  1.
</event>
<event>
 8    1  0.1051655E+005  0.1043930E+01  0.7957747E-01            NaN
         13   -1    0    0    0    0  0.00000000000E+00  0.00000000000E+00  0.74505805969E-08  0.10566000000E+00  0.10566000000E+00 0.  1.
     999900   -1    0    0    0    0 -0.00000000000E+00 -0.00000000000E+00 -0.74505805969E-08  0.93827000000E+00  0.93827000000E+00 0. -1.
     999902    2    1    2    0    0 -0.76212276808E-02 -0.23492781817E-01  0.36017963583E-02  0.10189706962E+01  0.10186649660E+01 0.  0.
     999903    2    3    3    0    0 -0.85768269452E-01  0.49073707661E-01 -0.79803818471E-01  0.12861719780E+00  0.20231393915E-01 0.  0.
         14    1    1    2    0    0  0.76212276808E-02  0.23492781817E-01 -0.36017963583E-02  0.24959303794E-01  0.00000000000E+00 0.  1.
     999901    1    3    3    0    0  0.78147041771E-01 -0.72566489478E-01  0.83405614829E-01  0.89035349840E+00  0.88000000000E+00 0. -1.
        -11    1    4    4    0    0 -0.11330559177E-01  0.59195024067E-02 -0.26875612530E-02  0.13073109289E-01  0.51100000000E-03 0. -1.
         11    1    4    4    0    0 -0.74437710276E-01  0.43154205254E-01 -0.77116257218E-01  0.11554408851E+00  0.51100000000E-03 0.  1.
</event>
<event>
 8    1  0.1051655E+005  0.1043930E+01  0.7957747E-01            NaN
         13   -1    0    0    0    0  0.00000000000E+00  0.00000000000E+00  0.74505805969E-08  0.10566000000E+00  0.10566000000E+00 0. -1.
     999900   -1    0    0    0    0 -0.00000000000E+00 -0.00000000000E+00 -0.74505805969E-08  0.93827000000E+00  0.93827000000E+00 0. -1.
     999902    2    1    2    0    0 -0.19260631638E-01  0.98554066359E-02 -0.10245477783E-01  0.10199911031E+01  0.10197101449E+01 0.  0.
     999903    2    3    3    0    0  0.25639794542E-01  0.85182070504E-01  0.92105872752E-01  0.12972936992E+00  0.20804649123E-01 0.  0.
         14    1    1    2    0    0  0.19260631638E-01 -0.98554066359E-02  0.10245477783E-01  0.23938896926E-01  0.00000000000E+00 0.  1.
     999901    1    3    3    0    0 -0.44900426180E-01 -0.75326663868E-01 -0.10235135053E+00  0.89026173315E+00  0.88000000000E+00 0. -1.
        -11    1    4    4    0    0  0.77363404238E-02  0.19062557895E-01  0.10246323461E-01  0.22988700314E-01  0.51100000000E-03 0.  1.
         11    1    4    4    0    0  0.17903454119E-01  0.66119512608E-01  0.81859549290E-01  0.10674066961E+00  0.51100000000E-03 0. -1.
</event>
<event>
 8    1  0.1051655E+005  0.1043930E+01  0.7957747E-01            NaN
         13   -1    0    0    0    0  0.00000000000E+00  0.00000000000E+00  0.74505805969E-08  0.10566000000E+00  0.10566000000E+00 0.  1.
     999900   -1    0    0    0    0 -0.00000000000E+00 -0.00000000000E+00 -0.74505805969E-08  0.93827000000E+00  0.93827000000E+00 0.  1.
     999902    2    1    2    0    0  0.12003426536E-01 -0.12916850568E-01  0.13714730263E-01  0.10215912197E+01  0.10213469534E+01 0.  0.
     999903    2    3    3    0    0 -0.53393163371E-01  0.10298605539E+00  0.56923503075E-01  0.13053723954E+00  0.18512919980E-01 0.  0.
         14    1    1    2    0    0 -0.12003426536E-01  0.12916850568E-01 -0.13714730263E-01  0.22338780258E-01  0.00000000000E+00 0. -1.
     999901    1    3    3    0    0  0.65396589907E-01 -0.11590290596E+00 -0.43208772812E-01  0.89105398020E+00  0.88000000000E+00 0.  1.
        -11    1    4    4    0    0 -0.16997301738E-01  0.29148999679E-01  0.25993679063E-01  0.42597006008E-01  0.51100000000E-03 0. -1.
         11    1    4    4    0    0 -0.36395861634E-01  0.73837055709E-01  0.30929824012E-01  0.87940233535E-01  0.51100000000E-03 0.  1.
</event>
<event>
 8    1  0.1051655E+005  0.1043930E+01  0.7957747E-01            NaN
         13   -1    0    0    0    0  0.00000000000E+00  0.00000000000E+00  0.74505805969E-08  0.10566000000E+00  0.10566000000E+00 0. -1.
     999900   -1    0    0    0    0 -0.00000000000E+00 -0.00000000000E+00 -0.74505805969E-08  0.93827000000E+00  0.93827000000E+00 0.  1.
     999902    2    1    2    0    0  0.10090196942E-01 -0.66250858029E-03  0.21317464087E-01  0.10203358213E+01  0.10200629897E+01 0.  0.
     999903    2    3    3    0    0  0.58063400386E-01 -0.94471061156E-01  0.70099950308E-01  0.13270909587E+00  0.20038992843E-01 0.  0.
         14    1    1    2    0    0 -0.10090196942E-01  0.66250858029E-03 -0.21317464087E-01  0.23594178668E-01  0.00000000000E+00 0.  1.
     999901    1    3    3    0    0 -0.47973203444E-01  0.93808552576E-01 -0.48782486222E-01  0.88762672546E+00  0.88000000000E+00 0.  1.
        -11    1    4    4    0    0  0.54112505279E-01 -0.93472301666E-01  0.64623865895E-01  0.12586397249E+00  0.51100000000E-03 0. -1.
         11    1    4    4    0    0  0.39508951068E-02 -0.99875948981E-03  0.54760844129E-02  0.68451233854E-02  0.51100000000E-03 0.  1.
</event>
<event>
 8    1  0.1051655E+005  0.1043930E+01  0.7957747E-01            NaN
         13   -1    0    0    0    0  0.00000000000E+00  0.00000000000E+00  0.74505805969E-08  0.10566000000E+00  0.10566000000E+00 0.  1.
     999900   -1    0    0    0    0 -0.00000000000E+00 -0.00000000000E+00 -0.74505805969E-08  0.93827000000E+00  0.93827000000E+00 0.  1.
     999902    2    1    2    0    0  0.17577286410E-01 -0.12865125415E-01  0.99578628886E-02  0.10199793949E+01  0.10196981586E+01 0.  0.
     999903    2    3    3    0    0  0.10780055637E+00 -0.42818454509E-01 -0.60096278305E-01  0.13209143857E+00  0.19550076114E-01 0.  0.
         14    1    1    2    0    0 -0.17577286410E-01  0.12865125415E-01 -0.99578628886E-02  0.23950605061E-01  0.00000000000E+00 0. -1.
     999901    1    3    3    0    0 -0.90223269965E-01  0.29953329094E-01  0.70054141193E-01  0.88788795637E+00  0.88000000000E+00 0. -1.
        -11    1    4    4    0    0  0.47147276901E-01 -0.13917695004E-01 -0.15894997444E-01  0.51667010927E-01  0.51100000000E-03 0.  1.
         11    1    4    4    0    0  0.60653279474E-01 -0.28900759505E-01 -0.44201280861E-01  0.80424427643E-01  0.51100000000E-03 0. -1.
</event>
<event>
 8    1  0.1051655E+005  0.1043930E+01  0.7957747E-01            NaN
         13   -1    0    0    0    0  0.00000000000E+00  0.00000000000E+00  0.74505805969E-08  0.10566000000E+00  0.10566000000E+00 0.  1.
     999900   -1    0    0    0    0 -0.00000000000E+00 -0.00000000000E+00 -0.74505805969E-08  0.93827000000E+00  0.93827000000E+00 0.  1.
     999902    2    1    2    0    0  0.17355329529E-01  0.42556974158E-02 -0.13092199877E-01  0.10217777062E+01  0.10215375454E+01 0.  0.
     999903    2    3    3    0    0  0.55247918454E-01 -0.12119230100E-02 -0.12075648320E+00  0.13438977463E+00  0.20607815003E-01 0.  0.
         14    1    1    2    0    0 -0.17355329529E-01 -0.42556974158E-02  0.13092199877E-01  0.22152293813E-01  0.00000000000E+00 0. -1.
     999901    1    3    3    0    0 -0.37892588925E-01  0.54676204258E-02  0.10766428332E+00  0.88738793156E+00  0.88000000000E+00 0. -1.
        -11    1    4    4    0    0  0.36526508873E-01  0.84269305375E-02 -0.84815185313E-01  0.92731201811E-01  0.51100000000E-03 0. -1.
         11    1    4    4    0    0  0.18721409581E-01 -0.96388535475E-02 -0.35941297888E-01  0.41658572819E-01  0.51100000000E-03 0.  1.
</event>
<event>
 8    1  0.1051655E+005  0.1043930E+01  0.7957747E-01            NaN
         13   -1    0    0    0    0  0.00000000000E+00  0.00000000000E+00  0.74505805969E-08  0.10566000000E+00  0.10566000000E+00 0. -1.
     999900   -1    0    0    0    0 -0.00000000000E+00 -0.00000000000E+00 -0.74505805969E-08  0.93827000000E+00  0.93827000000E+00 0.  1.
     999902    2    1    2    0    0 -0.55267043766E-02  0.20980963453E-01  0.97170804514E-02  0.10201567600E+01  0.10198797223E+01 0.  0.
     999903    2    3    3    0    0  0.11339611091E+00  0.51918627290E-01  0.37441548904E-01  0.13118633235E+00  0.15929921007E-01 0.  0.
         14    1    1    2    0    0  0.55267043766E-02 -0.20980963453E-01 -0.97170804514E-02  0.23773240023E-01  0.00000000000E+00 0.  1.
     999901    1    3    3    0    0 -0.11892281528E+00 -0.30937663837E-01 -0.27724468452E-01  0.88897042762E+00  0.88000000000E+00 0. -1.
        -11    1    4    4    0    0  0.21447305408E-01  0.15922616824E-01  0.11529127048E-01  0.29098084599E-01  0.51100000000E-03 0.  1.
         11    1    4    4    0    0  0.91948805499E-01  0.35996010466E-01  0.25912421856E-01  0.10208824775E+00  0.51100000000E-03 0. -1.
</event>
<event>
 8    1  0.1051655E+005  0.1043930E+01  0.7957747E-01            NaN
         13   -1    0    0    0    0  0.00000000000E+00  0.00000000000E+00  0.74505805969E-08  0.10566000000E+00  0.10566000000E+00 0. -1.
     999900   -1    0    0    0    0 -0.00000000000E+00 -0.00000000000E+00 -0.74505805969E-08  0.93827000000E+00  0.93827000000E+00 0.  1.
     999902    2    1    2    0    0  0.22723395180E-01 -0.65869473630E-03 -0.65240424593E-02  0.10202794250E+01  0.10200052722E+01 0.  0.
     999903    2    3    3    0    0  0.82536964032E-01  0.96091153905E-01 -0.33532890179E-01  0.13254766705E+00  0.19964193634E-01 0.  0.
         14    1    1    2    0    0 -0.22723395180E-01  0.65869473630E-03  0.65240424593E-02  0.23650574989E-01  0.00000000000E+00 0.  1.
     999901    1    3    3    0    0 -0.59813568851E-01 -0.96749848641E-01  0.27008847720E-01  0.88773175796E+00  0.88000000000E+00 0. -1.
        -11    1    4    4    0    0  0.27561148467E-01  0.45935280763E-01 -0.10006004729E-01  0.54498148365E-01  0.51100000000E-03 0. -1.
         11    1    4    4    0    0  0.54975815565E-01  0.50155873142E-01 -0.23526885450E-01  0.78049518689E-01  0.51100000000E-03 0.  1.
</event>
<event>
 8    1  0.1051655E+005  0.1043930E+01  0.7957747E-01            NaN
         13   -1    0    0    0    0  0.00000000000E+00  0.00000000000E+00  0.74505805969E-08  0.10566000000E+00  0.10566000000E+00 0.  1.
     999900   -1    0    0    0    0 -0.00000000000E+00 -0.00000000000E+00 -0.74505805969E-08  0.93827000000E+00  0.93827000000E+00 0. -1.
     999902    2    1    2    0    0 -0.71407819111E-02  0.23955306648E-01  0.19276671180E-02  0.10188588336E+01  0.10185503225E+01 0.  0.
     999903    2    3    3    0    0 -0.51951618259E-01 -0.10945213391E+00 -0.32623096849E-01  0.12700721394E+00  0.19693290409E-01 0.  0.
         14    1    1    2    0    0  0.71407819111E-02 -0.23955306648E-01 -0.19276671180E-02  0.25071166376E-01  0.00000000000E+00 0.  1.
     999901    1    3    3    0    0  0.44810836348E-01  0.13340744056E+00  0.34550763967E-01  0.89185161969E+00  0.88000000000E+00 0. -1.
        -11    1    4    4    0    0 -0.25857709564E-01 -0.57322445597E-01 -0.27002535861E-01  0.68438892284E-01  0.51100000000E-03 0. -1.
         11    1    4    4    0    0 -0.26093908695E-01 -0.52129688310E-01 -0.56205609882E-02  0.58568321652E-01  0.51100000000E-03 0.  1.
</event>
<event>
 8    1  0.1051655E+005  0.1043930E+01  0.7957747E-01            NaN
         13   -1    0    0    0    0  0.00000000000E+00  0.00000000000E+00  0.74505805969E-08  0.10566000000E+00  0.10566000000E+00 0. -1.
     999900   -1    0    0    0    0 -0.00000000000E+00 -0.00000000000E+00 -0.74505805969E-08  0.93827000000E+00  0.93827000000E+00 0.  1.
     999902    2    1    2    0    0 -0.13746877587E-01  0.89791043295E-02  0.16981628333E-01  0.10203084704E+01  0.10200349985E+01 0.  0.
     999903    2    3    3    0    0  0.93921871556E-01  0.84755346089E-01  0.25248066812E-01  0.13047537802E+00  0.19533887090E-01 0.  0.
         14    1    1    2    0    0  0.13746877587E-01 -0.89791043295E-02 -0.16981628333E-01  0.23621529561E-01  0.00000000000E+00 0.  1.
     999901    1    3    3    0    0 -0.10766874914E+00 -0.75776241759E-01 -0.82664384787E-02  0.88983309242E+00  0.88000000000E+00 0. -1.
        -11    1    4    4    0    0  0.17554972251E-01  0.16555997993E-01  0.12838577520E-01  0.27338037860E-01  0.51100000000E-03 0. -1.
         11    1    4    4    0    0  0.76366899305E-01  0.68199348095E-01  0.12409489292E-01  0.10313734016E+00  0.51100000000E-03 0.  1.
</event>
<event>
 8    1  0.1051655E+005  0.1043930E+01  0.7957747E-01            NaN
         13   -1    0    0    0    0  0.00000000000E+00  0.00000000000E+00  0.74505805969E-08  0.10566000000E+00  0.10566000000E+00 0.  1.
     999900   -1    0    0    0    0 -0.00000000000E+00 -0.00000000000E+00 -0.74505805969E-08  0.93827000000E+00  0.93827000000E+00 0. -1.
     999902    2    1    2    0    0 -0.21890053288E-01 -0.78588177819E-02 -0.59531856244E-02  0.10199221707E+01  0.10196395728E+01 0.  0.
     999903    2    3    3    0    0 -0.53976834849E-01  0.65226603026E-01  0.96988759651E-01  0.13033345425E+00  0.20297323867E-01 0.  0.
         14    1    1    2    0    0  0.21890053288E-01  0.78588177819E-02  0.59531856244E-02  0.24007829327E-01  0.00000000000E+00 0.  1.
     999901    1    3    3    0    0  0.32086781560E-01 -0.73085420808E-01 -0.10294194528E+00  0.88958871642E+00  0.88000000000E+00 0. -1.
        -11    1    4    4    0    0 -0.39657888155E-01  0.35880746931E-01  0.69161690027E-01  0.87428694270E-01  0.51100000000E-03 0. -1.
         11    1    4    4    0    0 -0.14318946694E-01  0.29345856095E-01  0.27827069624E-01  0.42904759983E-01  0.51100000000E-03 0.  1.
</event>
<event>
 8    1  0.1051655E+005  0.1043930E+01  0.7957747E-01            NaN
         13   -1    0    0    0    0  0.00000000000E+00  0.00000000000E+00  0.74505805969E-08  0.10566000000E+00  0.10566000000E+00 0. -1.
     999900   -1    0    0    0    0 -0.00000000000E+00 -0.00000000000E+00 -0.74505805969E-08  0.93827000000E+00  0.93827000000E+00 0.  1.
     999902    2    1    2    0    0  0.98957959472E-02 -0.16098178634E-01 -0.13455089294E-01  0.10207326389E+01  0.10204690111E+01 0.  0.
     999903    2    3    3    0    0  0.80462273808E-01 -0.82018830489E-01  0.62134013435E-01  0.13222891210E+00  0.20556836050E-01 0.  0.
         14    1    1    2    0    0 -0.98957959472E-02  0.16098178634E-01  0.13455089294E-01  0.23197361071E-01  0.00000000000E+00 0. -1.
     999901    1    3    3    0    0 -0.70566477860E-01  0.65920651855E-01 -0.75589102729E-01  0.88850372683E+00  0.88000000000E+00 0.  1.
        -11    1    4    4    0    0  0.14238433201E-01 -0.27310667776E-01  0.17410436379E-01  0.35383470297E-01  0.51100000000E-03 0. -1.
         11    1    4    4    0    0  0.66223840607E-01 -0.54708162713E-01  0.44723577056E-01  0.96845441802E-01  0.51100000000E-03 0.  1.
</event>
<event>
 8    1  0.1051655E+005  0.1043930E+01  0.7957747E-01            NaN
         13   -1    0    0    0    0  0.00000000000E+00  0.00000000000E+00  0.74505805969E-08  0.10566000000E+00  0.10566000000E+00 0. -1.
     999900   -1    0    0    0    0 -0.00000000000E+00 -0.00000000000E+00 -0.74505805969E-08  0.93827000000E+00  0.93827000000E+00 0. -1.
     999902    2    1    2    0    0 -0.60047888672E-02  0.19066338663E-01  0.14683274671E-01  0.10191271511E+01  0.10188252886E+01 0.  0.
     999903    2    3    3    0    0  0.30929566218E-01 -0.39833678556E-01  0.11846788095E+00  0.13030511990E+00  0.20035604346E-01 0.  0.
         14    1    1    2    0    0  0.60047888672E-02 -0.19066338663E-01 -0.14683274671E-01  0.24802848917E-01  0.00000000000E+00 0.  1.
     999901    1    3    3    0    0 -0.36934355085E-01  0.58900017218E-01 -0.10378460628E+00  0.88882203118E+00  0.88000000000E+00 0. -1.
        -11    1    4    4    0    0  0.23787084145E-01 -0.14327156409E-01  0.60632374700E-01  0.66690619773E-01  0.51100000000E-03 0. -1.
         11    1    4    4    0    0  0.71424820726E-02 -0.25506522147E-01  0.57835506251E-01  0.63614500128E-01  0.51100000000E-03 0.  1.
</event>
<event>
 8    1  0.1051655E+005  0.1043930E+01  0.7957747E-01            NaN
         13   -1    0    0    0    0  0.00000000000E+00  0.00000000000E+00  0.74505805969E-08  0.10566000000E+00  0.10566000000E+00 0.  1.
     999900   -1    0    0    0    0 -0.00000000000E+00 -0.00000000000E+00 -0.74505805969E-08  0.93827000000E+00  0.93827000000E+00 0.  1.
     999902    2    1    2    0    0  0.97432772132E-03  0.24918866814E-02 -0.22356810799E-01  0.10214136548E+01  0.10211654461E+01 0.  0.
     999903    2    3    3    0    0 -0.46685019473E-01 -0.92754149714E-01  0.75044084331E-01  0.12965687447E+00  0.19911483430E-01 0.  0.
         14    1    1    2    0    0 -0.97432772132E-03 -0.24918866814E-02  0.22356810799E-01  0.22516345237E-01  0.00000000000E+00 0.  1.
     999901    1    3    3    0    0  0.47659347195E-01  0.95246036395E-01 -0.97400895129E-01  0.89175678029E+00  0.88000000000E+00 0.  1.
        -11    1    4    4    0    0 -0.19691791325E-01 -0.50381177496E-01  0.28386027529E-01  0.61090566959E-01  0.51100000000E-03 0. -1.
         11    1    4    4    0    0 -0.26993228148E-01 -0.42372972217E-01  0.46658056802E-01  0.68566307513E-01  0.51100000000E-03 0.  1.
</event>
<event>
 8    1  0.1051655E+005  0.1043930E+01  0.7957747E-01            NaN
         13   -1    0    0    0    0  0.00000000000E+00  0.00000000000E+00  0.74505805969E-08  0.10566000000E+00  0.10566000000E+00 0.  1.
     999900   -1    0    0    0    0 -0.00000000000E+00 -0.00000000000E+00 -0.74505805969E-08  0.93827000000E+00  0.93827000000E+00 0.  1.
     999902    2    1    2    0    0  0.20254668114E-01 -0.68870977829E-02  0.11670765690E-01  0.10195601320E+01  0.10192688420E+01 0.  0.
     999903    2    3    3    0    0  0.15295002552E-01  0.11454694390E+00 -0.53357605460E-01  0.12883036721E+00  0.19881901200E-01 0.  0.
         14    1    1    2    0    0 -0.20254668114E-01  0.68870977829E-02 -0.11670765690E-01  0.24369868036E-01  0.00000000000E+00 0.  1.
     999901    1    3    3    0    0  0.49596655625E-02 -0.12143404168E+00  0.65028371150E-01  0.89072976475E+00  0.88000000000E+00 0. -1.
        -11    1    4    4    0    0  0.16698783118E-01  0.89311845745E-01 -0.48823420229E-01  0.10314767390E+00  0.51100000000E-03 0.  1.
         11    1    4    4    0    0 -0.14037805657E-02  0.25235098155E-01 -0.45341852313E-02  0.25682693307E-01  0.51100000000E-03 0. -1.
</event>
<event>
 8    1  0.1051655E+005  0.1043930E+01  0.7957747E-01            NaN
         13   -1    0    0    0    0  0.00000000000E+00  0.00000000000E+00  0.74505805969E-08  0.10566000000E+00  0.10566000000E+00 0.  1.
     999900   -1    0    0    0    0 -0.00000000000E+00 -0.00000000000E+00 -0.74505805969E-08  0.93827000000E+00  0.93827000000E+00 0. -1.
     999902    2    1    2    0    0  0.21221842689E-01 -0.11507516375E-01 -0.86795420064E-02  0.10182760726E+01  0.10179528654E+01 0.  0.
     999903    2    3    3    0    0  0.83724395214E-02 -0.12793433905E+00 -0.13518154929E-01  0.13050148165E+00  0.20263349889E-01 0.  0.
         14    1    1    2    0    0 -0.21221842689E-01  0.11507516375E-01  0.86795420064E-02  0.25653927373E-01  0.00000000000E+00 0. -1.
     999901    1    3    3    0    0  0.12849403167E-01  0.11642682268E+00  0.48386129224E-02  0.88777459097E+00  0.88000000000E+00 0.  1.
        -11    1    4    4    0    0 -0.29782824341E-03 -0.10689957140E+00 -0.13450354940E-01  0.10774404965E+00  0.51100000000E-03 0. -1.
         11    1    4    4    0    0  0.86702677648E-02 -0.21034767655E-01 -0.67799988908E-04  0.22757432000E-01  0.51100000000E-03 0.  1.
</event>
<event>
 8    1  0.1051655E+005  0.1043930E+01  0.7957747E-01            NaN
         13   -1    0    0    0    0  0.00000000000E+00  0.00000000000E+00  0.74505805969E-08  0.10566000000E+00  0.10566000000E+00 0. -1.
     999900   -1    0    0    0    0 -0.00000000000E+00 -0.00000000000E+00 -0.74505805969E-08  0.93827000000E+00  0.93827000000E+00 0.  1.
     999902    2    1    2    0    0  0.71196141800E-02  0.89545546826E-02  0.22795695690E-01  0.10184247712E+01  0.10181053471E+01 0.  0.
     999903    2    3    3    0    0  0.92192340138E-01  0.24966669614E-01  0.88535371523E-01  0.13173685454E+00  0.19832414398E-01 0.  0.
         14    1    1    2    0    0 -0.71196141800E-02 -0.89545546826E-02 -0.22795695690E-01  0.25505228829E-01  0.00000000000E+00 0.  1.
     999901    1    3    3    0    0 -0.85072725958E-01 -0.16012114932E-01 -0.65739675833E-01  0.88668791663E+00  0.88000000000E+00 0.  1.
        -11    1    4    4    0    0  0.64236744293E-02  0.20239883718E-02  0.61004475235E-03  0.67818432379E-02  0.51100000000E-03 0.  1.
         11    1    4    4    0    0  0.85768665708E-01  0.22942681243E-01  0.87925326771E-01  0.12495501130E+00  0.51100000000E-03 0. -1.
</event>
<event>
 8    1  0.1051655E+005  0.1043930E+01  0.7957747E-01            NaN
         13   -1    0    0    0    0  0.00000000000E+00  0.00000000000E+00  0.74505805969E-08  0.10566000000E+00  0.10566000000E+00 0.  1.
     999900   -1    0    0    0    0 -0.00000000000E+00 -0.00000000000E+00 -0.74505805969E-08  0.93827000000E+00  0.93827000000E+00 0.  1.
     999902    2    1    2    0    0 -0.77994275320E-02 -0.20781695540E-01 -0.10535940986E-01  0.10193593673E+01  0.10190631991E+01 0.  0.
     999903    2    3    3    0    0 -0.45256526955E-01  0.83498071188E-03 -0.12172312599E+00  0.13130930952E+00  0.19410433813E-01 0.  0.
         14    1    1    2    0    0  0.77994275320E-02  0.20781695540E-01  0.10535940986E-01  0.24570632711E-01  0.00000000000E+00 0.  1.
     999901    1    3    3    0    0  0.37457099423E-01 -0.21616676252E-01  0.11118718501E+00  0.88805005777E+00  0.88000000000E+00 0. -1.
        -11    1    4    4    0    0 -0.36346354694E-01 -0.64233513260E-02 -0.10203437210E+00  0.10850618025E+00  0.51100000000E-03 0.  1.
         11    1    4    4    0    0 -0.89101722613E-02  0.72583320379E-02 -0.19688753892E-01  0.22803129271E-01  0.51100000000E-03 0. -1.
</event>
<event>
 8    1  0.1051655E+005  0.1043930E+01  0.7957747E-01            NaN
         13   -1    0    0    0    0  0.00000000000E+00  0.00000000000E+00  0.74505805969E-08  0.10566000000E+00  0.10566000000E+00 0. -1.
     999900   -1    0    0    0    0 -0.00000000000E+00 -0.00000000000E+00 -0.74505805969E-08  0.93827000000E+00  0.93827000000E+00 0.  1.
     999902    2    1    2    0    0  0.66247545023E-02  0.14782023448E-01  0.16969466650E-01  0.10204702816E+01  0.10202005868E+01 0.  0.
     999903    2    3    3    0    0  0.31363292565E-01  0.11764122810E+00  0.50238474206E-01  0.13350983258E+00  0.21859927607E-01 0.  0.
         14    1    1    2    0    0 -0.66247545023E-02 -0.14782023448E-01 -0.16969466650E-01  0.23459718409E-01  0.00000000000E+00 0.  1.
     999901    1    3    3    0    0 -0.24738538063E-01 -0.10285920465E+00 -0.33269007556E-01  0.88696044901E+00  0.88000000000E+00 0.  1.
        -11    1    4    4    0    0  0.28757878827E-02  0.51121454023E-01  0.23810531765E-01  0.56470131586E-01  0.51100000000E-03 0. -1.
         11    1    4    4    0    0  0.28487504683E-01  0.66519774078E-01  0.26427942441E-01  0.77039700993E-01  0.51100000000E-03 0.  1.
</event>
<event>
 8    1  0.1051655E+005  0.1043930E+01  0.7957747E-01            NaN
         13   -1    0    0    0    0  0.00000000000E+00  0.00000000000E+00  0.74505805969E-08  0.10566000000E+00  0.10566000000E+00 0.  1.
     999900   -1    0    0    0    0 -0.00000000000E+00 -0.00000000000E+00 -0.74505805969E-08  0.93827000000E+00  0.93827000000E+00 0.  1.
     999902    2    1    2    0    0 -0.21989984975E-01 -0.59475556584E-02 -0.61083098452E-02  0.10203451679E+01  0.10200725549E+01 0.  0.
     999903    2    3    3    0    0 -0.69484468052E-01 -0.10784321284E+00 -0.28304130883E-01  0.13291567470E+00  0.20179269044E-01 0.  0.
         14    1    1    2    0    0  0.21989984975E-01  0.59475556584E-02  0.61083098452E-02  0.23584832132E-01  0.00000000000E+00 0. -1.
     999901    1    3    3    0    0  0.47494483077E-01  0.10189565718E+00  0.22195821038E-01  0.88742949317E+00  0.88000000000E+00 0.  1.
        -11    1    4    4    0    0 -0.35871555497E-01 -0.61692188628E-01 -0.59976545864E-02  0.71616531702E-01  0.51100000000E-03 0. -1.
         11    1    4    4    0    0 -0.33612912555E-01 -0.46151024214E-01 -0.22306476296E-01  0.61299142997E-01  0.51100000000E-03 0.  1.
</event>
<event>
 8    1  0.1051655E+005  0.1043930E+01  0.7957747E-01            NaN
         13   -1    0    0    0    0  0.00000000000E+00  0.00000000000E+00  0.74505805969E-08  0.10566000000E+00  0.10566000000E+00 0.  1.
     999900   -1    0    0    0    0 -0.00000000000E+00 -0.00000000000E+00 -0.74505805969E-08  0.93827000000E+00  0.93827000000E+00 0. -1.
     999902    2    1    2    0    0  0.66636955524E-02 -0.16664082566E-01  0.13381500500E-01  0.10215433736E+01  0.10212980481E+01 0.  0.
     999903    2    3    3    0    0  0.77438726863E-01 -0.96572569020E-02 -0.10325837466E+00  0.13100249236E+00  0.20232203025E-01 0.  0.
         14    1    1    2    0    0 -0.66636955524E-02  0.16664082566E-01 -0.13381500500E-01  0.22386626406E-01  0.00000000000E+00 0. -1.
     999901    1    3    3    0    0 -0.70775031311E-01 -0.70068256643E-02  0.11663987516E+00  0.89054088123E+00  0.88000000000E+00 0.  1.
        -11    1    4    4    0    0  0.31947351652E-01 -0.12487351495E-01 -0.53189765961E-01  0.63292808035E-01  0.51100000000E-03 0.  1.
         11    1    4    4    0    0  0.45491375211E-01  0.28300945932E-02 -0.50068608700E-01  0.67709684330E-01  0.51100000000E-03 0. -1.
</event>
<event>
 8    1  0.1145980E+005  0.1043930E+01  0.7957747E-01            NaN
         13   -1    0    0    0    0  0.00000000000E+00  0.00000000000E+00  0.74505805969E-08  0.10566000000E+00  0.10566000000E+00 0. -1.
     999900   -1    0    0    0    0 -0.00000000000E+00 -0.00000000000E+00 -0.74505805969E-08  0.93827000000E+00  0.93827000000E+00 0. -1.
     999902    2    1    2    0    0  0.11554073191E-01  0.21367202392E-01  0.59471980749E-03  0.10196316948E+01  0.10193421336E+01 0.  0.
     999903    2    3    3    0    0 -0.24548228228E-01 -0.89405323316E-01 -0.85856725284E-01  0.12775290201E+00  0.18801578360E-01 0.  0.
         14    1    1    2    0    0 -0.11554073191E-01 -0.21367202392E-01 -0.59471980749E-03  0.24298305229E-01  0.00000000000E+00 0.  1.
     999901    1    3    3    0    0  0.36102301419E-01  0.11077252571E+00  0.86451445092E-01  0.89187879276E+00  0.88000000000E+00 0.  1.
        -11    1    4    4    0    0 -0.56958939750E-02 -0.34452497304E-01 -0.21321116234E-01  0.40917831041E-01  0.51100000000E-03 0. -1.
         11    1    4    4    0    0 -0.18852334253E-01 -0.54952826013E-01 -0.64535609051E-01  0.86835070968E-01  0.51100000000E-03 0.  1.
</event>
<event>
 8    1  0.1051655E+005  0.1043930E+01  0.7957747E-01            NaN
         13   -1    0    0    0    0  0.00000000000E+00  0.00000000000E+00  0.74505805969E-08  0.10566000000E+00  0.10566000000E+00 0. -1.
     999900   -1    0    0    0    0 -0.00000000000E+00 -0.00000000000E+00 -0.74505805969E-08  0.93827000000E+00  0.93827000000E+00 0. -1.
     999902    2    1    2    0    0 -0.68439433674E-04 -0.18438286669E-01 -0.15308323478E-01  0.10199650283E+01  0.10196834505E+01 0.  0.
     999903    2    3    3    0    0 -0.94764247618E-01 -0.21168697152E-01 -0.87177020416E-01  0.13196735895E+00  0.19676752130E-01 0.  0.
         14    1    1    2    0    0  0.68439433674E-04  0.18438286669E-01  0.15308323478E-01  0.23964971666E-01  0.00000000000E+00 0.  1.
     999901    1    3    3    0    0  0.94695808184E-01  0.27304104834E-02  0.71868696938E-01  0.88799766938E+00  0.88000000000E+00 0. -1.
        -11    1    4    4    0    0 -0.15734114123E-01 -0.11186124511E-01 -0.19435925738E-01  0.27399052157E-01  0.51100000000E-03 0. -1.
         11    1    4    4    0    0 -0.79030133495E-01 -0.99825726415E-02 -0.67741094678E-01  0.10456830679E+00  0.51100000000E-03 0.  1.
</event>
<event>
 8    1  0.1051655E+005  0.1043930E+01  0.7957747E-01            NaN
         13   -1    0    0    0    0  0.00000000000E+00  0.00000000000E+00  0.74505805969E-08  0.10566000000E+00  0.10566000000E+00 0. -1.
     999900   -1    0    0    0    0 -0.00000000000E+00 -0.00000000000E+00 -0.74505805969E-08  0.93827000000E+00  0.93827000000E+00 0.  1.
     999902    2    1    2    0    0  0.13294684432E-01 -0.20710687601E-01  0.47081733097E-02  0.10188731025E+01  0.10185649468E+01 0.  0.
     999903    2    3    3    0    0 -0.35152229904E-01  0.10702181163E+00 -0.54107810806E-01  0.12639228208E+00  0.18921055669E-01 0.  0.
         14    1    1    2    0    0 -0.13294684432E-01  0.20710687601E-01 -0.47081733097E-02  0.25056897473E-01  0.00000000000E+00 0. -1.
     999901    1    3    3    0    0  0.48446914336E-01 -0.12773249924E+00  0.58815984115E-01  0.89248082044E+00  0.88000000000E+00 0.  1.
        -11    1    4    4    0    0 -0.24909153634E-01  0.94367972954E-01 -0.42856975401E-01  0.10659625564E+00  0.51100000000E-03 0.  1.
         11    1    4    4    0    0 -0.10243076271E-01  0.12653838680E-01 -0.11250835404E-01  0.19796026448E-01  0.51100000000E-03 0. -1.
</event>
<event>
 8    1  0.1051655E+005  0.1043930E+01  0.7957747E-01            NaN
         13   -1    0    0    0    0  0.00000000000E+00  0.00000000000E+00  0.74505805969E-08  0.10566000000E+00  0.10566000000E+00 0.  1.
     999900   -1    0    0    0    0 -0.00000000000E+00 -0.00000000000E+00 -0.74505805969E-08  0.93827000000E+00  0.93827000000E+00 0.  1.
     999902    2    1    2    0    0  0.72788872123E-03  0.22742188221E-01 -0.84080298569E-02  0.10196723844E+01  0.10193838039E+01 0.  0.
     999903    2    3    3    0    0  0.81249622871E-01  0.14726019699E-01 -0.99993069812E-01  0.13122664710E+00  0.20086364207E-01 0.  0.
         14    1    1    2    0    0 -0.72788872123E-03 -0.22742188221E-01  0.84080298569E-02  0.24257615570E-01  0.00000000000E+00 0.  1.
     999901    1    3    3    0    0 -0.80521734150E-01  0.80161685221E-02  0.91585039955E-01  0.88844573733E+00  0.88000000000E+00 0. -1.
        -11    1    4    4    0    0  0.32011276460E-02 -0.22599625168E-02 -0.10771019498E-01  0.11473039301E-01  0.51100000000E-03 0. -1.
         11    1    4    4    0    0  0.78048495225E-01  0.16985982215E-01 -0.89222050315E-01  0.11975360780E+00  0.51100000000E-03 0.  1.
</event>
<event>
 8    1  0.1051655E+005  0.1043930E+01  0.7957747E-01            NaN
         13   -1    0    0    0    0  0.00000000000E+00  0.00000000000E+00  0.74505805969E-08  0.10566000000E+00  0.10566000000E+00 0.  1.
     999900   -1    0    0    0    0 -0.00000000000E+00 -0.00000000000E+00 -0.74505805969E-08  0.93827000000E+00  0.93827000000E+00 0.  1.
     999902    2    1    2    0    0 -0.20000860984E-02 -0.74154343999E-03  0.22177330956E-01  0.10216503178E+01  0.10214073563E+01 0.  0.
     999903    2    3    3    0    0 -0.10400897281E+00 -0.15254071883E-01  0.80209319429E-01  0.13374033466E+00  0.20059637523E-01 0.  0.
         14    1    1    2    0    0  0.20000860984E-02  0.74154343999E-03 -0.22177330956E-01  0.22279682210E-01  0.00000000000E+00 0. -1.
     999901    1    3    3    0    0  0.10200888672E+00  0.14512528443E-01 -0.58031988473E-01  0.88790998313E+00  0.88000000000E+00 0.  1.
        -11    1    4    4    0    0 -0.41841485889E-01 -0.72968785943E-02  0.20458355313E-01  0.47146153626E-01  0.51100000000E-03 0. -1.
         11    1    4    4    0    0 -0.62167486926E-01 -0.79571932892E-02  0.59750964116E-01  0.86594181037E-01  0.51100000000E-03 0.  1.
</event>
<event>
 8    1  0.1051655E+005  0.1043930E+01  0.7957747E-01            NaN
         13   -1    0    0    0    0  0.00000000000E+00  0.00000000000E+00  0.74505805969E-08  0.10566000000E+00  0.10566000000E+00 0.  1.
     999900   -1    0    0    0    0 -0.00000000000E+00 -0.00000000000E+00 -0.74505805969E-08  0.93827000000E+00  0.93827000000E+00 0. -1.
     999902    2    1    2    0    0 -0.20563747685E-01  0.12830328037E-01 -0.34890710324E-03  0.10196893983E+01  0.10194012273E+01 0.  0.
     999903    2    3    3    0    0  0.53409087066E-01  0.89331141392E-01 -0.75333132584E-01  0.13011253885E+00  0.20533107377E-01 0.  0.
         14    1    1    2    0    0  0.20563747685E-01 -0.12830328037E-01  0.34890710324E-03  0.24240601736E-01  0.00000000000E+00 0. -1.
     999901    1    3    3    0    0 -0.73972834751E-01 -0.76500813355E-01  0.74984225481E-01  0.88957685941E+00  0.88000000000E+00 0.  1.
        -11    1    4    4    0    0  0.31602996949E-01  0.57863309690E-01 -0.35585994417E-01  0.74923535315E-01  0.51100000000E-03 0. -1.
         11    1    4    4    0    0  0.21806090117E-01  0.31467831703E-01 -0.39747138167E-01  0.55189003540E-01  0.51100000000E-03 0.  1.
</event>
<event>
 8    1  0.1051655E+005  0.1043930E+01  0.7957747E-01            NaN
         13   -1    0    0    0    0  0.00000000000E+00  0.00000000000E+00  0.74505805969E-08  0.10566000000E+00  0.10566000000E+00 0. -1.
     999900   -1    0    0    0    0 -0.00000000000E+00 -0.00000000000E+00 -0.74505805969E-08  0.93827000000E+00  0.93827000000E+00 0. -1.
     999902    2    1    2    0    0 -0.31669776910E-02 -0.38430943915E-02 -0.21443803601E-01  0.10219155539E+01  0.10216784052E+01 0.  0.
     999903    2    3    3    0    0  0.47929726002E-01 -0.10747284743E+00  0.54515958282E-01  0.13111822331E+00  0.19295782103E-01 0.  0.
         14    1    1    2    0    0  0.31669776910E-02  0.38430943915E-02  0.21443803601E-01  0.22014446054E-01  0.00000000000E+00 0. -1.
     999901    1    3    3    0    0 -0.51096703693E-01  0.10362975304E+00 -0.75959761883E-01  0.89079733064E+00  0.88000000000E+00 0. -1.
        -11    1    4    4    0    0  0.26434126282E-01 -0.51511132432E-01  0.16789703666E-01  0.60285280682E-01  0.51100000000E-03 0.  1.
         11    1    4    4    0    0  0.21495599720E-01 -0.55961714998E-01  0.37726254616E-01  0.70832942627E-01  0.51100000000E-03 0. -1.
</event>
<event>
 8    1  0.1051655E+005  0.1043930E+01  0.7957747E-01            NaN
         13   -1    0    0    0    0  0.00000000000E+00  0.00000000000E+00  0.74505805969E-08  0.10566000000E+00  0.10566000000E+00 0.  1.
     999900   -1    0    0    0    0 -0.00000000000E+00 -0.00000000000E+00 -0.74505805969E-08  0.93827000000E+00  0.93827000000E+00 0. -1.
     999902    2    1    2    0    0 -0.72457876284E-02 -0.15565823613E-01 -0.15325603557E-01  0.10209154301E+01  0.10206559876E+01 0.  0.
     999903    2    3    3    0    0 -0.24397957119E-01 -0.16058073063E-02 -0.12951174007E+00  0.13326259665E+00  0.19692382262E-01 0.  0.
         14    1    1    2    0    0  0.72457876284E-02  0.15565823613E-01  0.15325603557E-01  0.23014569896E-01  0.00000000000E+00 0.  1.
     999901    1    3    3    0    0  0.17152169491E-01 -0.13960016306E-01  0.11418613652E+00  0.88765283346E+00  0.88000000000E+00 0.  1.
        -11    1    4    4    0    0 -0.11418738296E-01  0.27850908859E-02 -0.10036124972E+00  0.10104843334E+00  0.51100000000E-03 0.  1.
         11    1    4    4    0    0 -0.12979218824E-01 -0.43908981922E-02 -0.29150490358E-01  0.32214163303E-01  0.51100000000E-03 0. -1.
</event>
<event>
 8    1  0.1051655E+005  0.1043930E+01  0.7957747E-01            NaN
         13   -1    0    0    0    0  0.00000000000E+00  0.00000000000E+00  0.74505805969E-08  0.10566000000E+00  0.10566000000E+00 0.  1.
     999900   -1    0    0    0    0 -0.00000000000E+00 -0.00000000000E+00 -0.74505805969E-08  0.93827000000E+00  0.93827000000E+00 0. -1.
     999902    2    1    2    0    0 -0.60691619902E-02  0.11910655067E-01  0.19074038259E-01  0.10206379978E+01  0.10203721895E+01 0.  0.
     999903    2    3    3    0    0  0.87236926111E-01 -0.22235088356E-01  0.94139437462E-01  0.13187100244E+00  0.20568110441E-01 0.  0.
         14    1    1    2    0    0  0.60691619902E-02 -0.11910655067E-01 -0.19074038259E-01  0.23292002209E-01  0.00000000000E+00 0. -1.
     999901    1    3    3    0    0 -0.93306088101E-01  0.34145743423E-01 -0.75065399202E-01  0.88876699535E+00  0.88000000000E+00 0. -1.
        -11    1    4    4    0    0  0.64218347768E-01 -0.13267384403E-01  0.55016056806E-01  0.85598173499E-01  0.51100000000E-03 0.  1.
         11    1    4    4    0    0  0.23018578343E-01 -0.89677039530E-02  0.39123380656E-01  0.46272828939E-01  0.51100000000E-03 0. -1.
</event>
<event>
 8    1  0.1051655E+005  0.1043930E+01  0.7957747E-01            NaN
         13   -1    0    0    0    0  0.00000000000E+00  0.00000000000E+00  0.74505805969E-08  0.10566000000E+00  0.10566000000E+00 0. -1.
     999900   -1    0    0    0    0 -0.00000000000E+00 -0.00000000000E+00 -0.74505805969E-08  0.93827000000E+00  0.93827000000E+00 0.  1.
     999902    2    1    2    0    0 -0.21384212239E-01 -0.78550609160E-02 -0.58337391853E-02  0.10204136434E+01  0.10201426295E+01 0.  0.
     999903    2    3    3    0    0  0.31640583499E-01  0.53632544918E-01  0.11125824038E+00  0.12895254704E+00  0.19307691143E-01 0.  0.
         14    1    1    2    0    0  0.21384212239E-01  0.78550609160E-02  0.58337391853E-02  0.23516356605E-01  0.00000000000E+00 0. -1.
     999901    1    3    3    0    0 -0.53024795738E-01 -0.61487605834E-01 -0.11709197957E+00  0.89146109635E+00  0.88000000000E+00 0.  1.
        -11    1    4    4    0    0  0.17625553337E-01  0.15236623068E-01  0.51774926275E-01  0.56777803099E-01  0.51100000000E-03 0.  1.
         11    1    4    4    0    0  0.14015030162E-01  0.38395921850E-01  0.59483314105E-01  0.72174743942E-01  0.51100000000E-03 0. -1.
</event>
<event>
 8    1  0.1051655E+005  0.1043930E+01  0.7957747E-01            NaN
         13   -1    0    0    0    0  0.00000000000E+00  0.00000000000E+00  0.74505805969E-08  0.10566000000E+00  0.10566000000E+00 0. -1.
     999900   -1    0    0    0    0 -0.00000000000E+00 -0.00000000000E+00 -0.74505805969E-08  0.93827000000E+00  0.93827000000E+00 0.  1.
     999902    2    1    2    0    0 -0.85953366814E-02  0.41296854387E-02  0.66897266357E-02  0.10322815427E+01  0.10322158189E+01 0.  0.
     999903    2    3    3    0    0 -0.58763216906E-02  0.91154226749E-01  0.10732164295E+00  0.14227735935E+00  0.19526590317E-01 0.  0.
         14    1    1    2    0    0  0.85953366814E-02 -0.41296854387E-02 -0.66897266357E-02  0.11648457278E-01  0.00000000000E+00 0.  1.
     999901    1    3    3    0    0 -0.27190149908E-02 -0.87024541310E-01 -0.10063191631E+00  0.89000418337E+00  0.88000000000E+00 0. -1.
        -11    1    4    4    0    0 -0.65136616682E-02  0.27204678759E-01  0.21701435957E-01  0.35408131528E-01  0.51100000000E-03 0.  1.
         11    1    4    4    0    0  0.63733997766E-03  0.63949547989E-01  0.85620206989E-01  0.10686922783E+00  0.51100000000E-03 0. -1.
</event>
<event>
 8    1  0.1051655E+005  0.1043930E+01  0.7957747E-01            NaN
         13   -1    0    0    0    0  0.00000000000E+00  0.00000000000E+00  0.74505805969E-08  0.10566000000E+00  0.10566000000E+00 0. -1.
     999900   -1    0    0    0    0 -0.00000000000E+00 -0.00000000000E+00 -0.74505805969E-08  0.93827000000E+00  0.93827000000E+00 0.  1.
     999902    2    1    2    0    0 -0.19946923077E-01  0.12372431750E-01  0.55551277830E-02  0.10198091324E+01  0.10195238351E+01 0.  0.
     999903    2    3    3    0    0  0.11311252009E+00 -0.43124522598E-01 -0.33420604269E-01  0.12722645556E+00  0.20383021253E-01 0.  0.
         14    1    1    2    0    0  0.19946923077E-01 -0.12372431750E-01 -0.55551277830E-02  0.24120867570E-01  0.00000000000E+00 0.  1.
     999901    1    3    3    0    0 -0.13305944316E+00  0.55496954348E-01  0.38975732052E-01  0.89258267687E+00  0.88000000000E+00 0.  1.
        -11    1    4    4    0    0  0.44719679529E-01 -0.25134029060E-01 -0.20949505368E-01  0.55414005902E-01  0.51100000000E-03 0. -1.
         11    1    4    4    0    0  0.68392840557E-01 -0.17990493538E-01 -0.12471098901E-01  0.71812449659E-01  0.51100000000E-03 0.  1.
</event>
<event>
 8    1  0.1051655E+005  0.1043930E+01  0.7957747E-01            NaN
         13   -1    0    0    0    0  0.00000000000E+00  0.00000000000E+00  0.74505805969E-08  0.10566000000E+00  0.10566000000E+00 0. -1.
     999900   -1    0    0    0    0 -0.00000000000E+00 -0.00000000000E+00 -0.74505805969E-08  0.93827000000E+00  0.93827000000E+00 0.  1.
     999902    2    1    2    0    0 -0.18105488017E-01 -0.14902875242E-01  0.36992543108E-03  0.10204770422E+01  0.10202075045E+01 0.  0.
     999903    2    3    3    0    0 -0.50029500752E-01 -0.10449550003E+00 -0.62660241636E-01  0.13311083649E+00  0.19233523780E-01 0.  0.
         14    1    1    2    0    0  0.18105488017E-01  0.14902875242E-01 -0.36992543108E-03  0.23452957844E-01  0.00000000000E+00 0. -1.
     999901    1    3    3    0    0  0.31924012734E-01  0.89592624784E-01  0.63030167067E-01  0.88736620567E+00  0.88000000000E+00 0. -1.
        -11    1    4    4    0    0 -0.10794875893E-01 -0.26396996528E-01 -0.66047598672E-02  0.29278229884E-01  0.51100000000E-03 0. -1.
         11    1    4    4    0    0 -0.39234624858E-01 -0.78098503498E-01 -0.56055481769E-01  0.10383260660E+00  0.51100000000E-03 0.  1.
</event>
<event>
 8    1  0.1051655E+005  0.1043930E+01  0.7957747E-01            NaN
         13   -1    0    0    0    0  0.00000000000E+00  0.00000000000E+00  0.74505805969E-08  0.10566000000E+00  0.10566000000E+00 0. -1.
     999900   -1    0    0    0    0 -0.00000000000E+00 -0.00000000000E+00 -0.74505805969E-08  0.93827000000E+00  0.93827000000E+00 0.  1.
     999902    2    1    2    0    0 -0.54191524853E-02 -0.22349354277E-01 -0.45075828073E-02  0.10204954283E+01  0.10202263180E+01 0.  0.
     999903    2    3    3    0    0  0.10673616342E-01 -0.12659129512E+00  0.37649206892E-01  0.13319471578E+00  0.13567882908E-01 0.  0.
         14    1    1    2    0    0  0.54191524853E-02  0.22349354277E-01  0.45075828073E-02  0.23434571748E-01  0.00000000000E+00 0. -1.
     999901    1    3    3    0    0 -0.16092768827E-01  0.10424194084E+00 -0.42156789699E-01  0.88730071247E+00  0.88000000000E+00 0.  1.
        -11    1    4    4    0    0  0.11290645107E-01 -0.89922972204E-01  0.31838254056E-01  0.96060164164E-01  0.51100000000E-03 0.  1.
         11    1    4    4    0    0 -0.61702876515E-03 -0.36668322913E-01  0.58109528354E-02  0.37134551615E-01  0.51100000000E-03 0. -1.
</event>
<event>
 8    1  0.1051655E+005  0.1043930E+01  0.7957747E-01            NaN
         13   -1    0    0    0    0  0.00000000000E+00  0.00000000000E+00  0.74505805969E-08  0.10566000000E+00  0.10566000000E+00 0.  1.
     999900   -1    0    0    0    0 -0.00000000000E+00 -0.00000000000E+00 -0.74505805969E-08  0.93827000000E+00  0.93827000000E+00 0.  1.
     999902    2    1    2    0    0 -0.48511230136E-02 -0.12792603830E-02  0.22994196908E-01  0.10203948562E+01  0.10201234041E+01 0.  0.
     999903    2    3    3    0    0 -0.50373444865E-01  0.10888889420E+00 -0.44591971922E-01  0.12978989649E+00  0.21510417075E-01 0.  0.
         14    1    1    2    0    0  0.48511230136E-02  0.12792603830E-02 -0.22994196908E-01  0.23535143787E-01  0.00000000000E+00 0. -1.
     999901    1    3    3    0    0  0.45522321851E-01 -0.11016815458E+00  0.67586168829E-01  0.89060495973E+00  0.88000000000E+00 0.  1.
        -11    1    4    4    0    0 -0.34662024385E-01  0.84485070526E-01 -0.24707354605E-01  0.94603898275E-01  0.51100000000E-03 0. -1.
         11    1    4    4    0    0 -0.15711420480E-01  0.24403823675E-01 -0.19884617316E-01  0.35185998213E-01  0.51100000000E-03 0.  1.
</event>
<event>
 8    1  0.1051655E+005  0.1043930E+01  0.7957747E-01            NaN
         13   -1    0    0    0    0  0.00000000000E+00  0.00000000000E+00  0.74505805969E-08  0.10566000000E+00  0.10566000000E+00 0.  1.
     999900   -1    0    0    0    0 -0.00000000000E+00 -0.00000000000E+00 -0.74505805969E-08  0.93827000000E+00  0.93827000000E+00 0.  1.
     999902    2    1    2    0    0 -0.11884068301E-02  0.12431956630E-02  0.23443641746E-01  0.10204233587E+01  0.10201525713E+01 0.  0.
     999903    2    3    3    0    0 -0.30001770291E-01 -0.37561946836E-01  0.12305847319E+00  0.13348527539E+00  0.19076814516E-01 0.  0.
         14    1    1    2    0    0  0.11884068301E-02 -0.12431956630E-02 -0.23443641746E-01  0.23506641286E-01  0.00000000000E+00 0. -1.
     999901    1    3    3    0    0  0.28813363460E-01  0.38805142499E-01 -0.99614831447E-01  0.88693808332E+00  0.88000000000E+00 0.  1.
        -11    1    4    4    0    0 -0.13583342189E-01 -0.37350611728E-02  0.31976687532E-01  0.34946066066E-01  0.51100000000E-03 0. -1.
         11    1    4    4    0    0 -0.16418428102E-01 -0.33826885663E-01  0.91081785661E-01  0.98539209329E-01  0.51100000000E-03 0.  1.
</event>
<event>
 8    1  0.1051655E+005  0.1043930E+01  0.7957747E-01            NaN
         13   -1    0    0    0    0  0.00000000000E+00  0.00000000000E+00  0.74505805969E-08  0.10566000000E+00  0.10566000000E+00 0.  1.
     999900   -1    0    0    0    0 -0.00000000000E+00 -0.00000000000E+00 -0.74505805969E-08  0.93827000000E+00  0.93827000000E+00 0.  1.
     999902    2    1    2    0    0  0.83806873673E-02  0.17213909221E-01  0.16701157326E-01  0.10185236377E+01  0.10182067164E+01 0.  0.
     999903    2    3    3    0    0  0.45627385421E-01  0.11232256683E+00  0.46875861402E-01  0.13210190618E+00  0.23565863336E-01 0.  0.
         14    1    1    2    0    0 -0.83806873673E-02 -0.17213909221E-01 -0.16701157326E-01  0.25406362342E-01  0.00000000000E+00 0. -1.
     999901    1    3    3    0    0 -0.37246698053E-01 -0.95108657610E-01 -0.30174704076E-01  0.88642173148E+00  0.88000000000E+00 0.  1.
        -11    1    4    4    0    0  0.72746526106E-02  0.45289480013E-01  0.12359319699E-01  0.47508646317E-01  0.51100000000E-03 0.  1.
         11    1    4    4    0    0  0.38352732810E-01  0.67033086818E-01  0.34516541703E-01  0.84593259864E-01  0.51100000000E-03 0. -1.
</event>
<event>
 8    1  0.1051655E+005  0.1043930E+01  0.7957747E-01            NaN
         13   -1    0    0    0    0  0.00000000000E+00  0.00000000000E+00  0.74505805969E-08  0.10566000000E+00  0.10566000000E+00 0. -1.
     999900   -1    0    0    0    0 -0.00000000000E+00 -0.00000000000E+00 -0.74505805969E-08  0.93827000000E+00  0.93827000000E+00 0. -1.
     999902    2    1    2    0    0 -0.16435522773E-01 -0.32407992318E-02  0.14061654145E-01  0.10220585733E+01  0.10218245289E+01 0.  0.
     999903    2    3    3    0    0  0.11315563140E-01 -0.83723590332E-01 -0.97941515878E-01  0.13088389204E+00  0.20009275729E-01 0.  0.
         14    1    1    2    0    0  0.16435522773E-01  0.32407992318E-02 -0.14061654145E-01  0.21871426698E-01  0.00000000000E+00 0.  1.
     999901    1    3    3    0    0 -0.27751085913E-01  0.80482791100E-01  0.11200317002E+00  0.89117468126E+00  0.88000000000E+00 0. -1.
        -11    1    4    4    0    0  0.95016281977E-02 -0.26124856804E-01 -0.43365044404E-01  0.51512884588E-01  0.51100000000E-03 0.  1.
         11    1    4    4    0    0  0.18139349421E-02 -0.57598733528E-01 -0.54576471474E-01  0.79371007449E-01  0.51100000000E-03 0. -1.
</event>
<event>
 8    1  0.1051655E+005  0.1043930E+01  0.7957747E-01            NaN
         13   -1    0    0    0    0  0.00000000000E+00  0.00000000000E+00  0.74505805969E-08  0.10566000000E+00  0.10566000000E+00 0. -1.
     999900   -1    0    0    0    0 -0.00000000000E+00 -0.00000000000E+00 -0.74505805969E-08  0.93827000000E+00  0.93827000000E+00 0. -1.
     999902    2    1    2    0    0 -0.11504842952E-01 -0.18946459966E-01 -0.46444723067E-02  0.10212826849E+01  0.10210315478E+01 0.  0.
     999903    2    3    3    0    0  0.50859490382E-01  0.10284425375E+00 -0.55920647054E-01  0.12923362008E+00  0.20262810789E-01 0.  0.
         14    1    1    2    0    0  0.11504842952E-01  0.18946459966E-01  0.46444723067E-02  0.22647315064E-01  0.00000000000E+00 0. -1.
     999901    1    3    3    0    0 -0.62364333334E-01 -0.12179071371E+00  0.51276174747E-01  0.89204906486E+00  0.88000000000E+00 0.  1.
        -11    1    4    4    0    0  0.23839371880E-01  0.34439207313E-01 -0.28840478648E-01  0.50856749617E-01  0.51100000000E-03 0. -1.
         11    1    4    4    0    0  0.27020118503E-01  0.68405046432E-01 -0.27080168406E-01  0.78376870461E-01  0.51100000000E-03 0.  1.
</event>
<event>
 8    1  0.1051655E+005  0.1043930E+01  0.7957747E-01            NaN
         13   -1    0    0    0    0  0.00000000000E+00  0.00000000000E+00  0.74505805969E-08  0.10566000000E+00  0.10566000000E+00 0. -1.
     999900   -1    0    0    0    0 -0.00000000000E+00 -0.00000000000E+00 -0.74505805969E-08  0.93827000000E+00  0.93827000000E+00 0. -1.
     999902    2    1    2    0    0  0.10306897888E-01  0.15792978391E-01 -0.16016767179E-01  0.10191875842E+01  0.10188872090E+01 0.  0.
     999903    2    3    3    0    0 -0.18318409445E-01  0.12732471298E+00  0.15602724401E-01  0.13112309986E+00  0.20066779679E-01 0.  0.
         14    1    1    2    0    0 -0.10306897888E-01 -0.15792978391E-01  0.16016767179E-01  0.24742415837E-01  0.00000000000E+00 0. -1.
     999901    1    3    3    0    0  0.28625307334E-01 -0.11153173459E+00 -0.31619491581E-01  0.88806448431E+00  0.88000000000E+00 0. -1.
        -11    1    4    4    0    0 -0.44585700922E-02  0.51561687851E-01  0.15753185083E-01  0.54100928482E-01  0.51100000000E-03 0.  1.
         11    1    4    4    0    0 -0.13859839353E-01  0.75763025130E-01 -0.15046068164E-03  0.77022171374E-01  0.51100000000E-03 0. -1.
</event>
<event>
 8    1  0.1051655E+005  0.1043930E+01  0.7957747E-01            NaN
         13   -1    0    0    0    0  0.00000000000E+00  0.00000000000E+00  0.74505805969E-08  0.10566000000E+00  0.10566000000E+00 0.  1.
     999900   -1    0    0    0    0 -0.00000000000E+00 -0.00000000000E+00 -0.74505805969E-08  0.93827000000E+00  0.93827000000E+00 0. -1.
     999902    2    1    2    0    0 -0.16754136491E-01  0.11378721347E-01 -0.11349199021E-01  0.10207140420E+01  0.10204499864E+01 0.  0.
     999903    2    3    3    0    0  0.24127582723E-01 -0.12520836850E+00  0.58946759835E-02  0.12907246638E+00  0.19122724230E-01 0.  0.
         14    1    1    2    0    0  0.16754136491E-01 -0.11378721347E-01  0.11349199021E-01  0.23215958035E-01  0.00000000000E+00 0.  1.
     999901    1    3    3    0    0 -0.40881719214E-01  0.13658708985E+00 -0.17243875004E-01  0.89164157558E+00  0.88000000000E+00 0. -1.
        -11    1    4    4    0    0  0.15173016040E-01 -0.52964820149E-01  0.10656320594E-01  0.56118721286E-01  0.51100000000E-03 0. -1.
         11    1    4    4    0    0  0.89545666826E-02 -0.72243548355E-01 -0.47616446108E-02  0.72953745098E-01  0.51100000000E-03 0.  1.
</event>
<event>
 8    1  0.1051655E+005  0.1043930E+01  0.7957747E-01            NaN
         13   -1    0    0    0    0  0.00000000000E+00  0.00000000000E+00  0.74505805969E-08  0.10566000000E+00  0.10566000000E+00 0.  1.
     999900   -1    0    0    0    0 -0.00000000000E+00 -0.00000000000E+00 -0.74505805969E-08  0.93827000000E+00  0.93827000000E+00 0. -1.
     999902    2    1    2    0    0 -0.34592387304E-02  0.12975980255E-01  0.16514729235E-01  0.10226443551E+01  0.10224228080E+01 0.  0.
     999903    2    3    3    0    0  0.61871685992E-01 -0.11278928026E+00  0.17021943694E-01  0.13130531315E+00  0.20045234499E-01 0.  0.
         14    1    1    2    0    0  0.34592387304E-02 -0.12975980255E-01 -0.16514729235E-01  0.21285644878E-01  0.00000000000E+00 0. -1.
     999901    1    3    3    0    0 -0.65330924722E-01  0.12576526051E+00 -0.50721445928E-03  0.89133904197E+00  0.88000000000E+00 0.  1.
        -11    1    4    4    0    0  0.23939937750E-01 -0.59679492925E-01  0.20153501288E-02  0.64335722988E-01  0.51100000000E-03 0.  1.
         11    1    4    4    0    0  0.37931748241E-01 -0.53109787332E-01  0.15006593565E-01  0.66969590163E-01  0.51100000000E-03 0. -1.
</event>
<event>
 8    1  0.1051655E+005  0.1043930E+01  0.7957747E-01            NaN
         13   -1    0    0    0    0  0.00000000000E+00  0.00000000000E+00  0.74505805969E-08  0.10566000000E+00  0.10566000000E+00 0.  1.
     999900   -1    0    0    0    0 -0.00000000000E+00 -0.00000000000E+00 -0.74505805969E-08  0.93827000000E+00  0.93827000000E+00 0. -1.
     999902    2    1    2    0    0 -0.78947927212E-02  0.21420850064E-01 -0.52835231835E-02  0.10204971985E+01  0.10202281294E+01 0.  0.
     999903    2    3    3    0    0 -0.68217016062E-01  0.11225752775E+00 -0.23526427515E-01  0.13357957198E+00  0.58902837025E-02 0.  0.
         14    1    1    2    0    0  0.78947927212E-02 -0.21420850064E-01  0.52835231835E-02  0.23432801514E-01  0.00000000000E+00 0.  1.
     999901    1    3    3    0    0  0.60322223340E-01 -0.90836677689E-01  0.18242904331E-01  0.88691762650E+00  0.88000000000E+00 0.  1.
        -11    1    4    4    0    0 -0.22140448521E-01  0.41252055340E-01 -0.71634828810E-02  0.47365685242E-01  0.51100000000E-03 0. -1.
         11    1    4    4    0    0 -0.46076567541E-01  0.71005472413E-01 -0.16362944634E-01  0.86213886742E-01  0.51100000000E-03 0.  1.
</event>
<event>
 8    1  0.1051655E+005  0.1043930E+01  0.7957747E-01            NaN
         13   -1    0    0    0    0  0.00000000000E+00  0.00000000000E+00  0.74505805969E-08  0.10566000000E+00  0.10566000000E+00 0. -1.
     999900   -1    0    0    0    0 -0.00000000000E+00 -0.00000000000E+00 -0.74505805969E-08  0.93827000000E+00  0.93827000000E+00 0. -1.
     999902    2    1    2    0    0 -0.10870107737E-01  0.61536190249E-02  0.20684252302E-01  0.10197667104E+01  0.10194803966E+01 0.  0.
     999903    2    3    3    0    0  0.11030947224E+00 -0.14277828531E-01  0.64604294395E-01  0.13014268606E+00  0.19783018623E-01 0.  0.
         14    1    1    2    0    0  0.10870107737E-01 -0.61536190249E-02 -0.20684252302E-01  0.24163289565E-01  0.00000000000E+00 0.  1.
     999901    1    3    3    0    0 -0.12117957998E+00  0.20431447556E-01 -0.43920042093E-01  0.88962402438E+00  0.88000000000E+00 0.  1.
        -11    1    4    4    0    0  0.96322067077E-01 -0.14519793916E-01  0.48542356599E-01  0.10883651284E+00  0.51100000000E-03 0.  1.
         11    1    4    4    0    0  0.13987405165E-01  0.24196538445E-03  0.16061937796E-01  0.21306173220E-01  0.51100000000E-03 0. -1.
</event>
<event>
 8    1  0.1051655E+005  0.1043930E+01  0.7957747E-01            NaN
         13   -1    0    0    0    0  0.00000000000E+00  0.00000000000E+00  0.74505805969E-08  0.10566000000E+00  0.10566000000E+00 0.  1.
     999900   -1    0    0    0    0 -0.00000000000E+00 -0.00000000000E+00 -0.74505805969E-08  0.93827000000E+00  0.93827000000E+00 0.  1.
     999902    2    1    2    0    0  0.78989098277E-02  0.82562925423E-02 -0.21246432990E-01  0.10198059444E+01  0.10195205708E+01 0.  0.
     999903    2    3    3    0    0  0.11699504387E+00  0.55658730628E-01 -0.69620093488E-02  0.13168827070E+00  0.22529901951E-01 0.  0.
         14    1    1    2    0    0 -0.78989098277E-02 -0.82562925423E-02  0.21246432990E-01  0.24124055584E-01  0.00000000000E+00 0.  1.
     999901    1    3    3    0    0 -0.10909613404E+00 -0.47402438086E-01 -0.14284423642E-01  0.88811767371E+00  0.88000000000E+00 0. -1.
        -11    1    4    4    0    0  0.92055139298E-01  0.51265647647E-01  0.18979447140E-03  0.10536893490E+00  0.51100000000E-03 0.  1.
         11    1    4    4    0    0  0.24939904572E-01  0.43930829807E-02 -0.71518038202E-02  0.26319335801E-01  0.51100000000E-03 0. -1.
</event>
<event>
 8    1  0.1051655E+005  0.1043930E+01  0.7957747E-01            NaN
         13   -1    0    0    0    0  0.00000000000E+00  0.00000000000E+00  0.74505805969E-08  0.10566000000E+00  0.10566000000E+00 0.  1.
     999900   -1    0    0    0    0 -0.00000000000E+00 -0.00000000000E+00 -0.74505805969E-08  0.93827000000E+00  0.93827000000E+00 0. -1.
     999902    2    1    2    0    0  0.72178962933E-03  0.13171701800E-01  0.19497470630E-01  0.10203892679E+01  0.10201176853E+01 0.  0.
     999903    2    3    3    0    0  0.77415883830E-01 -0.41446903026E-01  0.96643459612E-01  0.13201058752E+00  0.19384841784E-01 0.  0.
         14    1    1    2    0    0 -0.72178962933E-03 -0.13171701800E-01 -0.19497470630E-01  0.23540732137E-01  0.00000000000E+00 0. -1.
     999901    1    3    3    0    0 -0.76694094201E-01  0.54618604826E-01 -0.77145988982E-01  0.88837868035E+00  0.88000000000E+00 0.  1.
        -11    1    4    4    0    0  0.22278458789E-01 -0.22335405169E-01  0.32659534411E-01  0.45410421260E-01  0.51100000000E-03 0. -1.
         11    1    4    4    0    0  0.55137425041E-01 -0.19111497858E-01  0.63983925201E-01  0.86600166257E-01  0.51100000000E-03 0.  1.
</event>
<event>
 8    1  0.1051655E+005  0.1043930E+01  0.7957747E-01            NaN
         13   -1    0    0    0    0  0.00000000000E+00  0.00000000000E+00  0.74505805969E-08  0.10566000000E+00  0.10566000000E+00 0. -1.
     999900   -1    0    0    0    0 -0.00000000000E+00 -0.00000000000E+00 -0.74505805969E-08  0.93827000000E+00  0.93827000000E+00 0. -1.
     999902    2    1    2    0    0 -0.12361311624E-01 -0.20395282646E-02  0.19863163565E-01  0.10204458145E+01  0.10201755503E+01 0.  0.
     999903    2    3    3    0    0 -0.53695915483E-01 -0.36455553845E-01  0.11511395285E+00  0.13367316883E+00  0.20125485821E-01 0.  0.
         14    1    1    2    0    0  0.12361311624E-01  0.20395282646E-02 -0.19863163565E-01  0.23484185475E-01  0.00000000000E+00 0.  1.
     999901    1    3    3    0    0  0.41334603858E-01  0.34416025581E-01 -0.95250789282E-01  0.88677264569E+00  0.88000000000E+00 0.  1.
        -11    1    4    4    0    0 -0.77137876286E-02 -0.60604647588E-02  0.35535207674E-01  0.36867924516E-01  0.51100000000E-03 0. -1.
         11    1    4    4    0    0 -0.45982127854E-01 -0.30395089087E-01  0.79578745173E-01  0.96805244314E-01  0.51100000000E-03 0.  1.
</event>
<event>
 8    1  0.1051655E+005  0.1043930E+01  0.7957747E-01            NaN
         13   -1    0    0    0    0  0.00000000000E+00  0.00000000000E+00  0.74505805969E-08  0.10566000000E+00  0.10566000000E+00 0.  1.
     999900   -1    0    0    0    0 -0.00000000000E+00 -0.00000000000E+00 -0.74505805969E-08  0.93827000000E+00  0.93827000000E+00 0. -1.
     999902    2    1    2    0    0 -0.17109830721E-01  0.12507139549E-01  0.10479307740E-01  0.10202870150E+01  0.10200130403E+01 0.  0.
     999903    2    3    3    0    0 -0.14394161402E-01 -0.12494252223E+00 -0.19676076543E-01  0.12910289737E+00  0.21507774850E-01 0.  0.
         14    1    1    2    0    0  0.17109830721E-01 -0.12507139549E-01 -0.10479307740E-01  0.23642984957E-01  0.00000000000E+00 0.  1.
     999901    1    3    3    0    0 -0.27156693187E-02  0.13744966178E+00  0.30155384282E-01  0.89118411767E+00  0.88000000000E+00 0. -1.
        -11    1    4    4    0    0 -0.18140027593E-01 -0.66213465576E-01 -0.81922286924E-02  0.69142297883E-01  0.51100000000E-03 0.  1.
         11    1    4    4    0    0  0.37458661912E-02 -0.58729056653E-01 -0.11483847850E-01  0.59960599491E-01  0.51100000000E-03 0. -1.
</event>
<event>
 8    1  0.1051655E+005  0.1043930E+01  0.7957747E-01            NaN
         13   -1    0    0    0    0  0.00000000000E+00  0.00000000000E+00  0.74505805969E-08  0.10566000000E+00  0.10566000000E+00 0.  1.
     999900   -1    0    0    0    0 -0.00000000000E+00 -0.00000000000E+00 -0.74505805969E-08  0.93827000000E+00  0.93827000000E+00 0.  1.
     999902    2    1    2    0    0 -0.21289681770E-01 -0.10915939698E-01  0.22527836617E-02  0.10198991173E+01  0.10196159699E+01 0.  0.
     999903    2    3    3    0    0  0.84608290566E-01  0.91769888018E-01  0.16429568065E-01  0.12750921318E+00  0.20208749554E-01 0.  0.
         14    1    1    2    0    0  0.21289681770E-01  0.10915939698E-01 -0.22527836617E-02  0.24030882705E-01  0.00000000000E+00 0. -1.
     999901    1    3    3    0    0 -0.10589797234E+00 -0.10268582772E+00 -0.14176784403E-01  0.89238990412E+00  0.88000000000E+00 0.  1.
        -11    1    4    4    0    0  0.71299060864E-01  0.65216852277E-01  0.10286121857E-01  0.97174375866E-01  0.51100000000E-03 0. -1.
         11    1    4    4    0    0  0.13309229702E-01  0.26553035740E-01  0.61434462081E-02  0.30334837310E-01  0.51100000000E-03 0.  1.
</event>
<event>
 8    1  0.1051655E+005  0.1043930E+01  0.7957747E-01            NaN
         13   -1    0    0    0    0  0.00000000000E+00  0.00000000000E+00  0.74505805969E-08  0.10566000000E+00  0.10566000000E+00 0. -1.
     999900   -1    0    0    0    0 -0.00000000000E+00 -0.00000000000E+00 -0.74505805969E-08  0.93827000000E+00  0.93827000000E+00 0. -1.
     999902    2    1    2    0    0  0.19480714681E-01  0.80585341846E-02  0.67392435185E-02  0.10217973178E+01  0.10215575868E+01 0.  0.
     999903    2    3    3    0    0 -0.45765751188E-01  0.72958371518E-01  0.98415536966E-01  0.13226169010E+00  0.19751171974E-01 0.  0.
         14    1    1    2    0    0 -0.19480714681E-01 -0.80585341846E-02 -0.67392435185E-02  0.22132682189E-01  0.00000000000E+00 0.  1.
     999901    1    3    3    0    0  0.65246465869E-01 -0.64899837333E-01 -0.91676293447E-01  0.88953562772E+00  0.88000000000E+00 0. -1.
        -11    1    4    4    0    0 -0.19610903063E-01  0.17410910183E-01  0.21993520720E-01  0.34230153184E-01  0.51100000000E-03 0.  1.
         11    1    4    4    0    0 -0.26154848125E-01  0.55547461335E-01  0.76422016245E-01  0.98031536912E-01  0.51100000000E-03 0. -1.
</event>
<event>
 8    1  0.1051655E+005  0.1043930E+01  0.7957747E-01            NaN
         13   -1    0    0    0    0  0.00000000000E+00  0.00000000000E+00  0.74505805969E-08  0.10566000000E+00  0.10566000000E+00 0. -1.
     999900   -1    0    0    0    0 -0.00000000000E+00 -0.00000000000E+00 -0.74505805969E-08  0.93827000000E+00  0.93827000000E+00 0.  1.
     999902    2    1    2    0    0  0.26135703191E-02  0.19393543140E-01  0.12376407339E-01  0.10207758271E+01  0.10205131912E+01 0.  0.
     999903    2    3    3    0    0  0.27259939536E-01  0.93851538210E-02 -0.12486183861E+00  0.12974162598E+00  0.20278692115E-01 0.  0.
         14    1    1    2    0    0 -0.26135703191E-02 -0.19393543140E-01 -0.12376407339E-01  0.23154172927E-01  0.00000000000E+00 0.  1.
     999901    1    3    3    0    0 -0.24646369217E-01  0.10008389319E-01  0.13723824595E+00  0.89103420110E+00  0.88000000000E+00 0. -1.
        -11    1    4    4    0    0  0.96592584416E-02  0.12285173322E-01 -0.78952682513E-01  0.80486110319E-01  0.51100000000E-03 0.  1.
         11    1    4    4    0    0  0.17600681095E-01 -0.29000195005E-02 -0.45909156098E-01  0.49255515658E-01  0.51100000000E-03 0. -1.
</event>
<event>
 8    1  0.1051655E+005  0.1043930E+01  0.7957747E-01            NaN
         13   -1    0    0    0    0  0.00000000000E+00  0.00000000000E+00  0.74505805969E-08  0.10566000000E+00  0.10566000000E+00 0. -1.
     999900   -1    0    0    0    0 -0.00000000000E+00 -0.00000000000E+00 -0.74505805969E-08  0.93827000000E+00  0.93827000000E+00 0.  1.
     999902    2    1    2    0    0 -0.22559217384E-02 -0.20985871782E-01  0.12263279283E-01  0.10195192643E+01  0.10192269847E+01 0.  0.
     999903    2    3    3    0    0  0.10748422235E+00  0.40166927477E-01 -0.53335173331E-01  0.12817997928E+00  0.20475015447E-01 0.  0.
         14    1    1    2    0    0  0.22559217384E-02  0.20985871782E-01 -0.12263279283E-01  0.24410735673E-01  0.00000000000E+00 0. -1.
     999901    1    3    3    0    0 -0.10974014409E+00 -0.61152799260E-01  0.65598452614E-01  0.89133928505E+00  0.88000000000E+00 0. -1.
        -11    1    4    4    0    0  0.87320921613E-01  0.29741950947E-01 -0.50862080471E-01  0.10534106202E+00  0.51100000000E-03 0. -1.
         11    1    4    4    0    0  0.20163300734E-01  0.10424976530E-01 -0.24730928596E-02  0.22838917256E-01  0.51100000000E-03 0.  1.
</event>
<event>
 8    1  0.1051655E+005  0.1043930E+01  0.7957747E-01            NaN
         13   -1    0    0    0    0  0.00000000000E+00  0.00000000000E+00  0.74505805969E-08  0.10566000000E+00  0.10566000000E+00 0. -1.
     999900   -1    0    0    0    0 -0.00000000000E+00 -0.00000000000E+00 -0.74505805969E-08  0.93827000000E+00  0.93827000000E+00 0.  1.
     999902    2    1    2    0    0 -0.39536496826E-02 -0.53415445174E-02  0.23356050208E-01  0.10196469087E+01  0.10193577144E+01 0.  0.
     999903    2    3    3    0    0  0.38870511221E-01 -0.62121227008E-01  0.10859796546E+00  0.13267226121E+00  0.20939133371E-01 0.  0.
         14    1    1    2    0    0  0.39536496826E-02  0.53415445174E-02 -0.23356050208E-01  0.24283091339E-01  0.00000000000E+00 0.  1.
     999901    1    3    3    0    0 -0.42824160904E-01  0.56779682491E-01 -0.85241915248E-01  0.88697464745E+00  0.88000000000E+00 0. -1.
        -11    1    4    4    0    0  0.37389733317E-01 -0.42849364079E-01  0.81788638870E-01  0.99617783195E-01  0.51100000000E-03 0. -1.
         11    1    4    4    0    0  0.14807779038E-02 -0.19271862930E-01  0.26809326586E-01  0.33054478017E-01  0.51100000000E-03 0.  1.
</event>
<event>
 8    1  0.1051655E+005  0.1043930E+01  0.7957747E-01            NaN
         13   -1    0    0    0    0  0.00000000000E+00  0.00000000000E+00  0.74505805969E-08  0.10566000000E+00  0.10566000000E+00 0. -1.
     999900   -1    0    0    0    0 -0.00000000000E+00 -0.00000000000E+00 -0.74505805969E-08  0.93827000000E+00  0.93827000000E+00 0.  1.
     999902    2    1    2    0    0 -0.23550957917E-01  0.88402449273E-03  0.14339741839E-02  0.10203188713E+01  0.10200456429E+01 0.  0.
     999903    2    3    3    0    0 -0.11770516277E+00  0.47793568883E-01  0.35628266221E-01  0.13339454008E+00  0.19646867420E-01 0.  0.
         14    1    1    2    0    0  0.23550957917E-01 -0.88402449273E-03 -0.14339741839E-02  0.23611128733E-01  0.00000000000E+00 0. -1.
     999901    1    3    3    0    0  0.94154204854E-01 -0.46909544390E-01 -0.34194292037E-01  0.88692433119E+00  0.88000000000E+00 0.  1.
        -11    1    4    4    0    0 -0.21739435010E-01  0.21246455918E-02  0.10214628771E-01  0.24118808332E-01  0.51100000000E-03 0.  1.
         11    1    4    4    0    0 -0.95965727760E-01  0.45668923291E-01  0.25413637450E-01  0.10927573175E+00  0.51100000000E-03 0. -1.
</event>
<event>
 8    1  0.1051655E+005  0.1043930E+01  0.7957747E-01            NaN
         13   -1    0    0    0    0  0.00000000000E+00  0.00000000000E+00  0.74505805969E-08  0.10566000000E+00  0.10566000000E+00 0. -1.
     999900   -1    0    0    0    0 -0.00000000000E+00 -0.00000000000E+00 -0.74505805969E-08  0.93827000000E+00  0.93827000000E+00 0. -1.
     999902    2    1    2    0    0  0.58389413863E-03  0.11836447881E-01 -0.18356210743E-01  0.10220806773E+01  0.10218471108E+01 0.  0.
     999903    2    3    3    0    0 -0.11653635532E+00 -0.42915634495E-01  0.35563291534E-01  0.13100141251E+00  0.21774953023E-01 0.  0.
         14    1    1    2    0    0 -0.58389413863E-03 -0.11836447881E-01  0.18356210743E-01  0.21849322728E-01  0.00000000000E+00 0.  1.
     999901    1    3    3    0    0  0.11712024946E+00  0.54752082376E-01 -0.53919502278E-01  0.89107926476E+00  0.88000000000E+00 0. -1.
        -11    1    4    4    0    0 -0.71778818001E-01 -0.28346862488E-01  0.32777587416E-01  0.83847329620E-01  0.51100000000E-03 0. -1.
         11    1    4    4    0    0 -0.44757537323E-01 -0.14568772007E-01  0.27857041180E-02  0.47154082892E-01  0.51100000000E-03 0.  1.
</event>
<event>
 8    1  0.1051655E+005  0.1043930E+01  0.7957747E-01            NaN
         13   -1    0    0    0    0  0.00000000000E+00  0.00000000000E+00  0.74505805969E-08  0.10566000000E+00  0.10566000000E+00 0.  1.
     999900   -1    0    0    0    0 -0.00000000000E+00 -0.00000000000E+00 -0.74505805969E-08  0.93827000000E+00  0.93827000000E+00 0.  1.
     999902    2    1    2    0    0 -0.13513967731E-01  0.11315479188E-01  0.16687040472E-01  0.10196581086E+01  0.10193691842E+01 0.  0.
     999903    2    3    3    0    0  0.11503319597E+00  0.65316932743E-02 -0.51361460152E-01  0.12770639670E+00  0.19890323660E-01 0.  0.
         14    1    1    2    0    0  0.13513967731E-01 -0.11315479188E-01 -0.16687040472E-01  0.24271891414E-01  0.00000000000E+00 0. -1.
     999901    1    3    3    0    0 -0.12854716371E+00  0.47837859132E-02  0.68048500624E-01  0.89195171189E+00  0.88000000000E+00 0.  1.
        -11    1    4    4    0    0  0.77084767340E-01  0.13533667958E-01 -0.36390362919E-01  0.86311883067E-01  0.51100000000E-03 0.  1.
         11    1    4    4    0    0  0.37948428635E-01 -0.70019746833E-02 -0.14971097233E-01  0.41394513630E-01  0.51100000000E-03 0. -1.
</event>
<event>
 8    1  0.1051655E+005  0.1043930E+01  0.7957747E-01            NaN
         13   -1    0    0    0    0  0.00000000000E+00  0.00000000000E+00  0.74505805969E-08  0.10566000000E+00  0.10566000000E+00 0.  1.
     999900   -1    0    0    0    0 -0.00000000000E+00 -0.00000000000E+00 -0.74505805969E-08  0.93827000000E+00  0.93827000000E+00 0.  1.
     999902    2    1    2    0    0 -0.20549487805E-01 -0.63387311079E-02  0.84999007488E-02  0.10208062184E+01  0.10205442795E+01 0.  0.
     999903    2    3    3    0    0 -0.11028500169E+00 -0.66287833352E-01 -0.28668971453E-01  0.13343488558E+00  0.20642197525E-01 0.  0.
         14    1    1    2    0    0  0.20549487805E-01  0.63387311079E-02 -0.84999007488E-02  0.23123781564E-01  0.00000000000E+00 0.  1.
     999901    1    3    3    0    0  0.89735513881E-01  0.59949102244E-01  0.37168872202E-01  0.88737133285E+00  0.88000000000E+00 0.  1.
        -11    1    4    4    0    0 -0.45636679191E-01 -0.17528554268E-01 -0.54322572192E-02  0.49190723128E-01  0.51100000000E-03 0.  1.
         11    1    4    4    0    0 -0.64648322494E-01 -0.48759279084E-01 -0.23236714234E-01  0.84244162453E-01  0.51100000000E-03 0. -1.
</event>
<event>
 8    1  0.1051655E+005  0.1043930E+01  0.7957747E-01            NaN
         13   -1    0    0    0    0  0.00000000000E+00  0.00000000000E+00  0.74505805969E-08  0.10566000000E+00  0.10566000000E+00 0.  1.
     999900   -1    0    0    0    0 -0.00000000000E+00 -0.00000000000E+00 -0.74505805969E-08  0.93827000000E+00  0.93827000000E+00 0. -1.
     999902    2    1    2    0    0 -0.44148933431E-02 -0.10650336738E-01  0.20798999390E-01  0.10201493496E+01  0.10198721372E+01 0.  0.
     999903    2    3    3    0    0  0.53397776050E-01 -0.12823348183E-01  0.11909958299E+00  0.13278807515E+00  0.20789456200E-01 0.  0.
         14    1    1    2    0    0  0.44148933431E-02  0.10650336738E-01 -0.20798999390E-01  0.23780650359E-01  0.00000000000E+00 0. -1.
     999901    1    3    3    0    0 -0.57812669393E-01  0.21730114457E-02 -0.98300583600E-01  0.88736127449E+00  0.88000000000E+00 0. -1.
        -11    1    4    4    0    0  0.43892952972E-01 -0.15919184889E-01  0.10894486173E+00  0.11852955660E+00  0.51100000000E-03 0. -1.
         11    1    4    4    0    0  0.95048230778E-02  0.30958367055E-02  0.10154721259E-01  0.14258518559E-01  0.51100000000E-03 0.  1.
</event>
<event>
 8    1  0.1051655E+005  0.1043930E+01  0.7957747E-01            NaN
         13   -1    0    0    0    0  0.00000000000E+00  0.00000000000E+00  0.74505805969E-08  0.10566000000E+00  0.10566000000E+00 0.  1.
     999900   -1    0    0    0    0 -0.00000000000E+00 -0.00000000000E+00 -0.74505805969E-08  0.93827000000E+00  0.93827000000E+00 0.  1.
     999902    2    1    2    0    0  0.19593905682E-01  0.11219958135E-01 -0.77305844405E-02  0.10200643231E+01  0.10197851012E+01 0.  0.
     999903    2    3    3    0    0 -0.46143643239E-01 -0.97140063429E-01  0.66544127205E-01  0.12788718122E+00  0.19015323326E-01 0.  0.
         14    1    1    2    0    0 -0.19593905682E-01 -0.11219958135E-01  0.77305844405E-02  0.23865676948E-01  0.00000000000E+00 0. -1.
     999901    1    3    3    0    0  0.65737548921E-01  0.10836002156E+00 -0.74274711645E-01  0.89217714183E+00  0.88000000000E+00 0. -1.
        -11    1    4    4    0    0 -0.29617829752E-01 -0.59722054547E-01  0.30279656252E-01  0.73219248441E-01  0.51100000000E-03 0.  1.
         11    1    4    4    0    0 -0.16525813487E-01 -0.37418008882E-01  0.36264470953E-01  0.54667932781E-01  0.51100000000E-03 0. -1.
</event>
<event>
 8    1  0.1051655E+005  0.1043930E+01  0.7957747E-01            NaN
         13   -1    0    0    0    0  0.00000000000E+00  0.00000000000E+00  0.74505805969E-08  0.10566000000E+00  0.10566000000E+00 0.  1.
     999900   -1    0    0    0    0 -0.00000000000E+00 -0.00000000000E+00 -0.74505805969E-08  0.93827000000E+00  0.93827000000E+00 0.  1.
     999902    2    1    2    0    0  0.26500194235E-03 -0.12118340958E-01 -0.19977331828E-01  0.10205629677E+01  0.10202954243E+01 0.  0.
     999903    2    3    3    0    0 -0.64460176127E-01 -0.11247411986E+00  0.14383499407E-01  0.13183280739E+00  0.19169301102E-01 0.  0.
         14    1    1    2    0    0 -0.26500194235E-03  0.12118340958E-01  0.19977331828E-01  0.23367032344E-01  0.00000000000E+00 0.  1.
     999901    1    3    3    0    0  0.64725178069E-01  0.10035577891E+00 -0.34360831235E-01  0.88873016026E+00  0.88000000000E+00 0.  1.
        -11    1    4    4    0    0 -0.16604112673E-01 -0.40190821578E-01 -0.23066160158E-02  0.43549745065E-01  0.51100000000E-03 0. -1.
         11    1    4    4    0    0 -0.47856063453E-01 -0.72283298286E-01  0.16690115423E-01  0.88283062329E-01  0.51100000000E-03 0.  1.
</event>
<event>
 8    1  0.1051655E+005  0.1043930E+01  0.7957747E-01            NaN
         13   -1    0    0    0    0  0.00000000000E+00  0.00000000000E+00  0.74505805969E-08  0.10566000000E+00  0.10566000000E+00 0. -1.
     999900   -1    0    0    0    0 -0.00000000000E+00 -0.00000000000E+00 -0.74505805969E-08  0.93827000000E+00  0.93827000000E+00 0. -1.
     999902    2    1    2    0    0  0.14596153759E-01  0.10442976233E-01 -0.14067974862E-01  0.10211262421E+01  0.10208715840E+01 0.  0.
     999903    2    3    3    0    0 -0.97192587067E-01  0.32054728416E-01 -0.79993276608E-01  0.13134540628E+00  0.19462447253E-01 0.  0.
         14    1    1    2    0    0 -0.14596153759E-01 -0.10442976233E-01  0.14067974862E-01  0.22803757889E-01  0.00000000000E+00 0. -1.
     999901    1    3    3    0    0  0.11178874083E+00 -0.21611752183E-01  0.65925301746E-01  0.88978083583E+00  0.88000000000E+00 0.  1.
        -11    1    4    4    0    0 -0.44947267405E-01  0.23385107384E-01 -0.32415599546E-01  0.60151079038E-01  0.51100000000E-03 0. -1.
         11    1    4    4    0    0 -0.52245319661E-01  0.86696210321E-02 -0.47577677062E-01  0.71194327239E-01  0.51100000000E-03 0.  1.
</event>
<event>
 8    1  0.1051655E+005  0.1043930E+01  0.7957747E-01            NaN
         13   -1    0    0    0    0  0.00000000000E+00  0.00000000000E+00  0.74505805969E-08  0.10566000000E+00  0.10566000000E+00 0.  1.
     999900   -1    0    0    0    0 -0.00000000000E+00 -0.00000000000E+00 -0.74505805969E-08  0.93827000000E+00  0.93827000000E+00 0. -1.
     999902    2    1    2    0    0  0.16438401798E-01  0.16286715424E-01  0.53969110588E-02  0.10201685859E+01  0.10198918270E+01 0.  0.
     999903    2    3    3    0    0 -0.73482435723E-01  0.27693158242E-01 -0.10048928854E+00  0.12919846783E+00  0.20677707918E-01 0.  0.
         14    1    1    2    0    0 -0.16438401798E-01 -0.16286715424E-01 -0.53969110588E-02  0.23761414141E-01  0.00000000000E+00 0. -1.
     999901    1    3    3    0    0  0.89920837521E-01 -0.11406442818E-01  0.10588619960E+00  0.89097011803E+00  0.88000000000E+00 0.  1.
        -11    1    4    4    0    0 -0.42852960110E-01  0.91946093494E-02 -0.67773089209E-01  0.80711645834E-01  0.51100000000E-03 0. -1.
         11    1    4    4    0    0 -0.30629475614E-01  0.18498548893E-01 -0.32716199331E-01  0.48486821995E-01  0.51100000000E-03 0.  1.
</event>
<event>
 8    1  0.1051655E+005  0.1043930E+01  0.7957747E-01            NaN
         13   -1    0    0    0    0  0.00000000000E+00  0.00000000000E+00  0.74505805969E-08  0.10566000000E+00  0.10566000000E+00 0.  1.
     999900   -1    0    0    0    0 -0.00000000000E+00 -0.00000000000E+00 -0.74505805969E-08  0.93827000000E+00  0.93827000000E+00 0. -1.
     999902    2    1    2    0    0 -0.10021326127E-01 -0.97374184462E-02  0.18733901867E-01  0.10205590057E+01  0.10202913705E+01 0.  0.
     999903    2    3    3    0    0  0.19419210141E-01 -0.10871982120E+00 -0.66503089947E-01  0.13043002291E+00  0.19804662560E-01 0.  0.
         14    1    1    2    0    0  0.10021326127E-01  0.97374184462E-02 -0.18733901867E-01  0.23370994299E-01  0.00000000000E+00 0.  1.
     999901    1    3    3    0    0 -0.29440536268E-01  0.98982402757E-01  0.85236991814E-01  0.89012898279E+00  0.88000000000E+00 0. -1.
        -11    1    4    4    0    0  0.14138391733E-01 -0.86018428635E-01 -0.42548425810E-01  0.97003576458E-01  0.51100000000E-03 0. -1.
         11    1    4    4    0    0  0.52808184077E-02 -0.22701392568E-01 -0.23954664137E-01  0.33426446453E-01  0.51100000000E-03 0.  1.
</event>
<event>
 8    1  0.1051655E+005  0.1043930E+01  0.7957747E-01            NaN
         13   -1    0    0    0    0  0.00000000000E+00  0.00000000000E+00  0.74505805969E-08  0.10566000000E+00  0.10566000000E+00 0. -1.
     999900   -1    0    0    0    0 -0.00000000000E+00 -0.00000000000E+00 -0.74505805969E-08  0.93827000000E+00  0.93827000000E+00 0.  1.
     999902    2    1    2    0    0 -0.16030624323E-01 -0.75135976127E-02  0.14736201403E-01  0.10208954456E+01  0.10206355472E+01 0.  0.
     999903    2    3    3    0    0 -0.98648364193E-01 -0.26626548492E-01  0.84347252375E-01  0.13408278541E+00  0.20573320521E-01 0.  0.
         14    1    1    2    0    0  0.16030624323E-01  0.75135976127E-02 -0.14736201403E-01  0.23034554414E-01  0.00000000000E+00 0. -1.
     999901    1    3    3    0    0  0.82617739871E-01  0.19112950879E-01 -0.69611050971E-01  0.88681266018E+00  0.88000000000E+00 0.  1.
        -11    1    4    4    0    0 -0.82957850406E-01 -0.15020670287E-01  0.72871758734E-01  0.11143688717E+00  0.51100000000E-03 0.  1.
         11    1    4    4    0    0 -0.15690513788E-01 -0.11605878205E-01  0.11475493641E-01  0.22645898241E-01  0.51100000000E-03 0. -1.
</event>
<event>
 8    1  0.1051655E+005  0.1043930E+01  0.7957747E-01            NaN
         13   -1    0    0    0    0  0.00000000000E+00  0.00000000000E+00  0.74505805969E-08  0.10566000000E+00  0.10566000000E+00 0.  1.
     999900   -1    0    0    0    0 -0.00000000000E+00 -0.00000000000E+00 -0.74505805969E-08  0.93827000000E+00  0.93827000000E+00 0. -1.
     999902    2    1    2    0    0 -0.77156783519E-02 -0.18401157472E-01 -0.13125947844E-01  0.10200464325E+01  0.10197667869E+01 0.  0.
     999903    2    3    3    0    0 -0.10991114683E+00  0.48415168250E-01  0.44509157198E-01  0.12974865060E+00  0.20716142130E-01 0.  0.
         14    1    1    2    0    0  0.77156783519E-02  0.18401157472E-01  0.13125947844E-01  0.23883567479E-01  0.00000000000E+00 0.  1.
     999901    1    3    3    0    0  0.10219546847E+00 -0.66816325722E-01 -0.57635105041E-01  0.89029778192E+00  0.88000000000E+00 0. -1.
        -11    1    4    4    0    0 -0.74662585020E-01  0.28049792804E-01  0.20000797183E-01  0.82228860427E-01  0.51100000000E-03 0. -1.
         11    1    4    4    0    0 -0.35248561807E-01  0.20365375446E-01  0.24508360014E-01  0.47519790173E-01  0.51100000000E-03 0.  1.
</event>
<event>
 8    1  0.1051655E+005  0.1043930E+01  0.7957747E-01            NaN
         13   -1    0    0    0    0  0.00000000000E+00  0.00000000000E+00  0.74505805969E-08  0.10566000000E+00  0.10566000000E+00 0. -1.
     999900   -1    0    0    0    0 -0.00000000000E+00 -0.00000000000E+00 -0.74505805969E-08  0.93827000000E+00  0.93827000000E+00 0. -1.
     999902    2    1    2    0    0  0.12623693466E-01 -0.10472066464E-01  0.17603744568E-01  0.10198693758E+01  0.10195855188E+01 0.  0.
     999903    2    3    3    0    0 -0.91321307260E-01 -0.44561172241E-01  0.77269822040E-01  0.13109118578E+00  0.29816008442E-01 0.  0.
         14    1    1    2    0    0 -0.12623693466E-01  0.10472066464E-01 -0.17603744568E-01  0.24060624172E-01  0.00000000000E+00 0.  1.
     999901    1    3    3    0    0  0.10394500073E+00  0.34089105777E-01 -0.59666077473E-01  0.88877819005E+00  0.88000000000E+00 0. -1.
        -11    1    4    4    0    0 -0.14179954735E-01 -0.11635477006E-01  0.21163225170E-02  0.18471474858E-01  0.51100000000E-03 0.  1.
         11    1    4    4    0    0 -0.77141352524E-01 -0.32925695235E-01  0.75153499523E-01  0.11261971092E+00  0.51100000000E-03 0. -1.
</event>
<event>
 8    1  0.1051655E+005  0.1043930E+01  0.7957747E-01            NaN
         13   -1    0    0    0    0  0.00000000000E+00  0.00000000000E+00  0.74505805969E-08  0.10566000000E+00  0.10566000000E+00 0. -1.
     999900   -1    0    0    0    0 -0.00000000000E+00 -0.00000000000E+00 -0.74505805969E-08  0.93827000000E+00  0.93827000000E+00 0.  1.
     999902    2    1    2    0    0  0.15796770560E-03 -0.83333928754E-02  0.22049006749E-01  0.10203582141E+01  0.10200859062E+01 0.  0.
     999903    2    3    3    0    0  0.10528415726E+00 -0.69081900124E-01 -0.28261429663E-01  0.13059811338E+00  0.20002402822E-01 0.  0.
         14    1    1    2    0    0 -0.15796770560E-03  0.83333928754E-02 -0.22049006749E-01  0.23571785873E-01  0.00000000000E+00 0.  1.
     999901    1    3    3    0    0 -0.10512618955E+00  0.60748507249E-01  0.50310436412E-01  0.88976010074E+00  0.88000000000E+00 0.  1.
        -11    1    4    4    0    0  0.70655167867E-01 -0.42965575450E-01 -0.91543239570E-02  0.83200097285E-01  0.51100000000E-03 0.  1.
         11    1    4    4    0    0  0.34628989391E-01 -0.26116324674E-01 -0.19107105706E-01  0.47398016100E-01  0.51100000000E-03 0. -1.
</event>
<event>
 8    1  0.1051655E+005  0.1043930E+01  0.7957747E-01            NaN
         13   -1    0    0    0    0  0.00000000000E+00  0.00000000000E+00  0.74505805969E-08  0.10566000000E+00  0.10566000000E+00 0.  1.
     999900   -1    0    0    0    0 -0.00000000000E+00 -0.00000000000E+00 -0.74505805969E-08  0.93827000000E+00  0.93827000000E+00 0. -1.
     999902    2    1    2    0    0 -0.76797004851E-02  0.12161146942E-01  0.19196316966E-01  0.10199431311E+01  0.10196610323E+01 0.  0.
     999903    2    3    3    0    0  0.24529507369E-01 -0.12473036895E+00  0.70238186900E-02  0.12869406944E+00  0.18800739641E-01 0.  0.
         14    1    1    2    0    0  0.76797004851E-02 -0.12161146942E-01 -0.19196316966E-01  0.23986868899E-01  0.00000000000E+00 0. -1.
     999901    1    3    3    0    0 -0.32209207854E-01  0.13689151589E+00  0.12172498276E-01  0.89124906166E+00  0.88000000000E+00 0. -1.
        -11    1    4    4    0    0  0.11514333446E-01 -0.21205757373E-01  0.31096287425E-03  0.24137560758E-01  0.51100000000E-03 0. -1.
         11    1    4    4    0    0  0.13015173923E-01 -0.10352461158E+00  0.67128558157E-02  0.10455650868E+00  0.51100000000E-03 0.  1.
</event>
<event>
 8    1  0.1051655E+005  0.1043930E+01  0.7957747E-01            NaN
         13   -1    0    0    0    0  0.00000000000E+00  0.00000000000E+00  0.74505805969E-08  0.10566000000E+00  0.10566000000E+00 0.  1.
     999900   -1    0    0    0    0 -0.00000000000E+00 -0.00000000000E+00 -0.74505805969E-08  0.93827000000E+00  0.93827000000E+00 0.  1.
     999902    2    1    2    0    0  0.17269793012E-01 -0.14976135589E-01 -0.13063870558E-02  0.10210337768E+01  0.10207770258E+01 0.  0.
     999903    2    3    3    0    0 -0.78321144564E-01 -0.43793549413E-01  0.92714204680E-01  0.13041155482E+00  0.18951866008E-01 0.  0.
         14    1    1    2    0    0 -0.17269793012E-01  0.14976135589E-01  0.13063870558E-02  0.22896223160E-01  0.00000000000E+00 0. -1.
     999901    1    3    3    0    0  0.95590937575E-01  0.28817413824E-01 -0.94020591735E-01  0.89062222202E+00  0.88000000000E+00 0.  1.
        -11    1    4    4    0    0 -0.25023440029E-01 -0.19470556657E-01  0.43890237253E-01  0.54146922115E-01  0.51100000000E-03 0.  1.
         11    1    4    4    0    0 -0.53297704535E-01 -0.24322992757E-01  0.48823967426E-01  0.76264632705E-01  0.51100000000E-03 0. -1.
</event>
<event>
 8    1  0.1051655E+005  0.1043930E+01  0.7957747E-01            NaN
         13   -1    0    0    0    0  0.00000000000E+00  0.00000000000E+00  0.74505805969E-08  0.10566000000E+00  0.10566000000E+00 0.  1.
     999900   -1    0    0    0    0 -0.00000000000E+00 -0.00000000000E+00 -0.74505805969E-08  0.93827000000E+00  0.93827000000E+00 0.  1.
     999902    2    1    2    0    0 -0.19854925751E-01  0.93733506534E-02  0.90748523847E-02  0.10201722492E+01  0.10198955766E+01 0.  0.
     999903    2    3    3    0    0  0.15364567096E-01  0.92463882944E-01 -0.87973466864E-01  0.13024931682E+00  0.20974129062E-01 0.  0.
         14    1    1    2    0    0  0.19854925751E-01 -0.93733506534E-02 -0.90748523847E-02  0.23757750838E-01  0.00000000000E+00 0. -1.
     999901    1    3    3    0    0 -0.35219492848E-01 -0.83090532291E-01  0.97048319248E-01  0.88992293234E+00  0.88000000000E+00 0.  1.
        -11    1    4    4    0    0  0.19344085819E-01  0.53825081134E-01 -0.53064562823E-01  0.78022060751E-01  0.51100000000E-03 0.  1.
         11    1    4    4    0    0 -0.39795187223E-02  0.38638801810E-01 -0.34908904040E-01  0.52227256073E-01  0.51100000000E-03 0. -1.
</event>
<event>
 8    1  0.1051655E+005  0.1043930E+01  0.7957747E-01            NaN
         13   -1    0    0    0    0  0.00000000000E+00  0.00000000000E+00  0.74505805969E-08  0.10566000000E+00  0.10566000000E+00 0.  1.
     999900   -1    0    0    0    0 -0.00000000000E+00 -0.00000000000E+00 -0.74505805969E-08  0.93827000000E+00  0.93827000000E+00 0. -1.
     999902    2    1    2    0    0  0.32256222226E-02  0.20368165526E-02 -0.19507723580E-01  0.10240527633E+01  0.10238598329E+01 0.  0.
     999903    2    3    3    0    0  0.31012536142E-01  0.12882609591E+00 -0.11459862358E-01  0.13449534410E+00  0.19993217705E-01 0.  0.
         14    1    1    2    0    0 -0.32256222226E-02 -0.20368165526E-02  0.19507723580E-01  0.19877236721E-01  0.00000000000E+00 0.  1.
     999901    1    3    3    0    0 -0.27786913919E-01 -0.12678927936E+00 -0.80478612218E-02  0.88955741918E+00  0.88000000000E+00 0.  1.
        -11    1    4    4    0    0  0.20310515728E-01  0.11325791278E+00 -0.86723325652E-02  0.11539212421E+00  0.51100000000E-03 0. -1.
         11    1    4    4    0    0  0.10702020414E-01  0.15568183134E-01 -0.27875297927E-02  0.19103219895E-01  0.51100000000E-03 0.  1.
</event>
<event>
 8    1  0.1051655E+005  0.1043930E+01  0.7957747E-01            NaN
         13   -1    0    0    0    0  0.00000000000E+00  0.00000000000E+00  0.74505805969E-08  0.10566000000E+00  0.10566000000E+00 0.  1.
     999900   -1    0    0    0    0 -0.00000000000E+00 -0.00000000000E+00 -0.74505805969E-08  0.93827000000E+00  0.93827000000E+00 0.  1.
     999902    2    1    2    0    0 -0.63036611461E-02 -0.27319820244E-01 -0.33342868861E-02  0.10156948058E+01  0.10153022763E+01 0.  0.
     999903    2    3    3    0    0  0.11801608149E+00  0.28391627397E-01  0.21748132526E-01  0.12485907933E+00  0.19568557055E-01 0.  0.
         14    1    1    2    0    0  0.63036611461E-02  0.27319820244E-01  0.33342868861E-02  0.28235194192E-01  0.00000000000E+00 0.  1.
     999901    1    3    3    0    0 -0.12431974264E+00 -0.55711447641E-01 -0.25082419412E-01  0.89083572648E+00  0.88000000000E+00 0.  1.
        -11    1    4    4    0    0  0.18247712278E-01 -0.95272726099E-03  0.80186869795E-02  0.19961141112E-01  0.51100000000E-03 0.  1.
         11    1    4    4    0    0  0.99768369215E-01  0.29344354658E-01  0.13729445546E-01  0.10489793822E+00  0.51100000000E-03 0. -1.
</event>
<event>
 8    1  0.1051655E+005  0.1043930E+01  0.7957747E-01            NaN
         13   -1    0    0    0    0  0.00000000000E+00  0.00000000000E+00  0.74505805969E-08  0.10566000000E+00  0.10566000000E+00 0.  1.
     999900   -1    0    0    0    0 -0.00000000000E+00 -0.00000000000E+00 -0.74505805969E-08  0.93827000000E+00  0.93827000000E+00 0. -1.
     999902    2    1    2    0    0 -0.19820087736E-01  0.45019526277E-02  0.10326564706E-01  0.10211321625E+01  0.10208776381E+01 0.  0.
     999903    2    3    3    0    0 -0.65603016211E-01  0.11402499292E+00 -0.21284514693E-02  0.13307445025E+00  0.19970584742E-01 0.  0.
         14    1    1    2    0    0  0.19820087736E-01 -0.45019526277E-02 -0.10326564706E-01  0.22797837484E-01  0.00000000000E+00 0. -1.
     999901    1    3    3    0    0  0.45782928475E-01 -0.10952304030E+00  0.12455016176E-01  0.88805771227E+00  0.88000000000E+00 0.  1.
        -11    1    4    4    0    0 -0.29114772697E-01  0.70333213583E-01 -0.19428279174E-02  0.76147663283E-01  0.51100000000E-03 0.  1.
         11    1    4    4    0    0 -0.36488243513E-01  0.43691779342E-01 -0.18562355186E-03  0.56926786962E-01  0.51100000000E-03 0. -1.
</event>
<event>
 8    1  0.1051655E+005  0.1043930E+01  0.7957747E-01            NaN
         13   -1    0    0    0    0  0.00000000000E+00  0.00000000000E+00  0.74505805969E-08  0.10566000000E+00  0.10566000000E+00 0. -1.
     999900   -1    0    0    0    0 -0.00000000000E+00 -0.00000000000E+00 -0.74505805969E-08  0.93827000000E+00  0.93827000000E+00 0.  1.
     999902    2    1    2    0    0  0.75513886921E-02 -0.14184175491E-01 -0.16511556742E-01  0.10208899086E+01  0.10206298838E+01 0.  0.
     999903    2    3    3    0    0  0.20901352527E-01 -0.39741945499E-01 -0.12433930345E+00  0.13383960332E+00  0.20892301567E-01 0.  0.
         14    1    1    2    0    0 -0.75513886921E-02  0.14184175491E-01  0.16511556742E-01  0.23040091397E-01  0.00000000000E+00 0. -1.
     999901    1    3    3    0    0 -0.13349963835E-01  0.25557770008E-01  0.10782774671E+00  0.88705030528E+00  0.88000000000E+00 0. -1.
        -11    1    4    4    0    0  0.24956811529E-01 -0.30788065854E-01 -0.10185759007E+00  0.10929765421E+00  0.51100000000E-03 0. -1.
         11    1    4    4    0    0 -0.40554590017E-02 -0.89538796452E-02 -0.22481713381E-01  0.24541949107E-01  0.51100000000E-03 0.  1.
</event>
<event>
 8    1  0.1051655E+005  0.1043930E+01  0.7957747E-01            NaN
         13   -1    0    0    0    0  0.00000000000E+00  0.00000000000E+00  0.74505805969E-08  0.10566000000E+00  0.10566000000E+00 0.  1.
     999900   -1    0    0    0    0 -0.00000000000E+00 -0.00000000000E+00 -0.74505805969E-08  0.93827000000E+00  0.93827000000E+00 0. -1.
     999902    2    1    2    0    0  0.22639500613E-03  0.48842523759E-02  0.22781399573E-01  0.10206297995E+01  0.10203638019E+01 0.  0.
     999903    2    3    3    0    0  0.12298026699E+00 -0.37662524693E-01 -0.79859981372E-03  0.13077882453E+00  0.23661178073E-01 0.  0.
         14    1    1    2    0    0 -0.22639500613E-03 -0.48842523759E-02 -0.22781399573E-01  0.23300200481E-01  0.00000000000E+00 0. -1.
     999901    1    3    3    0    0 -0.12275387198E+00  0.42546777069E-01  0.23579999387E-01  0.88985097499E+00  0.88000000000E+00 0. -1.
        -11    1    4    4    0    0  0.71943686639E-01 -0.31731092684E-01  0.64099691054E-02  0.78892997883E-01  0.51100000000E-03 0.  1.
         11    1    4    4    0    0  0.51036580350E-01 -0.59314320086E-02 -0.72085689191E-02  0.51885826642E-01  0.51100000000E-03 0. -1.
</event>
<event>
 8    1  0.1051655E+005  0.1043930E+01  0.7957747E-01            NaN
         13   -1    0    0    0    0  0.00000000000E+00  0.00000000000E+00  0.74505805969E-08  0.10566000000E+00  0.10566000000E+00 0. -1.
     999900   -1    0    0    0    0 -0.00000000000E+00 -0.00000000000E+00 -0.74505805969E-08  0.93827000000E+00  0.93827000000E+00 0. -1.
     999902    2    1    2    0    0  0.50008827455E-02 -0.21115298406E-01  0.80664118184E-02  0.10207798023E+01  0.10205172576E+01 0.  0.
     999903    2    3    3    0    0 -0.20167292877E-01 -0.11380122232E+00 -0.62179084549E-01  0.13277161126E+00  0.20115275196E-01 0.  0.
         14    1    1    2    0    0 -0.50008827455E-02  0.21115298406E-01 -0.80664118184E-02  0.23150197723E-01  0.00000000000E+00 0. -1.
     999901    1    3    3    0    0  0.25168175622E-01  0.92685923919E-01  0.70245496367E-01  0.88800819102E+00  0.88000000000E+00 0.  1.
        -11    1    4    4    0    0 -0.22832606477E-01 -0.95690756436E-01 -0.57180778824E-01  0.11378906526E+00  0.51100000000E-03 0. -1.
         11    1    4    4    0    0  0.26653136003E-02 -0.18110465888E-01 -0.49983057252E-02  0.18982545994E-01  0.51100000000E-03 0.  1.
</event>
<event>
 8    1  0.1051655E+005  0.1043930E+01  0.7957747E-01            NaN
         13   -1    0    0    0    0  0.00000000000E+00  0.00000000000E+00  0.74505805969E-08  0.10566000000E+00  0.10566000000E+00 0. -1.
     999900   -1    0    0    0    0 -0.00000000000E+00 -0.00000000000E+00 -0.74505805969E-08  0.93827000000E+00  0.93827000000E+00 0. -1.
     999902    2    1    2    0    0  0.22542885203E-02  0.23429414695E-01  0.25882705716E-02  0.10202505060E+01  0.10199756745E+01 0.  0.
     999903    2    3    3    0    0  0.10109773590E+00 -0.53215152206E-01  0.58218202891E-01  0.12966692990E+00  0.19275604580E-01 0.  0.
         14    1    1    2    0    0 -0.22542885203E-02 -0.23429414695E-01 -0.25882705716E-02  0.23679493961E-01  0.00000000000E+00 0. -1.
     999901    1    3    3    0    0 -0.98843447382E-01  0.76644566901E-01 -0.55629932319E-01  0.89058357614E+00  0.88000000000E+00 0. -1.
        -11    1    4    4    0    0  0.63601598028E-01 -0.42990008075E-01  0.34801540247E-01  0.84289455987E-01  0.51100000000E-03 0. -1.
         11    1    4    4    0    0  0.37496137875E-01 -0.10225144131E-01  0.23416662644E-01  0.45377473909E-01  0.51100000000E-03 0.  1.
</event>
<event>
 8    1  0.1051655E+005  0.1043930E+01  0.7957747E-01            NaN
         13   -1    0    0    0    0  0.00000000000E+00  0.00000000000E+00  0.74505805969E-08  0.10566000000E+00  0.10566000000E+00 0.  1.
     999900   -1    0    0    0    0 -0.00000000000E+00 -0.00000000000E+00 -0.74505805969E-08  0.93827000000E+00  0.93827000000E+00 0.  1.
     999902    2    1    2    0    0 -0.86095111975E-02 -0.22807674909E-01 -0.57374064676E-04  0.10195513821E+01  0.10192598804E+01 0.  0.
     999903    2    3    3    0    0  0.92532509564E-01 -0.89255022004E-01 -0.19105069097E-01  0.13106515658E+00  0.16862601339E-01 0.  0.
         14    1    1    2    0    0  0.86095111975E-02  0.22807674909E-01  0.57374064676E-04  0.24378617877E-01  0.00000000000E+00 0.  1.
     999901    1    3    3    0    0 -0.10114202076E+00  0.66447347095E-01  0.19047695032E-01  0.88848622555E+00  0.88000000000E+00 0. -1.
        -11    1    4    4    0    0  0.16508966364E-01 -0.24971970989E-01 -0.72216456345E-02  0.30798678416E-01  0.51100000000E-03 0.  1.
         11    1    4    4    0    0  0.76023543200E-01 -0.64283051015E-01 -0.11883423462E-01  0.10026647816E+00  0.51100000000E-03 0. -1.
</event>
<event>
 8    1  0.1051655E+005  0.1043930E+01  0.7957747E-01            NaN
         13   -1    0    0    0    0  0.00000000000E+00  0.00000000000E+00  0.74505805969E-08  0.10566000000E+00  0.10566000000E+00 0.  1.
     999900   -1    0    0    0    0 -0.00000000000E+00 -0.00000000000E+00 -0.74505805969E-08  0.93827000000E+00  0.93827000000E+00 0. -1.
     999902    2    1    2    0    0 -0.11069199428E-01 -0.21370420330E-01 -0.24469692842E-02  0.10197388921E+01  0.10194519108E+01 0.  0.
     999903    2    3    3    0    0  0.12287326710E+00 -0.76351841299E-02  0.31757066761E-01  0.12884094224E+00  0.20864834114E-01 0.  0.
         14    1    1    2    0    0  0.11069199428E-01  0.21370420330E-01  0.24469692842E-02  0.24191107865E-01  0.00000000000E+00 0.  1.
     999901    1    3    3    0    0 -0.13394246653E+00 -0.13735236200E-01 -0.34204036045E-01  0.89089794990E+00  0.88000000000E+00 0. -1.
        -11    1    4    4    0    0  0.60412957939E-01 -0.10085249538E-01  0.24268002959E-01  0.65883494396E-01  0.51100000000E-03 0. -1.
         11    1    4    4    0    0  0.62460309160E-01  0.24500654080E-02  0.74890638019E-02  0.62957447840E-01  0.51100000000E-03 0.  1.
</event>
<event>
 8    1  0.1051655E+005  0.1043930E+01  0.7957747E-01            NaN
         13   -1    0    0    0    0  0.00000000000E+00  0.00000000000E+00  0.74505805969E-08  0.10566000000E+00  0.10566000000E+00 0.  1.
     999900   -1    0    0    0    0 -0.00000000000E+00 -0.00000000000E+00 -0.74505805969E-08  0.93827000000E+00  0.93827000000E+00 0. -1.
     999902    2    1    2    0    0 -0.90053557490E-02  0.17276437445E-01  0.10811029385E-01  0.10216488403E+01  0.10214058462E+01 0.  0.
     999903    2    3    3    0    0  0.12394243474E-01  0.92084863640E-01 -0.93168975042E-01  0.13211745532E+00  0.11888006832E-01 0.  0.
         14    1    1    2    0    0  0.90053557490E-02 -0.17276437445E-01 -0.10811029385E-01  0.22281159739E-01  0.00000000000E+00 0. -1.
     999901    1    3    3    0    0 -0.21399599223E-01 -0.74808426195E-01  0.10398000443E+00  0.88953138494E+00  0.88000000000E+00 0.  1.
        -11    1    4    4    0    0  0.37813840330E-02  0.66560616938E-01 -0.64193712292E-01  0.92551112425E-01  0.51100000000E-03 0.  1.
         11    1    4    4    0    0  0.86128594412E-02  0.25524246702E-01 -0.28975262750E-01  0.39566342893E-01  0.51100000000E-03 0. -1.
</event>
<event>
 8    1  0.1051655E+005  0.1043930E+01  0.7957747E-01            NaN
         13   -1    0    0    0    0  0.00000000000E+00  0.00000000000E+00  0.74505805969E-08  0.10566000000E+00  0.10566000000E+00 0.  1.
     999900   -1    0    0    0    0 -0.00000000000E+00 -0.00000000000E+00 -0.74505805969E-08  0.93827000000E+00  0.93827000000E+00 0. -1.
     999902    2    1    2    0    0  0.10297758702E-01 -0.13682455120E-01  0.15477864436E-01  0.10208471557E+01  0.10205861540E+01 0.  0.
     999903    2    3    3    0    0 -0.12777702156E-01 -0.61617393008E-01 -0.11204209781E+00  0.13006571455E+00  0.20091929370E-01 0.  0.
         14    1    1    2    0    0 -0.10297758702E-01  0.13682455120E-01 -0.15477864436E-01  0.23082844277E-01  0.00000000000E+00 0. -1.
     999901    1    3    3    0    0  0.23075460858E-01  0.47934937888E-01  0.12751996225E+00  0.89078144117E+00  0.88000000000E+00 0.  1.
        -11    1    4    4    0    0 -0.15354121377E-01 -0.43130780885E-01 -0.91432683669E-01  0.10225561142E+00  0.51100000000E-03 0.  1.
         11    1    4    4    0    0  0.25764192214E-02 -0.18486612123E-01 -0.20609414145E-01  0.27810103132E-01  0.51100000000E-03 0. -1.
</event>
<event>
 7    1  0.1051655E+005  0.1043930E+01  0.7957747E-01            NaN
         13   -1    0    0    0    0  0.00000000000E+00  0.00000000000E+00  0.74505805969E-08  0.10566000000E+00  0.10566000000E+00 0. -1.
     999900   -1    0    0    0    0 -0.00000000000E+00 -0.00000000000E+00 -0.74505805969E-08  0.93827000000E+00  0.93827000000E+00 0. -1.
     999903    2    1    2    0    0 -0.35445104953E-01  0.95107360394E-01  0.24508448100E-01  0.10621520411E+00  0.19474087643E-01 0.  0.
         14    1    1    2    0    0 -0.41496278784E-01 -0.40804433025E-02 -0.27002940584E-01  0.49676452879E-01  0.00000000000E+00 0.  1.
     999901    1    1    2    0    0  0.76941383736E-01 -0.91026917092E-01  0.24944924838E-02  0.88803834301E+00  0.88000000000E+00 0.  1.
        -11    1    3    3    0    0 -0.10873867404E-01  0.56633754958E-01  0.14842493386E-01  0.59549844029E-01  0.51100000000E-03 0. -1.
         11    1    3    3    0    0 -0.24571237548E-01  0.38473605436E-01  0.96659547139E-02  0.46665360080E-01  0.51100000000E-03 0.  1.
</event>
<event>
 8    1  0.1051655E+005  0.1043930E+01  0.7957747E-01            NaN
         13   -1    0    0    0    0  0.00000000000E+00  0.00000000000E+00  0.74505805969E-08  0.10566000000E+00  0.10566000000E+00 0. -1.
     999900   -1    0    0    0    0 -0.00000000000E+00 -0.00000000000E+00 -0.74505805969E-08  0.93827000000E+00  0.93827000000E+00 0.  1.
     999902    2    1    2    0    0  0.20243938331E-01 -0.95522091918E-02  0.50110640864E-02  0.10209915497E+01  0.10207338400E+01 0.  0.
     999903    2    3    3    0    0 -0.24172919180E-01  0.11399074068E+00  0.53592694763E-01  0.12992707809E+00  0.20752101299E-01 0.  0.
         14    1    1    2    0    0 -0.20243938331E-01  0.95522091918E-02 -0.50110640864E-02  0.22938450315E-01  0.00000000000E+00 0.  1.
     999901    1    3    3    0    0  0.44416857511E-01 -0.12354294987E+00 -0.48581630677E-01  0.89106447159E+00  0.88000000000E+00 0.  1.
        -11    1    4    4    0    0  0.44074079897E-03  0.44057553892E-01  0.23223966205E-01  0.49808393216E-01  0.51100000000E-03 0.  1.
         11    1    4    4    0    0 -0.24613659979E-01  0.69933186784E-01  0.30368728558E-01  0.80118684878E-01  0.51100000000E-03 0. -1.
</event>
<event>
 8    1  0.1051655E+005  0.1043930E+01  0.7957747E-01            NaN
         13   -1    0    0    0    0  0.00000000000E+00  0.00000000000E+00  0.74505805969E-08  0.10566000000E+00  0.10566000000E+00 0. -1.
     999900   -1    0    0    0    0 -0.00000000000E+00 -0.00000000000E+00 -0.74505805969E-08  0.93827000000E+00  0.93827000000E+00 0. -1.
     999902    2    1    2    0    0  0.67643553094E-02  0.14512332863E-01  0.15858876760E-01  0.10213940669E+01  0.10211454214E+01 0.  0.
     999903    2    3    3    0    0 -0.69859927225E-01  0.63267555742E-01 -0.88264247073E-01  0.13061352304E+00  0.19649988500E-01 0.  0.
         14    1    1    2    0    0 -0.67643553094E-02 -0.14512332863E-01 -0.15858876760E-01  0.22535933084E-01  0.00000000000E+00 0.  1.
     999901    1    3    3    0    0  0.76624282534E-01 -0.48755222879E-01  0.10412312383E+00  0.89078054388E+00  0.88000000000E+00 0.  1.
        -11    1    4    4    0    0 -0.54135654371E-02  0.46568840643E-03 -0.98228801245E-02  0.11237154950E-01  0.51100000000E-03 0.  1.
         11    1    4    4    0    0 -0.64446361788E-01  0.62801867336E-01 -0.78441366948E-01  0.11937636809E+00  0.51100000000E-03 0. -1.
</event>
<event>
 8    1  0.1051655E+005  0.1043930E+01  0.7957747E-01            NaN
         13   -1    0    0    0    0  0.00000000000E+00  0.00000000000E+00  0.74505805969E-08  0.10566000000E+00  0.10566000000E+00 0. -1.
     999900   -1    0    0    0    0 -0.00000000000E+00 -0.00000000000E+00 -0.74505805969E-08  0.93827000000E+00  0.93827000000E+00 0. -1.
     999902    2    1    2    0    0 -0.16183748499E-01  0.17601297320E-01 -0.22420319097E-03  0.10200182947E+01  0.10197379820E+01 0.  0.
     999903    2    3    3    0    0 -0.15828377000E-01 -0.11810637744E+00 -0.43945461479E-01  0.12854297385E+00  0.19810063898E-01 0.  0.
         14    1    1    2    0    0  0.16183748499E-01 -0.17601297320E-01  0.22420319097E-03  0.23911705290E-01  0.00000000000E+00 0.  1.
     999901    1    3    3    0    0 -0.35537149856E-03  0.13570767476E+00  0.43721258288E-01  0.89147532086E+00  0.88000000000E+00 0.  1.
        -11    1    4    4    0    0  0.42921925839E-02 -0.36085001907E-01 -0.13190269199E-01  0.38662573664E-01  0.51100000000E-03 0.  1.
         11    1    4    4    0    0 -0.20120569584E-01 -0.82021375530E-01 -0.30755192280E-01  0.89880400185E-01  0.51100000000E-03 0. -1.
</event>
<event>
 8    1  0.1051655E+005  0.1043930E+01  0.7957747E-01            NaN
         13   -1    0    0    0    0  0.00000000000E+00  0.00000000000E+00  0.74505805969E-08  0.10566000000E+00  0.10566000000E+00 0.  1.
     999900   -1    0    0    0    0 -0.00000000000E+00 -0.00000000000E+00 -0.74505805969E-08  0.93827000000E+00  0.93827000000E+00 0.  1.
     999902    2    1    2    0    0 -0.26399511781E-02 -0.22914498552E-01 -0.60561986241E-02  0.10200821253E+01  0.10198033248E+01 0.  0.
     999903    2    3    3    0    0 -0.78051703837E-01  0.60603306000E-01  0.81104376753E-01  0.12864557567E+00  0.14385236880E-01 0.  0.
         14    1    1    2    0    0  0.26399511781E-02  0.22914498552E-01  0.60561986241E-02  0.23847874704E-01  0.00000000000E+00 0.  1.
     999901    1    3    3    0    0  0.75411752659E-01 -0.83517804552E-01 -0.87160575377E-01  0.89143654963E+00  0.88000000000E+00 0.  1.
        -11    1    4    4    0    0 -0.65754408175E-01  0.51525886777E-01  0.61267524565E-01  0.10359792416E+00  0.51100000000E-03 0. -1.
         11    1    4    4    0    0 -0.12297295662E-01  0.90774192229E-02  0.19836852188E-01  0.25047651508E-01  0.51100000000E-03 0.  1.
</event>
<event>
 8    1  0.1051655E+005  0.1043930E+01  0.7957747E-01            NaN
         13   -1    0    0    0    0  0.00000000000E+00  0.00000000000E+00  0.74505805969E-08  0.10566000000E+00  0.10566000000E+00 0.  1.
     999900   -1    0    0    0    0 -0.00000000000E+00 -0.00000000000E+00 -0.74505805969E-08  0.93827000000E+00  0.93827000000E+00 0.  1.
     999902    2    1    2    0    0  0.23027358614E-01  0.12845603582E-02 -0.81279645475E-03  0.10208525223E+01  0.10205916432E+01 0.  0.
     999903    2    3    3    0    0  0.79061752491E-02 -0.10591863346E+00 -0.74870401280E-01  0.13113026012E+00  0.17558576536E-01 0.  0.
         14    1    1    2    0    0 -0.23027358614E-01 -0.12845603582E-02  0.81279645475E-03  0.23077477724E-01  0.00000000000E+00 0.  1.
     999901    1    3    3    0    0  0.15121183364E-01  0.10720319381E+00  0.74057604825E-01  0.88972226216E+00  0.88000000000E+00 0.  1.
        -11    1    4    4    0    0  0.13107784688E-01 -0.78708467073E-01 -0.52461949339E-01  0.95495309088E-01  0.51100000000E-03 0.  1.
         11    1    4    4    0    0 -0.52016094390E-02 -0.27210166383E-01 -0.22408451941E-01  0.35634951028E-01  0.51100000000E-03 0. -1.
</event>
<event>
 8    1  0.1051655E+005  0.1043930E+01  0.7957747E-01            NaN
         13   -1    0    0    0    0  0.00000000000E+00  0.00000000000E+00  0.74505805969E-08  0.10566000000E+00  0.10566000000E+00 0. -1.
     999900   -1    0    0    0    0 -0.00000000000E+00 -0.00000000000E+00 -0.74505805969E-08  0.93827000000E+00  0.93827000000E+00 0.  1.
     999902    2    1    2    0    0 -0.13891842456E-01 -0.18375926039E-01 -0.53895571945E-03  0.10208876820E+01  0.10206276064E+01 0.  0.
     999903    2    3    3    0    0 -0.78680677975E-01  0.10131744279E+00 -0.10538535874E-01  0.13036868315E+00  0.20713751656E-01 0.  0.
         14    1    1    2    0    0  0.13891842456E-01  0.18375926039E-01  0.53895571945E-03  0.23042317980E-01  0.00000000000E+00 0.  1.
     999901    1    3    3    0    0  0.64788835519E-01 -0.11969336883E+00  0.99995801546E-02  0.89051899887E+00  0.88000000000E+00 0. -1.
        -11    1    4    4    0    0 -0.53741042227E-01  0.81793722972E-01 -0.12315694950E-01  0.98642030597E-01  0.51100000000E-03 0. -1.
         11    1    4    4    0    0 -0.24939635748E-01  0.19523719816E-01  0.17771590757E-02  0.31726652551E-01  0.51100000000E-03 0.  1.
</event>
<event>
 8    1  0.1051655E+005  0.1043930E+01  0.7957747E-01            NaN
         13   -1    0    0    0    0  0.00000000000E+00  0.00000000000E+00  0.74505805969E-08  0.10566000000E+00  0.10566000000E+00 0. -1.
     999900   -1    0    0    0    0 -0.00000000000E+00 -0.00000000000E+00 -0.74505805969E-08  0.93827000000E+00  0.93827000000E+00 0.  1.
     999902    2    1    2    0    0  0.21581790598E-01 -0.41675022779E-02  0.97924022534E-02  0.10198668975E+01  0.10195829813E+01 0.  0.
     999903    2    3    3    0    0  0.29805013937E-01  0.12153830709E+00  0.32400762901E-01  0.13060838059E+00  0.18677277538E-01 0.  0.
         14    1    1    2    0    0 -0.21581790598E-01  0.41675022779E-02 -0.97924022534E-02  0.24063102513E-01  0.00000000000E+00 0.  1.
     999901    1    3    3    0    0 -0.82232233388E-02 -0.12570580937E+00 -0.22608360648E-01  0.88925851690E+00  0.88000000000E+00 0. -1.
        -11    1    4    4    0    0  0.11520124036E-01  0.83424824372E-01  0.22952994323E-01  0.87289837030E-01  0.51100000000E-03 0.  1.
         11    1    4    4    0    0  0.18284889901E-01  0.38113482719E-01  0.94477685781E-02  0.43318543555E-01  0.51100000000E-03 0. -1.
</event>
<event>
 8    1  0.1051655E+005  0.1043930E+01  0.7957747E-01            NaN
         13   -1    0    0    0    0  0.00000000000E+00  0.00000000000E+00  0.74505805969E-08  0.10566000000E+00  0.10566000000E+00 0. -1.
     999900   -1    0    0    0    0 -0.00000000000E+00 -0.00000000000E+00 -0.74505805969E-08  0.93827000000E+00  0.93827000000E+00 0.  1.
     999902    2    1    2    0    0 -0.17044588937E-01  0.64573360156E-02  0.13316990542E-01  0.10213566210E+01  0.10211071393E+01 0.  0.
     999903    2    3    3    0    0  0.53826750143E-02  0.40329445411E-01 -0.12197297835E+00  0.13009140931E+00  0.19771949069E-01 0.  0.
         14    1    1    2    0    0  0.17044588937E-01 -0.64573360156E-02 -0.13316990542E-01  0.22573378957E-01  0.00000000000E+00 0.  1.
     999901    1    3    3    0    0 -0.22427263951E-01 -0.33872109395E-01  0.13528996890E+00  0.89126521173E+00  0.88000000000E+00 0. -1.
        -11    1    4    4    0    0 -0.40630530754E-02  0.32147107914E-01 -0.80659554894E-01  0.86926232314E-01  0.51100000000E-03 0.  1.
         11    1    4    4    0    0  0.94457280897E-02  0.81823374969E-02 -0.41313423460E-01  0.43165176995E-01  0.51100000000E-03 0. -1.
</event>
<event>
 8    1  0.1051655E+005  0.1043930E+01  0.7957747E-01            NaN
         13   -1    0    0    0    0  0.00000000000E+00  0.00000000000E+00  0.74505805969E-08  0.10566000000E+00  0.10566000000E+00 0.  1.
     999900   -1    0    0    0    0 -0.00000000000E+00 -0.00000000000E+00 -0.74505805969E-08  0.93827000000E+00  0.93827000000E+00 0. -1.
     999902    2    1    2    0    0 -0.15656216344E-01 -0.12078781667E-01  0.13477666064E-01  0.10199996519E+01  0.10197188967E+01 0.  0.
     999903    2    3    3    0    0 -0.12391711529E+00  0.39583192160E-01  0.74100959199E-02  0.13184077132E+00  0.20119614729E-01 0.  0.
         14    1    1    2    0    0  0.15656216344E-01  0.12078781667E-01 -0.13477666064E-01  0.23930348081E-01  0.00000000000E+00 0. -1.
     999901    1    3    3    0    0  0.10826089895E+00 -0.51661973826E-01  0.60675701443E-02  0.88815888060E+00  0.88000000000E+00 0. -1.
        -11    1    4    4    0    0 -0.72522840691E-01  0.21399384681E-01 -0.54960027727E-02  0.75815323347E-01  0.51100000000E-03 0. -1.
         11    1    4    4    0    0 -0.51394274600E-01  0.18183807479E-01  0.12906098693E-01  0.56025447973E-01  0.51100000000E-03 0.  1.
</event>
<event>
 8    1  0.1118985E+005  0.1043930E+01  0.7957747E-01            NaN
         13   -1    0    0    0    0  0.00000000000E+00  0.00000000000E+00  0.74505805969E-08  0.10566000000E+00  0.10566000000E+00 0. -1.
     999900   -1    0    0    0    0 -0.00000000000E+00 -0.00000000000E+00 -0.74505805969E-08  0.93827000000E+00  0.93827000000E+00 0. -1.
     999902    2    1    2    0    0 -0.62442458580E-02  0.20047211770E-01  0.12010919076E-01  0.10197402608E+01  0.10194533123E+01 0.  0.
     999903    2    3    3    0    0  0.90254631060E-01  0.30471969028E-01  0.87975052348E-01  0.13115078395E+00  0.19659068389E-01 0.  0.
         14    1    1    2    0    0  0.62442458580E-02 -0.20047211770E-01 -0.12010919076E-01  0.24189739212E-01  0.00000000000E+00 0.  1.
     999901    1    3    3    0    0 -0.96498876918E-01 -0.10424757258E-01 -0.75964133272E-01  0.88858947684E+00  0.88000000000E+00 0. -1.
        -11    1    4    4    0    0  0.13759653972E-01  0.72043926597E-02  0.24717382837E-01  0.29196600596E-01  0.51100000000E-03 0. -1.
         11    1    4    4    0    0  0.76494977089E-01  0.23267576368E-01  0.63257669511E-01  0.10195418335E+00  0.51100000000E-03 0.  1.
</event>
<event>
 7    1  0.2029278E+005  0.1043930E+01  0.7957747E-01            NaN
         13   -1    0    0    0    0  0.00000000000E+00  0.00000000000E+00  0.74505805969E-08  0.10566000000E+00  0.10566000000E+00 0.  1.
     999900   -1    0    0    0    0 -0.00000000000E+00 -0.00000000000E+00 -0.74505805969E-08  0.93827000000E+00  0.93827000000E+00 0. -1.
     999903    2    1    2    0    0 -0.78924882495E-02 -0.36205078367E-02  0.10393318665E+00  0.10525459476E+00  0.14178257401E-01 0.  0.
         14    1    1    2    0    0 -0.12684745158E-01 -0.31147674782E-01  0.33060488076E-01  0.47160113187E-01  0.00000000000E+00 0. -1.
     999901    1    1    2    0    0  0.20577233407E-01  0.34768182618E-01 -0.13699367472E+00  0.89151529206E+00  0.88000000000E+00 0. -1.
        -11    1    3    3    0    0 -0.58699955820E-02 -0.90436570299E-02  0.64960385824E-01  0.65851024502E-01  0.51100000000E-03 0. -1.
         11    1    3    3    0    0 -0.20224926675E-02  0.54231491933E-02  0.38972800823E-01  0.39403570254E-01  0.51100000000E-03 0.  1.
</event>
<event>
 8    1  0.1127376E+005  0.1043930E+01  0.7957747E-01            NaN
         13   -1    0    0    0    0  0.00000000000E+00  0.00000000000E+00  0.74505805969E-08  0.10566000000E+00  0.10566000000E+00 0. -1.
     999900   -1    0    0    0    0 -0.00000000000E+00 -0.00000000000E+00 -0.74505805969E-08  0.93827000000E+00  0.93827000000E+00 0. -1.
     999902    2    1    2    0    0 -0.22402792715E-02  0.23717001380E-01  0.48599523496E-02  0.10196167497E+01  0.10193268279E+01 0.  0.
     999903    2    3    3    0    0  0.73980178102E-01  0.45138883037E-01 -0.95450860302E-01  0.13038634404E+00  0.19471683670E-01 0.  0.
         14    1    1    2    0    0  0.22402792715E-02 -0.23717001380E-01 -0.48599523496E-02  0.24313250349E-01  0.00000000000E+00 0.  1.
     999901    1    3    3    0    0 -0.76220457374E-01 -0.21421881657E-01  0.10031081265E+00  0.88923040562E+00  0.88000000000E+00 0.  1.
        -11    1    4    4    0    0  0.46510317743E-01  0.38861956025E-01 -0.66731479713E-01  0.90148836866E-01  0.51100000000E-03 0.  1.
         11    1    4    4    0    0  0.27469860359E-01  0.62769270120E-02 -0.28719380589E-01  0.40237507170E-01  0.51100000000E-03 0. -1.
</event>
<event>
 8    1  0.1051655E+005  0.1043930E+01  0.7957747E-01            NaN
         13   -1    0    0    0    0  0.00000000000E+00  0.00000000000E+00  0.74505805969E-08  0.10566000000E+00  0.10566000000E+00 0.  1.
     999900   -1    0    0    0    0 -0.00000000000E+00 -0.00000000000E+00 -0.74505805969E-08  0.93827000000E+00  0.93827000000E+00 0.  1.
     999902    2    1    2    0    0  0.58588453203E-02 -0.12478357091E-01  0.19216428302E-01  0.10202803366E+01  0.10200062052E+01 0.  0.
     999903    2    3    3    0    0 -0.96121984638E-01 -0.59925321573E-01 -0.58755022386E-01  0.12970139495E+00  0.23234007397E-01 0.  0.
         14    1    1    2    0    0 -0.58588453203E-02  0.12478357091E-01 -0.19216428302E-01  0.23649663441E-01  0.00000000000E+00 0.  1.
     999901    1    3    3    0    0  0.10198082996E+00  0.47446964482E-01  0.77971450688E-01  0.89057894161E+00  0.88000000000E+00 0.  1.
        -11    1    4    4    0    0 -0.33747043959E-01 -0.11315461018E-01 -0.10726915283E-01  0.37178360191E-01  0.51100000000E-03 0. -1.
         11    1    4    4    0    0 -0.62374940679E-01 -0.48609860555E-01 -0.48028107103E-01  0.92523034758E-01  0.51100000000E-03 0.  1.
</event>
<event>
 8    1  0.1051655E+005  0.1043930E+01  0.7957747E-01            NaN
         13   -1    0    0    0    0  0.00000000000E+00  0.00000000000E+00  0.74505805969E-08  0.10566000000E+00  0.10566000000E+00 0.  1.
     999900   -1    0    0    0    0 -0.00000000000E+00 -0.00000000000E+00 -0.74505805969E-08  0.93827000000E+00  0.93827000000E+00 0.  1.
     999902    2    1    2    0    0 -0.48781135961E-02 -0.11831717369E-01 -0.19584360802E-01  0.10205348570E+01  0.10202666620E+01 0.  0.
     999903    2    3    3    0    0  0.90139604406E-01 -0.92347291189E-01  0.10639031758E-01  0.13125167498E+00  0.21462588742E-01 0.  0.
         14    1    1    2    0    0  0.48781135961E-02  0.11831717369E-01  0.19584360802E-01  0.23395143004E-01  0.00000000000E+00 0.  1.
     999901    1    3    3    0    0 -0.95017718002E-01  0.80515573820E-01 -0.30223392560E-01  0.88928318202E+00  0.88000000000E+00 0.  1.
        -11    1    4    4    0    0  0.19570758776E-01 -0.11091287575E-01 -0.32554950531E-02  0.22735228791E-01  0.51100000000E-03 0. -1.
         11    1    4    4    0    0  0.70568845630E-01 -0.81256003614E-01  0.13894526811E-01  0.10851644619E+00  0.51100000000E-03 0.  1.
</event>
<event>
 8    1  0.1051655E+005  0.1043930E+01  0.7957747E-01            NaN
         13   -1    0    0    0    0  0.00000000000E+00  0.00000000000E+00  0.74505805969E-08  0.10566000000E+00  0.10566000000E+00 0.  1.
     999900   -1    0    0    0    0 -0.00000000000E+00 -0.00000000000E+00 -0.74505805969E-08  0.93827000000E+00  0.93827000000E+00 0.  1.
     999902    2    1    2    0    0 -0.18704878146E-02 -0.51634565456E-02  0.23882561200E-01  0.10194241489E+01  0.10191295593E+01 0.  0.
     999903    2    3    3    0    0 -0.90749650566E-01 -0.87679027501E-01 -0.23217990562E-01  0.12985864430E+00  0.20027018539E-01 0.  0.
         14    1    1    2    0    0  0.18704878146E-02  0.51634565456E-02 -0.23882561200E-01  0.24505851089E-01  0.00000000000E+00 0. -1.
     999901    1    3    3    0    0  0.88879162751E-01  0.82515570956E-01  0.47100551762E-01  0.88956550461E+00  0.88000000000E+00 0. -1.
        -11    1    4    4    0    0 -0.63021159670E-01 -0.64166234235E-01 -0.25327909308E-01  0.93438409089E-01  0.51100000000E-03 0.  1.
         11    1    4    4    0    0 -0.27728490896E-01 -0.23512793266E-01  0.21099187462E-02  0.36420235209E-01  0.51100000000E-03 0. -1.
</event>
<event>
 8    1  0.1051655E+005  0.1043930E+01  0.7957747E-01            NaN
         13   -1    0    0    0    0  0.00000000000E+00  0.00000000000E+00  0.74505805969E-08  0.10566000000E+00  0.10566000000E+00 0. -1.
     999900   -1    0    0    0    0 -0.00000000000E+00 -0.00000000000E+00 -0.74505805969E-08  0.93827000000E+00  0.93827000000E+00 0.  1.
     999902    2    1    2    0    0 -0.19924963726E-02 -0.84449967375E-02  0.21075460578E-01  0.10211382679E+01  0.10208838814E+01 0.  0.
     999903    2    3    3    0    0 -0.52109270148E-01 -0.10549738772E+00  0.60644525921E-01  0.13350288754E+00  0.17325922952E-01 0.  0.
         14    1    1    2    0    0  0.19924963726E-02  0.84449967375E-02 -0.21075460578E-01  0.22791732060E-01  0.00000000000E+00 0.  1.
     999901    1    3    3    0    0  0.50116773776E-01  0.97052390981E-01 -0.39569065343E-01  0.88763538040E+00  0.88000000000E+00 0. -1.
        -11    1    4    4    0    0 -0.29258531336E-01 -0.54862447081E-01  0.22548896548E-01  0.66141239875E-01  0.51100000000E-03 0. -1.
         11    1    4    4    0    0 -0.22850738813E-01 -0.50634940637E-01  0.38095629374E-01  0.67361647664E-01  0.51100000000E-03 0.  1.
</event>
<event>
 8    1  0.1051655E+005  0.1043930E+01  0.7957747E-01            NaN
         13   -1    0    0    0    0  0.00000000000E+00  0.00000000000E+00  0.74505805969E-08  0.10566000000E+00  0.10566000000E+00 0. -1.
     999900   -1    0    0    0    0 -0.00000000000E+00 -0.00000000000E+00 -0.74505805969E-08  0.93827000000E+00  0.93827000000E+00 0. -1.
     999902    2    1    2    0    0  0.11131426891E-01  0.20418341128E-01  0.49632634545E-02  0.10201507800E+01  0.10198736013E+01 0.  0.
     999903    2    3    3    0    0  0.51788217489E-01 -0.42768761684E-01 -0.10914791330E+00  0.12960771803E+00  0.19331506632E-01 0.  0.
         14    1    1    2    0    0 -0.11131426891E-01 -0.20418341128E-01 -0.49632634545E-02  0.23779219987E-01  0.00000000000E+00 0.  1.
     999901    1    3    3    0    0 -0.40656790598E-01  0.63187102813E-01  0.11411117676E+00  0.89054306198E+00  0.88000000000E+00 0.  1.
        -11    1    4    4    0    0  0.24506376821E-01 -0.16574571572E-01 -0.65355334119E-01  0.71741617953E-01  0.51100000000E-03 0. -1.
         11    1    4    4    0    0  0.27281840668E-01 -0.26194190113E-01 -0.43792579181E-01  0.57866100078E-01  0.51100000000E-03 0.  1.
</event>
<event>
 8    1  0.1051655E+005  0.1043930E+01  0.7957747E-01            NaN
         13   -1    0    0    0    0  0.00000000000E+00  0.00000000000E+00  0.74505805969E-08  0.10566000000E+00  0.10566000000E+00 0. -1.
     999900   -1    0    0    0    0 -0.00000000000E+00 -0.00000000000E+00 -0.74505805969E-08  0.93827000000E+00  0.93827000000E+00 0. -1.
     999902    2    1    2    0    0 -0.85422896351E-03 -0.23180065137E-01 -0.26720927254E-02  0.10205807986E+01  0.10203136681E+01 0.  0.
     999903    2    3    3    0    0  0.85437710110E-01 -0.99863939660E-01 -0.46606179273E-02  0.13303887305E+00  0.20129869092E-01 0.  0.
         14    1    1    2    0    0  0.85422896351E-03  0.23180065137E-01  0.26720927254E-02  0.23349201409E-01  0.00000000000E+00 0.  1.
     999901    1    3    3    0    0 -0.86291939073E-01  0.76683874523E-01  0.19885252019E-02  0.88754192554E+00  0.88000000000E+00 0. -1.
        -11    1    4    4    0    0  0.53581574065E-02 -0.90219271478E-02 -0.56626799674E-02  0.11934491429E-01  0.51100000000E-03 0.  1.
         11    1    4    4    0    0  0.80079552703E-01 -0.90842012512E-01  0.10020620401E-02  0.12110438162E+00  0.51100000000E-03 0. -1.
</event>
<event>
 8    1  0.1051655E+005  0.1043930E+01  0.7957747E-01            NaN
         13   -1    0    0    0    0  0.00000000000E+00  0.00000000000E+00  0.74505805969E-08  0.10566000000E+00  0.10566000000E+00 0. -1.
     999900   -1    0    0    0    0 -0.00000000000E+00 -0.00000000000E+00 -0.74505805969E-08  0.93827000000E+00  0.93827000000E+00 0. -1.
     999902    2    1    2    0    0  0.16011931377E-01 -0.42224021417E-02 -0.17127554567E-01  0.10201064035E+01  0.10198281770E+01 0.  0.
     999903    2    3    3    0    0 -0.65706471135E-01 -0.33337726811E-01 -0.10676329337E+00  0.13130937090E+00  0.20371688614E-01 0.  0.
         14    1    1    2    0    0 -0.16011931377E-01  0.42224021417E-02  0.17127554567E-01  0.23823596532E-01  0.00000000000E+00 0. -1.
     999901    1    3    3    0    0  0.81718402511E-01  0.29115324669E-01  0.89635738799E-01  0.88879703257E+00  0.88000000000E+00 0.  1.
        -11    1    4    4    0    0 -0.28903126388E-01 -0.10054798895E-01 -0.28908151480E-01  0.42100261743E-01  0.51100000000E-03 0.  1.
         11    1    4    4    0    0 -0.36803344746E-01 -0.23282927916E-01 -0.77855141886E-01  0.89209109153E-01  0.51100000000E-03 0. -1.
</event>
<event>
 8    1  0.1051655E+005  0.1043930E+01  0.7957747E-01            NaN
         13   -1    0    0    0    0  0.00000000000E+00  0.00000000000E+00  0.74505805969E-08  0.10566000000E+00  0.10566000000E+00 0. -1.
     999900   -1    0    0    0    0 -0.00000000000E+00 -0.00000000000E+00 -0.74505805969E-08  0.93827000000E+00  0.93827000000E+00 0.  1.
     999902    2    1    2    0    0 -0.15075803857E-01 -0.18202486141E-01  0.12665529490E-02  0.10202611487E+01  0.10199865671E+01 0.  0.
     999903    2    3    3    0    0  0.12401133229E+00  0.88395559496E-02  0.22920499113E-01  0.12866404418E+00  0.23919420937E-01 0.  0.
         14    1    1    2    0    0  0.15075803857E-01  0.18202486141E-01 -0.12665529490E-02  0.23668851261E-01  0.00000000000E+00 0. -1.
     999901    1    3    3    0    0 -0.13908713615E+00 -0.27042042090E-01 -0.21653946164E-01  0.89159710456E+00  0.88000000000E+00 0.  1.
        -11    1    4    4    0    0  0.32836972468E-01  0.12925870698E-01  0.48472775359E-02  0.35624459500E-01  0.51100000000E-03 0.  1.
         11    1    4    4    0    0  0.91174359823E-01 -0.40863147484E-02  0.18073221577E-01  0.93039584675E-01  0.51100000000E-03 0. -1.
</event>
<event>
 8    1  0.1051655E+005  0.1043930E+01  0.7957747E-01            NaN
         13   -1    0    0    0    0  0.00000000000E+00  0.00000000000E+00  0.74505805969E-08  0.10566000000E+00  0.10566000000E+00 0. -1.
     999900   -1    0    0    0    0 -0.00000000000E+00 -0.00000000000E+00 -0.74505805969E-08  0.93827000000E+00  0.93827000000E+00 0. -1.
     999902    2    1    2    0    0 -0.80610109160E-03 -0.16148638053E-01  0.16375762935E-01  0.10209170923E+01  0.10206576877E+01 0.  0.
     999903    2    3    3    0    0  0.65981138964E-02  0.12730106758E+00  0.50851847242E-02  0.12919958230E+00  0.20434677608E-01 0.  0.
         14    1    1    2    0    0  0.80610109160E-03  0.16148638053E-01 -0.16375762935E-01  0.23012907718E-01  0.00000000000E+00 0.  1.
     999901    1    3    3    0    0 -0.74042149880E-02 -0.14344970564E+00  0.11290578210E-01  0.89171750998E+00  0.88000000000E+00 0. -1.
        -11    1    4    4    0    0  0.66750194259E-02  0.17604971890E-01 -0.35364241655E-02  0.19163985401E-01  0.51100000000E-03 0.  1.
         11    1    4    4    0    0 -0.76905529438E-04  0.10969609569E+00  0.86216088897E-02  0.11003559690E+00  0.51100000000E-03 0. -1.
</event>
<event>
 8    1  0.1051655E+005  0.1043930E+01  0.7957747E-01            NaN
         13   -1    0    0    0    0  0.00000000000E+00  0.00000000000E+00  0.74505805969E-08  0.10566000000E+00  0.10566000000E+00 0. -1.
     999900   -1    0    0    0    0 -0.00000000000E+00 -0.00000000000E+00 -0.74505805969E-08  0.93827000000E+00  0.93827000000E+00 0. -1.
     999902    2    1    2    0    0  0.18853683037E-01  0.36656968848E-03 -0.13799802752E-01  0.10205627089E+01  0.10202951595E+01 0.  0.
     999903    2    3    3    0    0  0.79668279688E-01  0.10385360446E+00 -0.10076071911E-02  0.13232196349E+00  0.19377327056E-01 0.  0.
         14    1    1    2    0    0 -0.18853683037E-01 -0.36656968848E-03  0.13799802752E-01  0.23367291100E-01  0.00000000000E+00 0. -1.
     999901    1    3    3    0    0 -0.60814596651E-01 -0.10348703477E+00 -0.12792195560E-01  0.88824074541E+00  0.88000000000E+00 0. -1.
        -11    1    4    4    0    0  0.25012851199E-01  0.29285750442E-01  0.82966747384E-02  0.39400429398E-01  0.51100000000E-03 0. -1.
         11    1    4    4    0    0  0.54655428488E-01  0.74567854014E-01 -0.93042819295E-02  0.92921534096E-01  0.51100000000E-03 0.  1.
</event>
<event>
 8    1  0.1051655E+005  0.1043930E+01  0.7957747E-01            NaN
         13   -1    0    0    0    0  0.00000000000E+00  0.00000000000E+00  0.74505805969E-08  0.10566000000E+00  0.10566000000E+00 0. -1.
     999900   -1    0    0    0    0 -0.00000000000E+00 -0.00000000000E+00 -0.74505805969E-08  0.93827000000E+00  0.93827000000E+00 0.  1.
     999902    2    1    2    0    0 -0.73149041927E-02 -0.21724106374E-01 -0.42403625841E-02  0.10206185158E+01  0.10203522575E+01 0.  0.
     999903    2    3    3    0    0 -0.10711632249E+00  0.70224495142E-01 -0.11876476156E-01  0.13018425171E+00  0.20037525961E-01 0.  0.
         14    1    1    2    0    0  0.73149041927E-02  0.21724106374E-01  0.42403625841E-02  0.23311484207E-01  0.00000000000E+00 0. -1.
     999901    1    3    3    0    0  0.99801418298E-01 -0.91948601516E-01  0.76361135717E-02  0.89043426408E+00  0.88000000000E+00 0. -1.
        -11    1    4    4    0    0 -0.95729282919E-01  0.67387051330E-01 -0.64567627008E-02  0.11724786224E+00  0.51100000000E-03 0. -1.
         11    1    4    4    0    0 -0.11387039571E-01  0.28374438112E-02 -0.54197134549E-02  0.12936389470E-01  0.51100000000E-03 0.  1.
</event>
<event>
 8    1  0.1051655E+005  0.1043930E+01  0.7957747E-01            NaN
         13   -1    0    0    0    0  0.00000000000E+00  0.00000000000E+00  0.74505805969E-08  0.10566000000E+00  0.10566000000E+00 0. -1.
     999900   -1    0    0    0    0 -0.00000000000E+00 -0.00000000000E+00 -0.74505805969E-08  0.93827000000E+00  0.93827000000E+00 0.  1.
     999902    2    1    2    0    0 -0.14913518413E-02 -0.19920554525E-01 -0.87957141220E-02  0.10221030165E+01  0.10218699326E+01 0.  0.
     999903    2    3    3    0    0 -0.95286324282E-01 -0.43943176602E-01  0.78415201385E-01  0.13250741902E+00  0.19969624984E-01 0.  0.
         14    1    1    2    0    0  0.14913518413E-02  0.19920554525E-01  0.87957141220E-02  0.21826983525E-01  0.00000000000E+00 0. -1.
     999901    1    3    3    0    0  0.93794972441E-01  0.24022622077E-01 -0.87210915507E-01  0.88959559745E+00  0.88000000000E+00 0.  1.
        -11    1    4    4    0    0 -0.62849013781E-01 -0.38777799335E-01  0.51426275914E-01  0.89992439849E-01  0.51100000000E-03 0.  1.
         11    1    4    4    0    0 -0.32437310501E-01 -0.51653772665E-02  0.26988925471E-01  0.42514979171E-01  0.51100000000E-03 0. -1.
</event>
<event>
 8    1  0.1051655E+005  0.1043930E+01  0.7957747E-01            NaN
         13   -1    0    0    0    0  0.00000000000E+00  0.00000000000E+00  0.74505805969E-08  0.10566000000E+00  0.10566000000E+00 0. -1.
     999900   -1    0    0    0    0 -0.00000000000E+00 -0.00000000000E+00 -0.74505805969E-08  0.93827000000E+00  0.93827000000E+00 0.  1.
     999902    2    1    2    0    0  0.23488769379E-01  0.27391846956E-02 -0.36860522381E-02  0.10199965004E+01  0.10197156704E+01 0.  0.
     999903    2    3    3    0    0  0.59999822655E-01  0.96712596681E-01 -0.64051114917E-01  0.13218570981E+00  0.20425755356E-01 0.  0.
         14    1    1    2    0    0 -0.23488769379E-01 -0.27391846956E-02  0.36860522381E-02  0.23933499553E-01  0.00000000000E+00 0. -1.
     999901    1    3    3    0    0 -0.36511053276E-01 -0.93973411985E-01  0.60365062679E-01  0.88781079063E+00  0.88000000000E+00 0. -1.
        -11    1    4    4    0    0  0.43251149823E-01  0.58101773191E-01 -0.31547607860E-01  0.79006269952E-01  0.51100000000E-03 0. -1.
         11    1    4    4    0    0  0.16748672832E-01  0.38610823489E-01 -0.32503507058E-01  0.53179439863E-01  0.51100000000E-03 0.  1.
</event>
<event>
 8    1  0.1051655E+005  0.1043930E+01  0.7957747E-01            NaN
         13   -1    0    0    0    0  0.00000000000E+00  0.00000000000E+00  0.74505805969E-08  0.10566000000E+00  0.10566000000E+00 0.  1.
     999900   -1    0    0    0    0 -0.00000000000E+00 -0.00000000000E+00 -0.74505805969E-08  0.93827000000E+00  0.93827000000E+00 0.  1.
     999902    2    1    2    0    0  0.92535157627E-02 -0.11883395505E-01 -0.17316543113E-01  0.10209799388E+01  0.10207219652E+01 0.  0.
     999903    2    3    3    0    0  0.10448716182E+00  0.40463232529E-01  0.64032987073E-01  0.13057140176E+00  0.19845083834E-01 0.  0.
         14    1    1    2    0    0 -0.92535157627E-02  0.11883395505E-01  0.17316543113E-01  0.22950061179E-01  0.00000000000E+00 0.  1.
     999901    1    3    3    0    0 -0.95233646058E-01 -0.52346628034E-01 -0.81349530186E-01  0.89040853706E+00  0.88000000000E+00 0.  1.
        -11    1    4    4    0    0  0.74540663575E-01  0.25005893033E-01  0.54080501658E-01  0.95428334331E-01  0.51100000000E-03 0.  1.
         11    1    4    4    0    0  0.29946498246E-01  0.15457339496E-01  0.99524854145E-02  0.35143067430E-01  0.51100000000E-03 0. -1.
</event>
<event>
 8    1  0.1051655E+005  0.1043930E+01  0.7957747E-01            NaN
         13   -1    0    0    0    0  0.00000000000E+00  0.00000000000E+00  0.74505805969E-08  0.10566000000E+00  0.10566000000E+00 0.  1.
     999900   -1    0    0    0    0 -0.00000000000E+00 -0.00000000000E+00 -0.74505805969E-08  0.93827000000E+00  0.93827000000E+00 0. -1.
     999902    2    1    2    0    0 -0.99716839819E-02  0.77077365733E-02  0.20505773532E-01  0.10198607160E+01  0.10195766521E+01 0.  0.
     999903    2    3    3    0    0  0.84097246128E-01  0.46610650386E-01 -0.82000306961E-01  0.12808165319E+00  0.20879655320E-01 0.  0.
         14    1    1    2    0    0  0.99716839819E-02 -0.77077365733E-02 -0.20505773532E-01  0.24069284008E-01  0.00000000000E+00 0. -1.
     999901    1    3    3    0    0 -0.94068930110E-01 -0.38902913812E-01  0.10250608049E+00  0.89177906280E+00  0.88000000000E+00 0.  1.
        -11    1    4    4    0    0  0.42559924337E-01  0.14935552626E-01 -0.28776191212E-01  0.53504655811E-01  0.51100000000E-03 0. -1.
         11    1    4    4    0    0  0.41537321791E-01  0.31675097760E-01 -0.53224115749E-01  0.74576997378E-01  0.51100000000E-03 0.  1.
</event>
<event>
 8    1  0.1051655E+005  0.1043930E+01  0.7957747E-01            NaN
         13   -1    0    0    0    0  0.00000000000E+00  0.00000000000E+00  0.74505805969E-08  0.10566000000E+00  0.10566000000E+00 0.  1.
     999900   -1    0    0    0    0 -0.00000000000E+00 -0.00000000000E+00 -0.74505805969E-08  0.93827000000E+00  0.93827000000E+00 0.  1.
     999902    2    1    2    0    0  0.12467378201E-01 -0.15823239189E-01  0.11808254307E-01  0.10205795121E+01  0.10203123517E+01 0.  0.
     999903    2    3    3    0    0 -0.84608429620E-01 -0.75111471498E-01 -0.61045097134E-01  0.13027258870E+00  0.21074248950E-01 0.  0.
         14    1    1    2    0    0 -0.12467378201E-01  0.15823239189E-01 -0.11808254307E-01  0.23350487948E-01  0.00000000000E+00 0.  1.
     999901    1    3    3    0    0  0.97075807821E-01  0.59288232309E-01  0.72853351441E-01  0.89030692335E+00  0.88000000000E+00 0. -1.
        -11    1    4    4    0    0 -0.39875376394E-01 -0.46451101118E-01 -0.39982541544E-01  0.73120552425E-01  0.51100000000E-03 0.  1.
         11    1    4    4    0    0 -0.44733053226E-01 -0.28660370380E-01 -0.21062555590E-01  0.57152036273E-01  0.51100000000E-03 0. -1.
</event>
<event>
 8    1  0.1051655E+005  0.1043930E+01  0.7957747E-01            NaN
         13   -1    0    0    0    0  0.00000000000E+00  0.00000000000E+00  0.74505805969E-08  0.10566000000E+00  0.10566000000E+00 0. -1.
     999900   -1    0    0    0    0 -0.00000000000E+00 -0.00000000000E+00 -0.74505805969E-08  0.93827000000E+00  0.93827000000E+00 0.  1.
     999902    2    1    2    0    0 -0.13376420919E-01 -0.15545974805E-02  0.22733158524E-01  0.10175076249E+01  0.10171645023E+01 0.  0.
     999903    2    3    3    0    0  0.18574932337E-01 -0.12229667226E+00 -0.24287965343E-01  0.12744553510E+00  0.18733792998E-01 0.  0.
         14    1    1    2    0    0  0.13376420919E-01  0.15545974805E-02 -0.22733158524E-01  0.26422375109E-01  0.00000000000E+00 0.  1.
     999901    1    3    3    0    0 -0.31951353256E-01  0.12074207477E+00  0.47021123867E-01  0.89006208979E+00  0.88000000000E+00 0. -1.
        -11    1    4    4    0    0  0.91509968704E-02 -0.83392325475E-01 -0.24547280180E-01  0.87411960149E-01  0.51100000000E-03 0.  1.
         11    1    4    4    0    0  0.94239354665E-02 -0.38904346780E-01  0.25931483743E-03  0.40033574949E-01  0.51100000000E-03 0. -1.
</event>
<event>
 8    1  0.1051655E+005  0.1043930E+01  0.7957747E-01            NaN
         13   -1    0    0    0    0  0.00000000000E+00  0.00000000000E+00  0.74505805969E-08  0.10566000000E+00  0.10566000000E+00 0. -1.
     999900   -1    0    0    0    0 -0.00000000000E+00 -0.00000000000E+00 -0.74505805969E-08  0.93827000000E+00  0.93827000000E+00 0. -1.
     999902    2    1    2    0    0 -0.89985124988E-02  0.15441441638E-01 -0.15890917843E-01  0.10200148873E+01  0.10197344937E+01 0.  0.
     999903    2    3    3    0    0 -0.12363719413E-01  0.10605428724E+00 -0.77076321447E-01  0.13324227492E+00  0.20306922419E-01 0.  0.
         14    1    1    2    0    0  0.89985124988E-02 -0.15441441638E-01  0.15890917843E-01  0.23915112731E-01  0.00000000000E+00 0. -1.
     999901    1    3    3    0    0  0.33652069142E-02 -0.90612845598E-01  0.61185403605E-01  0.88677261235E+00  0.88000000000E+00 0.  1.
        -11    1    4    4    0    0 -0.77629317435E-02  0.26238018617E-01 -0.29352789463E-01  0.40131584824E-01  0.51100000000E-03 0. -1.
         11    1    4    4    0    0 -0.46007876694E-02  0.79816268618E-01 -0.47723531984E-01  0.93110690092E-01  0.51100000000E-03 0.  1.
</event>
<event>
 8    1  0.1051655E+005  0.1043930E+01  0.7957747E-01            NaN
         13   -1    0    0    0    0  0.00000000000E+00  0.00000000000E+00  0.74505805969E-08  0.10566000000E+00  0.10566000000E+00 0. -1.
     999900   -1    0    0    0    0 -0.00000000000E+00 -0.00000000000E+00 -0.74505805969E-08  0.93827000000E+00  0.93827000000E+00 0.  1.
     999902    2    1    2    0    0  0.23228434538E-01 -0.54358883654E-03  0.10854624275E-01  0.10182847562E+01  0.10179617705E+01 0.  0.
     999903    2    3    3    0    0 -0.72181657400E-01 -0.10271976372E+00  0.11861142539E-02  0.12719747855E+00  0.20402209668E-01 0.  0.
         14    1    1    2    0    0 -0.23228434538E-01  0.54358883654E-03 -0.10854624275E-01  0.25645243771E-01  0.00000000000E+00 0.  1.
     999901    1    3    3    0    0  0.95410091938E-01  0.10217617488E+00  0.96685100215E-02  0.89108727768E+00  0.88000000000E+00 0. -1.
        -11    1    4    4    0    0 -0.42214698959E-01 -0.76149777419E-01  0.27618727479E-02  0.87113480422E-01  0.51100000000E-03 0. -1.
         11    1    4    4    0    0 -0.29966958441E-01 -0.26569986298E-01 -0.15757584939E-02  0.40083998128E-01  0.51100000000E-03 0.  1.
</event>
<event>
 8    1  0.1051655E+005  0.1043930E+01  0.7957747E-01            NaN
         13   -1    0    0    0    0  0.00000000000E+00  0.00000000000E+00  0.74505805969E-08  0.10566000000E+00  0.10566000000E+00 0. -1.
     999900   -1    0    0    0    0 -0.00000000000E+00 -0.00000000000E+00 -0.74505805969E-08  0.93827000000E+00  0.93827000000E+00 0. -1.
     999902    2    1    2    0    0  0.17967104114E-01  0.87289407630E-02 -0.16435489825E-01  0.10180623259E+01  0.10177336404E+01 0.  0.
     999903    2    3    3    0    0 -0.12687014161E-02  0.10096847412E+00  0.75069570498E-01  0.12831442690E+00  0.25157690012E-01 0.  0.
         14    1    1    2    0    0 -0.17967104114E-01 -0.87289407630E-02  0.16435489825E-01  0.25867674091E-01  0.00000000000E+00 0. -1.
     999901    1    3    3    0    0  0.19235805531E-01 -0.92239533354E-01 -0.91505060324E-01  0.88974789901E+00  0.88000000000E+00 0. -1.
        -11    1    4    4    0    0  0.21549111611E-03  0.16651536318E-01  0.20936406137E-02  0.16791800088E-01  0.51100000000E-03 0.  1.
         11    1    4    4    0    0 -0.14841925322E-02  0.84316937799E-01  0.72975929885E-01  0.11152262681E+00  0.51100000000E-03 0. -1.
</event>
<event>
 8    1  0.1051655E+005  0.1043930E+01  0.7957747E-01            NaN
         13   -1    0    0    0    0  0.00000000000E+00  0.00000000000E+00  0.74505805969E-08  0.10566000000E+00  0.10566000000E+00 0.  1.
     999900   -1    0    0    0    0 -0.00000000000E+00 -0.00000000000E+00 -0.74505805969E-08  0.93827000000E+00  0.93827000000E+00 0. -1.
     999902    2    1    2    0    0  0.42076320549E-02 -0.22943546483E-01 -0.69985607470E-02  0.10195765537E+01  0.10192856609E+01 0.  0.
     999903    2    3    3    0    0  0.10493310249E+00 -0.14178839988E-01  0.72746045162E-01  0.13020506630E+00  0.21198507115E-01 0.  0.
         14    1    1    2    0    0 -0.42076320549E-02  0.22943546483E-01  0.69985607470E-02  0.24353446270E-01  0.00000000000E+00 0.  1.
     999901    1    3    3    0    0 -0.10072547043E+00 -0.87647064950E-02 -0.79744605909E-01  0.88937148743E+00  0.88000000000E+00 0. -1.
        -11    1    4    4    0    0  0.31922953114E-01 -0.26391758753E-02  0.34122407655E-01  0.46804273416E-01  0.51100000000E-03 0.  1.
         11    1    4    4    0    0  0.73010149372E-01 -0.11539664112E-01  0.38623637506E-01  0.83400792888E-01  0.51100000000E-03 0. -1.
</event>
<event>
 8    1  0.1051655E+005  0.1043930E+01  0.7957747E-01            NaN
         13   -1    0    0    0    0  0.00000000000E+00  0.00000000000E+00  0.74505805969E-08  0.10566000000E+00  0.10566000000E+00 0. -1.
     999900   -1    0    0    0    0 -0.00000000000E+00 -0.00000000000E+00 -0.74505805969E-08  0.93827000000E+00  0.93827000000E+00 0. -1.
     999902    2    1    2    0    0  0.87503655802E-02 -0.25129148342E-03 -0.15427361428E-01  0.10261920315E+01  0.10260387176E+01 0.  0.
     999903    2    3    3    0    0 -0.81822253148E-01  0.84346214028E-01 -0.66217462204E-01  0.13605733860E+00  0.17823640338E-01 0.  0.
         14    1    1    2    0    0 -0.87503655802E-02  0.25129148342E-03  0.15427361428E-01  0.17737968481E-01  0.00000000000E+00 0. -1.
     999901    1    3    3    0    0  0.90572618728E-01 -0.84597505512E-01  0.50790100776E-01  0.89013469292E+00  0.88000000000E+00 0. -1.
        -11    1    4    4    0    0 -0.71171417051E-02  0.16091619376E-01 -0.82768525134E-02  0.19451512248E-01  0.51100000000E-03 0.  1.
         11    1    4    4    0    0 -0.74705111443E-01  0.68254594652E-01 -0.57940609691E-01  0.11660582635E+00  0.51100000000E-03 0. -1.
</event>
<event>
 8    1  0.1051655E+005  0.1043930E+01  0.7957747E-01            NaN
         13   -1    0    0    0    0  0.00000000000E+00  0.00000000000E+00  0.74505805969E-08  0.10566000000E+00  0.10566000000E+00 0.  1.
     999900   -1    0    0    0    0 -0.00000000000E+00 -0.00000000000E+00 -0.74505805969E-08  0.93827000000E+00  0.93827000000E+00 0.  1.
     999902    2    1    2    0    0  0.10993881807E-02  0.22738889425E-01 -0.40316982724E-02  0.10208103041E+01  0.10205484588E+01 0.  0.
     999903    2    3    3    0    0 -0.70380323363E-01 -0.10169611615E+00  0.29005664611E-01  0.12857441204E+00  0.19863556910E-01 0.  0.
         14    1    1    2    0    0 -0.10993881807E-02 -0.22738889425E-01  0.40316982724E-02  0.23119695881E-01  0.00000000000E+00 0.  1.
     999901    1    3    3    0    0  0.71479711544E-01  0.12443500558E+00 -0.33037362883E-01  0.89223589208E+00  0.88000000000E+00 0.  1.
        -11    1    4    4    0    0 -0.57000215872E-01 -0.89959759085E-01  0.19097092777E-01  0.10819770302E+00  0.51100000000E-03 0. -1.
         11    1    4    4    0    0 -0.13380107491E-01 -0.11736357069E-01  0.99085718334E-02  0.20376709020E-01  0.51100000000E-03 0.  1.
</event>
<event>
 7    1  0.1051655E+005  0.1043930E+01  0.7957747E-01            NaN
         13   -1    0    0    0    0  0.00000000000E+00  0.00000000000E+00  0.74505805969E-08  0.10566000000E+00  0.10566000000E+00 0. -1.
     999900   -1    0    0    0    0 -0.00000000000E+00 -0.00000000000E+00 -0.74505805969E-08  0.93827000000E+00  0.93827000000E+00 0. -1.
     999903    2    1    2    0    0 -0.14972519811E-01  0.59808036275E-01 -0.90865340638E-01  0.11224941200E+00  0.23286107715E-01 0.  0.
         14    1    1    2    0    0  0.11149386716E-02 -0.14852654797E-01 -0.38220436577E-01  0.41020070879E-01  0.00000000000E+00 0.  1.
     999901    1    1    2    0    0  0.13857581139E-01 -0.44955381478E-01  0.12908577722E+00  0.89066051712E+00  0.88000000000E+00 0. -1.
        -11    1    3    3    0    0 -0.19264610601E-01  0.57922753824E-01 -0.86107016962E-01  0.10555022560E+00  0.51100000000E-03 0. -1.
         11    1    3    3    0    0  0.42920907906E-02  0.18852824508E-02 -0.47583236766E-02  0.66991864047E-02  0.51100000000E-03 0.  1.
</event>
<event>
 8    1  0.1051655E+005  0.1043930E+01  0.7957747E-01            NaN
         13   -1    0    0    0    0  0.00000000000E+00  0.00000000000E+00  0.74505805969E-08  0.10566000000E+00  0.10566000000E+00 0.  1.
     999900   -1    0    0    0    0 -0.00000000000E+00 -0.00000000000E+00 -0.74505805969E-08  0.93827000000E+00  0.93827000000E+00 0. -1.
     999902    2    1    2    0    0  0.25364632037E-02 -0.17237775129E-01 -0.17583098559E-01  0.10191764166E+01  0.10188757668E+01 0.  0.
     999903    2    3    3    0    0  0.22566564442E-01 -0.67886592507E-01  0.10537317836E+00  0.12896028907E+00  0.20233886582E-01 0.  0.
         14    1    1    2    0    0 -0.25364632037E-02  0.17237775129E-01  0.17583098559E-01  0.24753583416E-01  0.00000000000E+00 0.  1.
     999901    1    3    3    0    0 -0.20030101238E-01  0.50648817378E-01 -0.12295627692E+00  0.89021612752E+00  0.88000000000E+00 0. -1.
        -11    1    4    4    0    0  0.93543185688E-02 -0.32318907545E-01  0.32407315235E-01  0.46717344344E-01  0.51100000000E-03 0.  1.
         11    1    4    4    0    0  0.13212245873E-01 -0.35567684962E-01  0.72965863123E-01  0.82242944724E-01  0.51100000000E-03 0. -1.
</event>
<event>
 8    1  0.1051655E+005  0.1043930E+01  0.7957747E-01            NaN
         13   -1    0    0    0    0  0.00000000000E+00  0.00000000000E+00  0.74505805969E-08  0.10566000000E+00  0.10566000000E+00 0. -1.
     999900   -1    0    0    0    0 -0.00000000000E+00 -0.00000000000E+00 -0.74505805969E-08  0.93827000000E+00  0.93827000000E+00 0.  1.
     999902    2    1    2    0    0  0.17474458251E-02 -0.16592175218E-01  0.14013582839E-01  0.10221416006E+01  0.10219093489E+01 0.  0.
     999903    2    3    3    0    0 -0.83447493891E-02 -0.99563274745E-02  0.13243573516E+00  0.13412713389E+00  0.16795856668E-01 0.  0.
         14    1    1    2    0    0 -0.17474458251E-02  0.16592175218E-01 -0.14013582839E-01  0.21788399422E-01  0.00000000000E+00 0.  1.
     999901    1    3    3    0    0  0.10092195214E-01 -0.66358477438E-02 -0.11842215232E+00  0.88801446668E+00  0.88000000000E+00 0.  1.
        -11    1    4    4    0    0  0.13098029289E-02 -0.11028711944E-01  0.57737002400E-01  0.58797709462E-01  0.51100000000E-03 0. -1.
         11    1    4    4    0    0 -0.96545523179E-02  0.10723844696E-02  0.74698732757E-01  0.75329424433E-01  0.51100000000E-03 0.  1.
</event>
<event>
 8    1  0.1051655E+005  0.1043930E+01  0.7957747E-01            NaN
         13   -1    0    0    0    0  0.00000000000E+00  0.00000000000E+00  0.74505805969E-08  0.10566000000E+00  0.10566000000E+00 0. -1.
     999900   -1    0    0    0    0 -0.00000000000E+00 -0.00000000000E+00 -0.74505805969E-08  0.93827000000E+00  0.93827000000E+00 0.  1.
     999902    2    1    2    0    0 -0.93704793748E-02  0.98430409925E-03  0.21425548768E-01  0.10205242554E+01  0.10202558145E+01 0.  0.
     999903    2    3    3    0    0 -0.86272092463E-01 -0.56138164523E-01 -0.75999100487E-01  0.12998037848E+00  0.22905633817E-01 0.  0.
         14    1    1    2    0    0  0.93704793748E-02 -0.98430409925E-03 -0.21425548768E-01  0.23405744557E-01  0.00000000000E+00 0.  1.
     999901    1    3    3    0    0  0.76901613088E-01  0.57122468622E-01  0.97424649254E-01  0.89054387696E+00  0.88000000000E+00 0. -1.
        -11    1    4    4    0    0 -0.29473352352E-01 -0.70156316013E-02 -0.23674279859E-01  0.38452961309E-01  0.51100000000E-03 0. -1.
         11    1    4    4    0    0 -0.56798740111E-01 -0.49122532922E-01 -0.52324820628E-01  0.91527417169E-01  0.51100000000E-03 0.  1.
</event>
<event>
 8    1  0.1051655E+005  0.1043930E+01  0.7957747E-01            NaN
         13   -1    0    0    0    0  0.00000000000E+00  0.00000000000E+00  0.74505805969E-08  0.10566000000E+00  0.10566000000E+00 0.  1.
     999900   -1    0    0    0    0 -0.00000000000E+00 -0.00000000000E+00 -0.74505805969E-08  0.93827000000E+00  0.93827000000E+00 0.  1.
     999902    2    1    2    0    0 -0.81531951161E-02 -0.22465965969E-01 -0.12674827229E-02  0.10199967443E+01  0.10197159200E+01 0.  0.
     999903    2    3    3    0    0 -0.66272993566E-01 -0.23741313047E-01  0.10889867536E+00  0.13122449005E+00  0.20129224345E-01 0.  0.
         14    1    1    2    0    0  0.81531951161E-02  0.22465965969E-01  0.12674827229E-02  0.23933255733E-01  0.00000000000E+00 0. -1.
     999901    1    3    3    0    0  0.58119798450E-01  0.12753470774E-02 -0.11016615808E+00  0.88877225422E+00  0.88000000000E+00 0.  1.
        -11    1    4    4    0    0 -0.54517935575E-01 -0.22226786396E-01  0.75252052994E-01  0.95547725947E-01  0.51100000000E-03 0. -1.
         11    1    4    4    0    0 -0.11755057991E-01 -0.15145266507E-02  0.33646622363E-01  0.35676764101E-01  0.51100000000E-03 0.  1.
</event>
<event>
 8    1  0.1051655E+005  0.1043930E+01  0.7957747E-01            NaN
         13   -1    0    0    0    0  0.00000000000E+00  0.00000000000E+00  0.74505805969E-08  0.10566000000E+00  0.10566000000E+00 0. -1.
     999900   -1    0    0    0    0 -0.00000000000E+00 -0.00000000000E+00 -0.74505805969E-08  0.93827000000E+00  0.93827000000E+00 0.  1.
     999902    2    1    2    0    0  0.15749539966E-01  0.16441165487E-01  0.75267854417E-02  0.10199505832E+01  0.10196686617E+01 0.  0.
     999903    2    3    3    0    0  0.12946771407E+00 -0.10363801823E-01 -0.12292186180E-01  0.13200738622E+00  0.20138391261E-01 0.  0.
         14    1    1    2    0    0 -0.15749539966E-01 -0.16441165487E-01 -0.75267854417E-02  0.23979416815E-01  0.00000000000E+00 0.  1.
     999901    1    3    3    0    0 -0.11371817410E+00  0.26804967311E-01  0.19818971621E-01  0.88794319696E+00  0.88000000000E+00 0.  1.
        -11    1    4    4    0    0  0.74507601862E-01 -0.75164658511E-02 -0.16925894276E-01  0.76776474340E-01  0.51100000000E-03 0.  1.
         11    1    4    4    0    0  0.54960112205E-01 -0.28473359721E-02  0.46337080965E-02  0.55230911883E-01  0.51100000000E-03 0. -1.
</event>
<event>
 7    1  0.1051655E+005  0.1043930E+01  0.7957747E-01            NaN
         13   -1    0    0    0    0  0.00000000000E+00  0.00000000000E+00  0.74505805969E-08  0.10566000000E+00  0.10566000000E+00 0. -1.
     999900   -1    0    0    0    0 -0.00000000000E+00 -0.00000000000E+00 -0.74505805969E-08  0.93827000000E+00  0.93827000000E+00 0.  1.
     999903    2    1    2    0    0 -0.54917553553E-01 -0.66683068310E-01 -0.12113642910E-01  0.89399783525E-01  0.19570683747E-01 0.  0.
         14    1    1    2    0    0 -0.56152873573E-01 -0.12795934520E-01 -0.25978404681E-01  0.63180366100E-01  0.00000000000E+00 0. -1.
     999901    1    1    2    0    0  0.11107042713E+00  0.79479002830E-01  0.38092047591E-01  0.89134985037E+00  0.88000000000E+00 0.  1.
        -11    1    3    3    0    0 -0.31694173043E-01 -0.46463618955E-01 -0.15697279104E-01  0.58395669219E-01  0.51100000000E-03 0.  1.
         11    1    3    3    0    0 -0.23223380510E-01 -0.20219449355E-01  0.35836361942E-02  0.31004114306E-01  0.51100000000E-03 0. -1.
</event>
<event>
 8    1  0.1051655E+005  0.1043930E+01  0.7957747E-01            NaN
         13   -1    0    0    0    0  0.00000000000E+00  0.00000000000E+00  0.74505805969E-08  0.10566000000E+00  0.10566000000E+00 0.  1.
     999900   -1    0    0    0    0 -0.00000000000E+00 -0.00000000000E+00 -0.74505805969E-08  0.93827000000E+00  0.93827000000E+00 0.  1.
     999902    2    1    2    0    0  0.92350959839E-02 -0.20567685372E-01 -0.97186298114E-02  0.10193786570E+01  0.10190829592E+01 0.  0.
     999903    2    3    3    0    0 -0.41557195253E-01  0.13590161125E-01  0.11856943198E+00  0.12797277740E+00  0.20165034033E-01 0.  0.
         14    1    1    2    0    0 -0.92350959839E-02  0.20567685372E-01  0.97186298114E-02  0.24551343034E-01  0.00000000000E+00 0.  1.
     999901    1    3    3    0    0  0.50792291237E-01 -0.34157846497E-01 -0.12828806180E+00  0.89140587957E+00  0.88000000000E+00 0.  1.
        -11    1    4    4    0    0 -0.14513537658E-01 -0.40465353098E-02  0.27702045375E-01  0.31538574196E-01  0.51100000000E-03 0. -1.
         11    1    4    4    0    0 -0.27043657594E-01  0.17636696435E-01  0.90867386609E-01  0.96434203203E-01  0.51100000000E-03 0.  1.
</event>
<event>
 8    1  0.1051655E+005  0.1043930E+01  0.7957747E-01            NaN
         13   -1    0    0    0    0  0.00000000000E+00  0.00000000000E+00  0.74505805969E-08  0.10566000000E+00  0.10566000000E+00 0.  1.
     999900   -1    0    0    0    0 -0.00000000000E+00 -0.00000000000E+00 -0.74505805969E-08  0.93827000000E+00  0.93827000000E+00 0. -1.
     999902    2    1    2    0    0 -0.78270183579E-03  0.23763359837E-01 -0.25569638742E-02  0.10200166573E+01  0.10197363058E+01 0.  0.
     999903    2    3    3    0    0  0.63841953153E-01  0.27723520512E-01  0.10876819959E+00  0.13064310201E+00  0.19816919221E-01 0.  0.
         14    1    1    2    0    0  0.78270183579E-03 -0.23763359837E-01  0.25569638742E-02  0.23913342660E-01  0.00000000000E+00 0. -1.
     999901    1    3    3    0    0 -0.64624654989E-01 -0.39601606752E-02 -0.11132516347E+00  0.88937355533E+00  0.88000000000E+00 0. -1.
        -11    1    4    4    0    0  0.51553301876E-01  0.25895063789E-01  0.99926134828E-01  0.11538540118E+00  0.51100000000E-03 0.  1.
         11    1    4    4    0    0  0.12288651278E-01  0.18284567235E-02  0.88420647641E-02  0.15257700826E-01  0.51100000000E-03 0. -1.
</event>
<event>
 8    1  0.1051655E+005  0.1043930E+01  0.7957747E-01            NaN
         13   -1    0    0    0    0  0.00000000000E+00  0.00000000000E+00  0.74505805969E-08  0.10566000000E+00  0.10566000000E+00 0.  1.
     999900   -1    0    0    0    0 -0.00000000000E+00 -0.00000000000E+00 -0.74505805969E-08  0.93827000000E+00  0.93827000000E+00 0. -1.
     999902    2    1    2    0    0 -0.63343456688E-02  0.12853118988E-01 -0.18725681808E-01  0.10203508193E+01  0.10200783385E+01 0.  0.
     999903    2    3    3    0    0 -0.35129895851E-02  0.37009853225E-01 -0.12666526094E+00  0.13342215217E+00  0.19372971617E-01 0.  0.
         14    1    1    2    0    0  0.63343456688E-02 -0.12853118988E-01  0.18725681808E-01  0.23579180688E-01  0.00000000000E+00 0.  1.
     999901    1    3    3    0    0 -0.28213560837E-02 -0.24156734237E-01  0.10793957913E+00  0.88692866714E+00  0.88000000000E+00 0.  1.
        -11    1    4    4    0    0  0.62094805685E-02  0.13600011986E-01 -0.30502524045E-01  0.33973269920E-01  0.51100000000E-03 0.  1.
         11    1    4    4    0    0 -0.97224701536E-02  0.23409841238E-01 -0.96162736892E-01  0.99448882248E-01  0.51100000000E-03 0. -1.
</event>
<event>
 8    1  0.1051655E+005  0.1043930E+01  0.7957747E-01            NaN
         13   -1    0    0    0    0  0.00000000000E+00  0.00000000000E+00  0.74505805969E-08  0.10566000000E+00  0.10566000000E+00 0. -1.
     999900   -1    0    0    0    0 -0.00000000000E+00 -0.00000000000E+00 -0.74505805969E-08  0.93827000000E+00  0.93827000000E+00 0. -1.
     999902    2    1    2    0    0 -0.15809035049E-01 -0.12588402599E-01 -0.17996645991E-01  0.10168694616E+01  0.10165093356E+01 0.  0.
     999903    2    3    3    0    0 -0.98479537024E-01  0.35132943723E-02 -0.83164622848E-01  0.13044939094E+00  0.19751624060E-01 0.  0.
         14    1    1    2    0    0  0.15809035049E-01  0.12588402599E-01  0.17996645991E-01  0.27060538356E-01  0.00000000000E+00 0. -1.
     999901    1    3    3    0    0  0.82670501976E-01 -0.16101696971E-01  0.65167976856E-01  0.88642007071E+00  0.88000000000E+00 0.  1.
        -11    1    4    4    0    0 -0.39639362516E-01  0.11109770241E-01 -0.34417919561E-01  0.53661535231E-01  0.51100000000E-03 0.  1.
         11    1    4    4    0    0 -0.58840174508E-01 -0.75964758689E-02 -0.48746703287E-01  0.76787855707E-01  0.51100000000E-03 0. -1.
</event>
<event>
 8    1  0.1051655E+005  0.1043930E+01  0.7957747E-01            NaN
         13   -1    0    0    0    0  0.00000000000E+00  0.00000000000E+00  0.74505805969E-08  0.10566000000E+00  0.10566000000E+00 0. -1.
     999900   -1    0    0    0    0 -0.00000000000E+00 -0.00000000000E+00 -0.74505805969E-08  0.93827000000E+00  0.93827000000E+00 0. -1.
     999902    2    1    2    0    0  0.10675188935E-01  0.19569082763E-01 -0.93556230309E-02  0.10197548818E+01  0.10194682842E+01 0.  0.
     999903    2    3    3    0    0  0.12745438735E+00 -0.23026403261E-01  0.85514279298E-02  0.13083845202E+00  0.16454102964E-01 0.  0.
         14    1    1    2    0    0 -0.10675188935E-01 -0.19569082763E-01  0.93556230309E-02  0.24175118226E-01  0.00000000000E+00 0. -1.
     999901    1    3    3    0    0 -0.11677919842E+00  0.42595486024E-01 -0.17907050961E-01  0.88891642975E+00  0.88000000000E+00 0.  1.
        -11    1    4    4    0    0  0.72193499143E-01 -0.20984684400E-01  0.71104778212E-02  0.75518728232E-01  0.51100000000E-03 0.  1.
         11    1    4    4    0    0  0.55260888211E-01 -0.20417188612E-02  0.14409501086E-02  0.55319723788E-01  0.51100000000E-03 0. -1.
</event>
<event>
 8    1  0.1051655E+005  0.1043930E+01  0.7957747E-01            NaN
         13   -1    0    0    0    0  0.00000000000E+00  0.00000000000E+00  0.74505805969E-08  0.10566000000E+00  0.10566000000E+00 0. -1.
     999900   -1    0    0    0    0 -0.00000000000E+00 -0.00000000000E+00 -0.74505805969E-08  0.93827000000E+00  0.93827000000E+00 0.  1.
     999902    2    1    2    0    0 -0.14341758266E-01 -0.98486621844E-02  0.95768499111E-02  0.10240705380E+01  0.10238779559E+01 0.  0.
     999903    2    3    3    0    0  0.70608566289E-01 -0.35335514195E-01 -0.10457535234E+00  0.13227635627E+00  0.18079322863E-01 0.  0.
         14    1    1    2    0    0  0.14341758266E-01  0.98486621844E-02 -0.95768499111E-02  0.19859462007E-01  0.00000000000E+00 0.  1.
     999901    1    3    3    0    0 -0.84950324555E-01  0.25486852011E-01  0.11415220225E+00  0.89179418172E+00  0.88000000000E+00 0. -1.
        -11    1    4    4    0    0  0.36953581176E-01 -0.22285249470E-01 -0.43147054246E-01  0.61025641470E-01  0.51100000000E-03 0. -1.
         11    1    4    4    0    0  0.33654985113E-01 -0.13050264725E-01 -0.61428298096E-01  0.71250714805E-01  0.51100000000E-03 0.  1.
</event>
<event>
 7    1  0.1051655E+005  0.1043930E+01  0.7957747E-01            NaN
         13   -1    0    0    0    0  0.00000000000E+00  0.00000000000E+00  0.74505805969E-08  0.10566000000E+00  0.10566000000E+00 0. -1.
     999900   -1    0    0    0    0 -0.00000000000E+00 -0.00000000000E+00 -0.74505805969E-08  0.93827000000E+00  0.93827000000E+00 0. -1.
     999903    2    1    2    0    0 -0.75104628887E-01  0.51486143659E-01  0.49345496005E-01  0.10555756750E+00  0.20393474706E-01 0.  0.
         14    1    1    2    0    0 -0.18599759845E-01 -0.47081558859E-01  0.92025903708E-02  0.51452035144E-01  0.00000000000E+00 0. -1.
     999901    1    1    2    0    0  0.93704388732E-01 -0.44045847998E-02 -0.58548086376E-01  0.88692039736E+00  0.88000000000E+00 0. -1.
        -11    1    3    3    0    0 -0.17848670669E-01  0.95441558746E-02  0.22356930306E-02  0.20369717728E-01  0.51100000000E-03 0.  1.
         11    1    3    3    0    0 -0.57255958219E-01  0.41941987784E-01  0.47109802974E-01  0.85187849768E-01  0.51100000000E-03 0. -1.
</event>
<event>
 8    1  0.1051655E+005  0.1043930E+01  0.7957747E-01            NaN
         13   -1    0    0    0    0  0.00000000000E+00  0.00000000000E+00  0.74505805969E-08  0.10566000000E+00  0.10566000000E+00 0.  1.
     999900   -1    0    0    0    0 -0.00000000000E+00 -0.00000000000E+00 -0.74505805969E-08  0.93827000000E+00  0.93827000000E+00 0. -1.
     999902    2    1    2    0    0 -0.18295641950E-01  0.14285730112E-01 -0.29866078241E-02  0.10205263160E+01  0.10202579229E+01 0.  0.
     999903    2    3    3    0    0 -0.12303692724E+00 -0.37296042174E-01  0.24445444689E-01  0.13239122852E+00  0.20019425464E-01 0.  0.
         14    1    1    2    0    0  0.18295641950E-01 -0.14285730112E-01  0.29866078241E-02  0.23403684016E-01  0.00000000000E+00 0.  1.
     999901    1    3    3    0    0  0.10474128529E+00  0.51581772286E-01 -0.27432052513E-01  0.88813508746E+00  0.88000000000E+00 0. -1.
        -11    1    4    4    0    0 -0.43461796640E-01 -0.42569516399E-02  0.41438259741E-02  0.43868916320E-01  0.51100000000E-03 0. -1.
         11    1    4    4    0    0 -0.79575130605E-01 -0.33039090534E-01  0.20301618715E-01  0.88522312201E-01  0.51100000000E-03 0.  1.
</event>
<event>
 8    1  0.1051655E+005  0.1043930E+01  0.7957747E-01            NaN
         13   -1    0    0    0    0  0.00000000000E+00  0.00000000000E+00  0.74505805969E-08  0.10566000000E+00  0.10566000000E+00 0.  1.
     999900   -1    0    0    0    0 -0.00000000000E+00 -0.00000000000E+00 -0.74505805969E-08  0.93827000000E+00  0.93827000000E+00 0. -1.
     999902    2    1    2    0    0  0.14228789741E-01 -0.65900588430E-02  0.17577149681E-01  0.10203748833E+01  0.10201029648E+01 0.  0.
     999903    2    3    3    0    0 -0.55755669316E-01  0.22997212370E-01  0.11558911136E+00  0.13167944852E+00  0.18468028025E-01 0.  0.
         14    1    1    2    0    0 -0.14228789741E-01  0.65900588430E-02 -0.17577149681E-01  0.23555116726E-01  0.00000000000E+00 0. -1.
     999901    1    3    3    0    0  0.69984459058E-01 -0.29587271213E-01 -0.98011961679E-01  0.88869543476E+00  0.88000000000E+00 0.  1.
        -11    1    4    4    0    0 -0.14878284877E-01  0.14914457182E-01  0.45392100462E-01  0.50045062686E-01  0.51100000000E-03 0. -1.
         11    1    4    4    0    0 -0.40877384439E-01  0.80827551877E-02  0.70197010897E-01  0.81634385830E-01  0.51100000000E-03 0.  1.
</event>
<event>
 8    1  0.1051655E+005  0.1043930E+01  0.7957747E-01            NaN
         13   -1    0    0    0    0  0.00000000000E+00  0.00000000000E+00  0.74505805969E-08  0.10566000000E+00  0.10566000000E+00 0.  1.
     999900   -1    0    0    0    0 -0.00000000000E+00 -0.00000000000E+00 -0.74505805969E-08  0.93827000000E+00  0.93827000000E+00 0.  1.
     999902    2    1    2    0    0 -0.77976022142E-02 -0.20371950870E-01 -0.92496263577E-02  0.10202366556E+01  0.10199614987E+01 0.  0.
     999903    2    3    3    0    0  0.12248713503E+00 -0.33351815648E-01  0.19682768677E-01  0.13007954970E+00  0.20441037475E-01 0.  0.
         14    1    1    2    0    0  0.77976022142E-02  0.20371950870E-01  0.92496263577E-02  0.23693344431E-01  0.00000000000E+00 0.  1.
     999901    1    3    3    0    0 -0.13028473724E+00  0.12979864778E-01 -0.28932395034E-01  0.89015710587E+00  0.88000000000E+00 0.  1.
        -11    1    4    4    0    0  0.61414145562E-01 -0.19631093788E-01  0.56095786166E-04  0.64477448663E-01  0.51100000000E-03 0. -1.
         11    1    4    4    0    0  0.61072989466E-01 -0.13720721860E-01  0.19626672890E-01  0.65602101037E-01  0.51100000000E-03 0.  1.
</event>
<event>
 8    1  0.1051655E+005  0.1043930E+01  0.7957747E-01            NaN
         13   -1    0    0    0    0  0.00000000000E+00  0.00000000000E+00  0.74505805969E-08  0.10566000000E+00  0.10566000000E+00 0.  1.
     999900   -1    0    0    0    0 -0.00000000000E+00 -0.00000000000E+00 -0.74505805969E-08  0.93827000000E+00  0.93827000000E+00 0. -1.
     999902    2    1    2    0    0  0.56411048857E-02 -0.13805651376E-01 -0.16877323153E-01  0.10214075199E+01  0.10211591744E+01 0.  0.
     999903    2    3    3    0    0 -0.31829150154E-01  0.41529405783E-01  0.11606283963E+00  0.12891714153E+00  0.20279553565E-01 0.  0.
         14    1    1    2    0    0 -0.56411048857E-02  0.13805651376E-01  0.16877323153E-01  0.22522480127E-01  0.00000000000E+00 0.  1.
     999901    1    3    3    0    0  0.37470255040E-01 -0.55335057159E-01 -0.13294016278E+00  0.89249037835E+00  0.88000000000E+00 0. -1.
        -11    1    4    4    0    0 -0.31707324972E-01  0.36231200889E-01  0.87597657632E-01  0.99958316905E-01  0.51100000000E-03 0. -1.
         11    1    4    4    0    0 -0.12182518178E-03  0.52982048940E-02  0.28465181994E-01  0.28958824621E-01  0.51100000000E-03 0.  1.
</event>
<event>
 8    1  0.1304597E+005  0.1043930E+01  0.7957747E-01            NaN
         13   -1    0    0    0    0  0.00000000000E+00  0.00000000000E+00  0.74505805969E-08  0.10566000000E+00  0.10566000000E+00 0.  1.
     999900   -1    0    0    0    0 -0.00000000000E+00 -0.00000000000E+00 -0.74505805969E-08  0.93827000000E+00  0.93827000000E+00 0.  1.
     999902    2    1    2    0    0  0.26285700820E-02 -0.90371176874E-02 -0.20065728475E-01  0.10217666894E+01  0.10215262871E+01 0.  0.
     999903    2    3    3    0    0 -0.75775321040E-01 -0.50082030369E-01  0.91407685937E-01  0.13033066977E+00  0.19509212955E-01 0.  0.
         14    1    1    2    0    0 -0.26285700820E-02  0.90371176874E-02  0.20065728475E-01  0.22163310583E-01  0.00000000000E+00 0.  1.
     999901    1    3    3    0    0  0.78403891122E-01  0.41044912681E-01 -0.11147341441E+00  0.89143601965E+00  0.88000000000E+00 0. -1.
        -11    1    4    4    0    0 -0.25116300419E-01 -0.25833961122E-01  0.43679005921E-01  0.56624542146E-01  0.51100000000E-03 0.  1.
         11    1    4    4    0    0 -0.50659020621E-01 -0.24248069247E-01  0.47728680017E-01  0.73706127626E-01  0.51100000000E-03 0. -1.
</event>
<event>
 8    1  0.1051655E+005  0.1043930E+01  0.7957747E-01            NaN
         13   -1    0    0    0    0  0.00000000000E+00  0.00000000000E+00  0.74505805969E-08  0.10566000000E+00  0.10566000000E+00 0. -1.
     999900   -1    0    0    0    0 -0.00000000000E+00 -0.00000000000E+00 -0.74505805969E-08  0.93827000000E+00  0.93827000000E+00 0. -1.
     999902    2    1    2    0    0  0.18099749867E-01  0.11766327157E-01  0.10574229819E-01  0.10198912451E+01  0.10196079100E+01 0.  0.
     999903    2    3    3    0    0 -0.11825666993E+00 -0.33316272315E-01 -0.27261162618E-01  0.12744683177E+00  0.20122374535E-01 0.  0.
         14    1    1    2    0    0 -0.18099749867E-01 -0.11766327157E-01 -0.10574229819E-01  0.24038754883E-01  0.00000000000E+00 0.  1.
     999901    1    3    3    0    0  0.13635641980E+00  0.45082599472E-01  0.37835392438E-01  0.89244441335E+00  0.88000000000E+00 0.  1.
        -11    1    4    4    0    0 -0.45564702411E-01 -0.10901780860E-01 -0.20286550728E-01  0.51056793800E-01  0.51100000000E-03 0.  1.
         11    1    4    4    0    0 -0.72691967519E-01 -0.22414491455E-01 -0.69746118906E-02  0.76390037969E-01  0.51100000000E-03 0. -1.
</event>
<event>
 8    1  0.1051655E+005  0.1043930E+01  0.7957747E-01            NaN
         13   -1    0    0    0    0  0.00000000000E+00  0.00000000000E+00  0.74505805969E-08  0.10566000000E+00  0.10566000000E+00 0. -1.
     999900   -1    0    0    0    0 -0.00000000000E+00 -0.00000000000E+00 -0.74505805969E-08  0.93827000000E+00  0.93827000000E+00 0.  1.
     999902    2    1    2    0    0  0.12422953813E-01 -0.17453874017E-01  0.10130432659E-01  0.10202320430E+01  0.10199567777E+01 0.  0.
     999903    2    3    3    0    0  0.30490008548E-01  0.11609905227E+00 -0.41491851262E-01  0.12847666019E+00  0.19391955391E-01 0.  0.
         14    1    1    2    0    0 -0.12422953813E-01  0.17453874017E-01 -0.10130432659E-01  0.23697956990E-01  0.00000000000E+00 0.  1.
     999901    1    3    3    0    0 -0.18067054735E-01 -0.13355292629E+00  0.51622283920E-01  0.89175538282E+00  0.88000000000E+00 0. -1.
        -11    1    4    4    0    0  0.14636946725E-01  0.58948708351E-01 -0.10793309279E-01  0.61692358294E-01  0.51100000000E-03 0.  1.
         11    1    4    4    0    0  0.15853061823E-01  0.57150343920E-01 -0.30698541983E-01  0.66784301899E-01  0.51100000000E-03 0. -1.
</event>
<event>
 8    1  0.1051655E+005  0.1043930E+01  0.7957747E-01            NaN
         13   -1    0    0    0    0  0.00000000000E+00  0.00000000000E+00  0.74505805969E-08  0.10566000000E+00  0.10566000000E+00 0.  1.
     999900   -1    0    0    0    0 -0.00000000000E+00 -0.00000000000E+00 -0.74505805969E-08  0.93827000000E+00  0.93827000000E+00 0.  1.
     999902    2    1    2    0    0 -0.61623657053E-02  0.21616188319E-01  0.65119222005E-02  0.10205283018E+01  0.10202599548E+01 0.  0.
     999903    2    3    3    0    0 -0.67599834200E-02 -0.56867612274E-01 -0.11363214175E+00  0.12890357119E+00  0.20597192160E-01 0.  0.
         14    1    1    2    0    0  0.61623657053E-02 -0.21616188319E-01 -0.65119222005E-02  0.23401698214E-01  0.00000000000E+00 0. -1.
     999901    1    3    3    0    0  0.59761771476E-03  0.78483800593E-01  0.12014406396E+00  0.89162473059E+00  0.88000000000E+00 0. -1.
        -11    1    4    4    0    0 -0.93005036334E-02 -0.43956890197E-01 -0.68763308814E-01  0.82142323583E-01  0.51100000000E-03 0.  1.
         11    1    4    4    0    0  0.25405202133E-02 -0.12910722076E-01 -0.44868832941E-01  0.46761247609E-01  0.51100000000E-03 0. -1.
</event>
<event>
 7    1  0.1051655E+005  0.1043930E+01  0.7957747E-01            NaN
         13   -1    0    0    0    0  0.00000000000E+00  0.00000000000E+00  0.74505805969E-08  0.10566000000E+00  0.10566000000E+00 0. -1.
     999900   -1    0    0    0    0 -0.00000000000E+00 -0.00000000000E+00 -0.74505805969E-08  0.93827000000E+00  0.93827000000E+00 0. -1.
     999903    2    1    2    0    0 -0.98515532216E-01 -0.17646369133E-01  0.41334263948E-01  0.10986100334E+00  0.18553011811E-01 0.  0.
         14    1    1    2    0    0  0.24955252331E-01 -0.25946486482E-01 -0.34552522894E-01  0.49898513184E-01  0.00000000000E+00 0. -1.
     999901    1    1    2    0    0  0.73560279885E-01  0.43592855615E-01 -0.67817410543E-02  0.88417048348E+00  0.88000000000E+00 0. -1.
        -11    1    3    3    0    0 -0.27585090499E-01 -0.12162454662E-01  0.74419958517E-02  0.31056512111E-01  0.51100000000E-03 0.  1.
         11    1    3    3    0    0 -0.70930441717E-01 -0.54839144715E-02  0.33892268097E-01  0.78804491229E-01  0.51100000000E-03 0. -1.
</event>
<event>
 8    1  0.1051655E+005  0.1043930E+01  0.7957747E-01            NaN
         13   -1    0    0    0    0  0.00000000000E+00  0.00000000000E+00  0.74505805969E-08  0.10566000000E+00  0.10566000000E+00 0. -1.
     999900   -1    0    0    0    0 -0.00000000000E+00 -0.00000000000E+00 -0.74505805969E-08  0.93827000000E+00  0.93827000000E+00 0. -1.
     999902    2    1    2    0    0  0.16353691387E-01 -0.12984541502E-01 -0.85433077381E-02  0.10213683146E+01  0.10211190942E+01 0.  0.
     999903    2    3    3    0    0  0.34930780988E-01  0.11937332347E+00  0.33554631909E-01  0.13028136645E+00  0.19420898654E-01 0.  0.
         14    1    1    2    0    0 -0.16353691387E-01  0.12984541502E-01  0.85433077381E-02  0.22561685378E-01  0.00000000000E+00 0.  1.
     999901    1    3    3    0    0 -0.18577089602E-01 -0.13235786497E+00 -0.42097939647E-01  0.89108694817E+00  0.88000000000E+00 0. -1.
        -11    1    4    4    0    0  0.20495536156E-01  0.82858002520E-01  0.14299719275E-01  0.86546280545E-01  0.51100000000E-03 0.  1.
         11    1    4    4    0    0  0.14435244832E-01  0.36515320953E-01  0.19254912634E-01  0.43735085906E-01  0.51100000000E-03 0. -1.
</event>
<event>
 8    1  0.1051655E+005  0.1043930E+01  0.7957747E-01            NaN
         13   -1    0    0    0    0  0.00000000000E+00  0.00000000000E+00  0.74505805969E-08  0.10566000000E+00  0.10566000000E+00 0.  1.
     999900   -1    0    0    0    0 -0.00000000000E+00 -0.00000000000E+00 -0.74505805969E-08  0.93827000000E+00  0.93827000000E+00 0.  1.
     999902    2    1    2    0    0  0.15703750560E-01 -0.15687313220E-01  0.74118430908E-02  0.10205283976E+01  0.10202600528E+01 0.  0.
     999903    2    3    3    0    0 -0.72411575042E-01 -0.10381460140E-01  0.10639859528E+00  0.13058972566E+00  0.19539817168E-01 0.  0.
         14    1    1    2    0    0 -0.15703750560E-01  0.15687313220E-01 -0.74118430908E-02  0.23401602417E-01  0.00000000000E+00 0. -1.
     999901    1    3    3    0    0  0.88115325602E-01 -0.53058530799E-02 -0.98986752187E-01  0.88993867193E+00  0.88000000000E+00 0.  1.
        -11    1    4    4    0    0 -0.35538784236E-01 -0.21220642640E-02  0.35675629005E-01  0.50403570981E-01  0.51100000000E-03 0. -1.
         11    1    4    4    0    0 -0.36872790806E-01 -0.82593958760E-02  0.70722966273E-01  0.80186154674E-01  0.51100000000E-03 0.  1.
</event>
<event>
 8    1  0.1051655E+005  0.1043930E+01  0.7957747E-01            NaN
         13   -1    0    0    0    0  0.00000000000E+00  0.00000000000E+00  0.74505805969E-08  0.10566000000E+00  0.10566000000E+00 0.  1.
     999900   -1    0    0    0    0 -0.00000000000E+00 -0.00000000000E+00 -0.74505805969E-08  0.93827000000E+00  0.93827000000E+00 0.  1.
     999902    2    1    2    0    0  0.18867018531E-02  0.13305351522E-01 -0.20240448702E-01  0.10196345727E+01  0.10193450810E+01 0.  0.
     999903    2    3    3    0    0  0.10486268759E+00  0.53521479726E-01 -0.56418440810E-01  0.13198022686E+00  0.19365117578E-01 0.  0.
         14    1    1    2    0    0 -0.18867018531E-02 -0.13305351522E-01  0.20240448702E-01  0.24295427279E-01  0.00000000000E+00 0.  1.
     999901    1    3    3    0    0 -0.10297598574E+00 -0.40216128204E-01  0.36177992109E-01  0.88765434586E+00  0.88000000000E+00 0. -1.
        -11    1    4    4    0    0  0.54476302765E-01  0.20315722330E-01 -0.35432540787E-01  0.68089075515E-01  0.51100000000E-03 0. -1.
         11    1    4    4    0    0  0.50386384825E-01  0.33205757396E-01 -0.20985900023E-01  0.63891151349E-01  0.51100000000E-03 0.  1.
</event>
<event>
 8    1  0.1051655E+005  0.1043930E+01  0.7957747E-01            NaN
         13   -1    0    0    0    0  0.00000000000E+00  0.00000000000E+00  0.74505805969E-08  0.10566000000E+00  0.10566000000E+00 0.  1.
     999900   -1    0    0    0    0 -0.00000000000E+00 -0.00000000000E+00 -0.74505805969E-08  0.93827000000E+00  0.93827000000E+00 0. -1.
     999902    2    1    2    0    0  0.18380662890E-01  0.82817131605E-02 -0.12458800705E-01  0.10202306908E+01  0.10199553937E+01 0.  0.
     999903    2    3    3    0    0  0.20574273574E-01  0.10006144842E+00  0.79364251459E-01  0.13070283591E+00  0.18680276002E-01 0.  0.
         14    1    1    2    0    0 -0.18380662890E-01 -0.82817131605E-02  0.12458800705E-01  0.23699309192E-01  0.00000000000E+00 0.  1.
     999901    1    3    3    0    0 -0.21936106842E-02 -0.91779735262E-01 -0.91823052164E-01  0.88952785490E+00  0.88000000000E+00 0. -1.
        -11    1    4    4    0    0  0.11124683259E-01  0.32233317847E-01  0.36283050875E-01  0.49794239213E-01  0.51100000000E-03 0. -1.
         11    1    4    4    0    0  0.94495903150E-02  0.67828130576E-01  0.43081200584E-01  0.80908596696E-01  0.51100000000E-03 0.  1.
</event>
<event>
 8    1  0.1051655E+005  0.1043930E+01  0.7957747E-01            NaN
         13   -1    0    0    0    0  0.00000000000E+00  0.00000000000E+00  0.74505805969E-08  0.10566000000E+00  0.10566000000E+00 0. -1.
     999900   -1    0    0    0    0 -0.00000000000E+00 -0.00000000000E+00 -0.74505805969E-08  0.93827000000E+00  0.93827000000E+00 0.  1.
     999902    2    1    2    0    0 -0.23078174845E-02 -0.17724044706E-01 -0.13124693465E-01  0.10217551187E+01  0.10215144626E+01 0.  0.
     999903    2    3    3    0    0 -0.11547411744E-01  0.12731258731E+00  0.85493833954E-02  0.12957197587E+00  0.19338235977E-01 0.  0.
         14    1    1    2    0    0  0.23078174845E-02  0.17724044706E-01  0.13124693465E-01  0.22174881304E-01  0.00000000000E+00 0. -1.
     999901    1    3    3    0    0  0.92395942594E-02 -0.14503663201E+00 -0.21674076861E-01  0.89218314282E+00  0.88000000000E+00 0.  1.
        -11    1    4    4    0    0 -0.60955809168E-02  0.82113463383E-01  0.14654511356E-01  0.83634877889E-01  0.51100000000E-03 0. -1.
         11    1    4    4    0    0 -0.54518308272E-02  0.45199123924E-01 -0.61051279604E-02  0.45937097985E-01  0.51100000000E-03 0.  1.
</event>
<event>
 8    1  0.1051655E+005  0.1043930E+01  0.7957747E-01            NaN
         13   -1    0    0    0    0  0.00000000000E+00  0.00000000000E+00  0.74505805969E-08  0.10566000000E+00  0.10566000000E+00 0.  1.
     999900   -1    0    0    0    0 -0.00000000000E+00 -0.00000000000E+00 -0.74505805969E-08  0.93827000000E+00  0.93827000000E+00 0. -1.
     999902    2    1    2    0    0 -0.12819503768E-01 -0.96425101337E-02  0.18064140815E-01  0.10197715468E+01  0.10194853490E+01 0.  0.
     999903    2    3    3    0    0  0.10865141003E+00 -0.45549160622E-01 -0.46444104628E-01  0.12836491444E+00  0.20991461830E-01 0.  0.
         14    1    1    2    0    0  0.12819503768E-01  0.96425101337E-02 -0.18064140815E-01  0.24158453219E-01  0.00000000000E+00 0.  1.
     999901    1    3    3    0    0 -0.12147091380E+00  0.35906650488E-01  0.64508245443E-01  0.89140663234E+00  0.88000000000E+00 0. -1.
        -11    1    4    4    0    0  0.36724869069E-01 -0.26082558520E-01 -0.20110919030E-01  0.49332809085E-01  0.51100000000E-03 0.  1.
         11    1    4    4    0    0  0.71926540963E-01 -0.19466602102E-01 -0.26333185598E-01  0.79032105357E-01  0.51100000000E-03 0. -1.
</event>
<event>
 8    1  0.1051655E+005  0.1043930E+01  0.7957747E-01            NaN
         13   -1    0    0    0    0  0.00000000000E+00  0.00000000000E+00  0.74505805969E-08  0.10566000000E+00  0.10566000000E+00 0. -1.
     999900   -1    0    0    0    0 -0.00000000000E+00 -0.00000000000E+00 -0.74505805969E-08  0.93827000000E+00  0.93827000000E+00 0.  1.
     999902    2    1    2    0    0  0.92746820184E-03 -0.17688229798E-01 -0.14840896790E-01  0.10208218653E+01  0.10205602848E+01 0.  0.
     999903    2    3    3    0    0 -0.71721498521E-01  0.94381298636E-01  0.45954148304E-01  0.12867081921E+00  0.19813961949E-01 0.  0.
         14    1    1    2    0    0 -0.92746820184E-03  0.17688229798E-01  0.14840896790E-01  0.23108134676E-01  0.00000000000E+00 0. -1.
     999901    1    3    3    0    0  0.72648966723E-01 -0.11206952843E+00 -0.60795045094E-01  0.89215104611E+00  0.88000000000E+00 0.  1.
        -11    1    4    4    0    0 -0.56740139033E-01  0.59867916469E-01  0.29494726489E-01  0.87600290019E-01  0.51100000000E-03 0.  1.
         11    1    4    4    0    0 -0.14981359489E-01  0.34513382167E-01  0.16459421815E-01  0.41070529194E-01  0.51100000000E-03 0. -1.
</event>
<event>
 8    1  0.1051655E+005  0.1043930E+01  0.7957747E-01            NaN
         13   -1    0    0    0    0  0.00000000000E+00  0.00000000000E+00  0.74505805969E-08  0.10566000000E+00  0.10566000000E+00 0. -1.
     999900   -1    0    0    0    0 -0.00000000000E+00 -0.00000000000E+00 -0.74505805969E-08  0.93827000000E+00  0.93827000000E+00 0.  1.
     999902    2    1    2    0    0  0.60548414472E-02  0.17532786661E-01 -0.14691059867E-01  0.10202680695E+01  0.10199936504E+01 0.  0.
     999903    2    3    3    0    0 -0.39970309501E-01  0.29915470923E-02 -0.12449125330E+00  0.13213190619E+00  0.18820028996E-01 0.  0.
         14    1    1    2    0    0 -0.60548414472E-02 -0.17532786661E-01  0.14691059867E-01  0.23661930460E-01  0.00000000000E+00 0.  1.
     999901    1    3    3    0    0  0.46025150949E-01  0.14541239569E-01  0.10980019343E+00  0.88813616335E+00  0.88000000000E+00 0. -1.
        -11    1    4    4    0    0 -0.14947110297E-01  0.50911206078E-02 -0.74841675938E-01  0.76491000735E-01  0.51100000000E-03 0.  1.
         11    1    4    4    0    0 -0.25023199204E-01 -0.20995735155E-02 -0.49649577358E-01  0.55640905458E-01  0.51100000000E-03 0. -1.
</event>
<event>
 8    1  0.1051655E+005  0.1043930E+01  0.7957747E-01            NaN
         13   -1    0    0    0    0  0.00000000000E+00  0.00000000000E+00  0.74505805969E-08  0.10566000000E+00  0.10566000000E+00 0. -1.
     999900   -1    0    0    0    0 -0.00000000000E+00 -0.00000000000E+00 -0.74505805969E-08  0.93827000000E+00  0.93827000000E+00 0.  1.
     999902    2    1    2    0    0 -0.18073188171E-01 -0.44997086066E-02 -0.15506210269E-01  0.10196951065E+01  0.10194070728E+01 0.  0.
     999903    2    3    3    0    0 -0.63944192658E-01 -0.32896047572E-01  0.10633241140E+00  0.12966412337E+00  0.18308289267E-01 0.  0.
         14    1    1    2    0    0  0.18073188171E-01  0.44997086066E-02  0.15506210269E-01  0.24234893544E-01  0.00000000000E+00 0.  1.
     999901    1    3    3    0    0  0.45871004487E-01  0.28396338966E-01 -0.12183862167E+00  0.89003098308E+00  0.88000000000E+00 0.  1.
        -11    1    4    4    0    0 -0.42410029100E-02 -0.76630591954E-02  0.78953720335E-02  0.11802821801E-01  0.51100000000E-03 0.  1.
         11    1    4    4    0    0 -0.59703189748E-01 -0.25232988377E-01  0.98437039364E-01  0.11786130157E+00  0.51100000000E-03 0. -1.
</event>
<event>
 8    1  0.1051655E+005  0.1043930E+01  0.7957747E-01            NaN
         13   -1    0    0    0    0  0.00000000000E+00  0.00000000000E+00  0.74505805969E-08  0.10566000000E+00  0.10566000000E+00 0. -1.
     999900   -1    0    0    0    0 -0.00000000000E+00 -0.00000000000E+00 -0.74505805969E-08  0.93827000000E+00  0.93827000000E+00 0. -1.
     999902    2    1    2    0    0 -0.85148507978E-02 -0.45908684112E-02  0.21164745958E-01  0.10206593054E+01  0.10203939888E+01 0.  0.
     999903    2    3    3    0    0 -0.12933703298E+00  0.12429716655E-01  0.16430234312E-01  0.13222803869E+00  0.18213611964E-01 0.  0.
         14    1    1    2    0    0  0.85148507978E-02  0.45908684112E-02 -0.21164745958E-01  0.23270694626E-01  0.00000000000E+00 0.  1.
     999901    1    3    3    0    0  0.12082218218E+00 -0.17020585066E-01  0.47345116466E-02  0.88843126668E+00  0.88000000000E+00 0.  1.
        -11    1    4    4    0    0 -0.49827747189E-02  0.20167676191E-02  0.41977551132E-02  0.68394198964E-02  0.51100000000E-03 0.  1.
         11    1    4    4    0    0 -0.12435425826E+00  0.10412949036E-01  0.12232479199E-01  0.12538861879E+00  0.51100000000E-03 0. -1.
</event>
<event>
 8    1  0.1051655E+005  0.1043930E+01  0.7957747E-01            NaN
         13   -1    0    0    0    0  0.00000000000E+00  0.00000000000E+00  0.74505805969E-08  0.10566000000E+00  0.10566000000E+00 0.  1.
     999900   -1    0    0    0    0 -0.00000000000E+00 -0.00000000000E+00 -0.74505805969E-08  0.93827000000E+00  0.93827000000E+00 0.  1.
     999902    2    1    2    0    0  0.71219428947E-02  0.22007192308E-01  0.11972485910E-01  0.10178842901E+01  0.10175510056E+01 0.  0.
     999903    2    3    3    0    0  0.79904327293E-01  0.42389906069E-01  0.92123654205E-01  0.13101511134E+00  0.22284211439E-01 0.  0.
         14    1    1    2    0    0 -0.71219428947E-02 -0.22007192308E-01 -0.11972485910E-01  0.26045709872E-01  0.00000000000E+00 0. -1.
     999901    1    3    3    0    0 -0.72782384398E-01 -0.20382713761E-01 -0.80151168295E-01  0.88686917878E+00  0.88000000000E+00 0.  1.
        -11    1    4    4    0    0  0.20685307674E-01  0.16355547865E-02  0.26647084949E-01  0.33776992914E-01  0.51100000000E-03 0.  1.
         11    1    4    4    0    0  0.59219019619E-01  0.40754351283E-01  0.65476569256E-01  0.97238118429E-01  0.51100000000E-03 0. -1.
</event>
<event>
 8    1  0.1051655E+005  0.1043930E+01  0.7957747E-01            NaN
         13   -1    0    0    0    0  0.00000000000E+00  0.00000000000E+00  0.74505805969E-08  0.10566000000E+00  0.10566000000E+00 0.  1.
     999900   -1    0    0    0    0 -0.00000000000E+00 -0.00000000000E+00 -0.74505805969E-08  0.93827000000E+00  0.93827000000E+00 0.  1.
     999902    2    1    2    0    0  0.17307525218E-01  0.88022919940E-02 -0.13337337578E-01  0.10203733587E+01  0.10201014047E+01 0.  0.
     999903    2    3    3    0    0  0.67911899059E-03  0.66545767730E-01 -0.11319701375E+00  0.13268942411E+00  0.19081900928E-01 0.  0.
         14    1    1    2    0    0 -0.17307525218E-01 -0.88022919940E-02  0.13337337578E-01  0.23556641255E-01  0.00000000000E+00 0.  1.
     999901    1    3    3    0    0  0.16628406228E-01 -0.57743475736E-01  0.99859676174E-01  0.88768393464E+00  0.88000000000E+00 0. -1.
        -11    1    4    4    0    0  0.23385596898E-03  0.46270074327E-01 -0.93938135629E-01  0.10471680339E+00  0.51100000000E-03 0. -1.
         11    1    4    4    0    0  0.44526302161E-03  0.20275693403E-01 -0.19258878123E-01  0.27972620715E-01  0.51100000000E-03 0.  1.
</event>
<event>
 8    1  0.1051655E+005  0.1043930E+01  0.7957747E-01            NaN
         13   -1    0    0    0    0  0.00000000000E+00  0.00000000000E+00  0.74505805969E-08  0.10566000000E+00  0.10566000000E+00 0. -1.
     999900   -1    0    0    0    0 -0.00000000000E+00 -0.00000000000E+00 -0.74505805969E-08  0.93827000000E+00  0.93827000000E+00 0.  1.
     999902    2    1    2    0    0  0.94915443913E-02  0.19757610767E-01 -0.10059105922E-01  0.10198128233E+01  0.10195276144E+01 0.  0.
     999903    2    3    3    0    0 -0.27367956962E-01  0.66301838261E-01  0.10684532104E+00  0.13009846862E+00  0.19098431467E-01 0.  0.
         14    1    1    2    0    0 -0.94915443913E-02 -0.19757610767E-01  0.10059105922E-01  0.24117176661E-01  0.00000000000E+00 0.  1.
     999901    1    3    3    0    0  0.36859501353E-01 -0.46544227494E-01 -0.11690442696E+00  0.88971435472E+00  0.88000000000E+00 0.  1.
        -11    1    4    4    0    0 -0.14879409734E-01  0.14318594708E-01  0.32964716781E-01  0.38901833657E-01  0.51100000000E-03 0.  1.
         11    1    4    4    0    0 -0.12488547228E-01  0.51983243553E-01  0.73880604256E-01  0.91196634962E-01  0.51100000000E-03 0. -1.
</event>
<event>
 8    1  0.1051655E+005  0.1043930E+01  0.7957747E-01            NaN
         13   -1    0    0    0    0  0.00000000000E+00  0.00000000000E+00  0.74505805969E-08  0.10566000000E+00  0.10566000000E+00 0.  1.
     999900   -1    0    0    0    0 -0.00000000000E+00 -0.00000000000E+00 -0.74505805969E-08  0.93827000000E+00  0.93827000000E+00 0. -1.
     999902    2    1    2    0    0  0.12632873065E-01 -0.10907251245E-01  0.44746952572E-02  0.10266505177E+01  0.10265050925E+01 0.  0.
     999903    2    3    3    0    0 -0.77441686502E-01 -0.10841616581E+00 -0.22448802449E-01  0.13628750776E+00  0.17862144981E-01 0.  0.
         14    1    1    2    0    0 -0.12632873065E-01  0.10907251245E-01 -0.44746952572E-02  0.17279482320E-01  0.00000000000E+00 0. -1.
     999901    1    3    3    0    0  0.90074559567E-01  0.97508914566E-01  0.26923497706E-01  0.89036300992E+00  0.88000000000E+00 0.  1.
        -11    1    4    4    0    0 -0.45278612441E-01 -0.67491517765E-01 -0.22129377486E-01  0.84233177452E-01  0.51100000000E-03 0. -1.
         11    1    4    4    0    0 -0.32163074061E-01 -0.40924648046E-01 -0.31942496297E-03  0.52054330310E-01  0.51100000000E-03 0.  1.
</event>
<event>
 8    1  0.1051655E+005  0.1043930E+01  0.7957747E-01            NaN
         13   -1    0    0    0    0  0.00000000000E+00  0.00000000000E+00  0.74505805969E-08  0.10566000000E+00  0.10566000000E+00 0.  1.
     999900   -1    0    0    0    0 -0.00000000000E+00 -0.00000000000E+00 -0.74505805969E-08  0.93827000000E+00  0.93827000000E+00 0. -1.
     999902    2    1    2    0    0 -0.18074979699E-01  0.38779747453E-02 -0.15561667795E-01  0.10197657892E+01  0.10194794533E+01 0.  0.
     999903    2    3    3    0    0 -0.89506028246E-01 -0.48586968687E-01  0.78355705721E-01  0.13034157206E+00  0.21846880065E-01 0.  0.
         14    1    1    2    0    0  0.18074979699E-01 -0.38779747453E-02  0.15561667795E-01  0.24164210804E-01  0.00000000000E+00 0.  1.
     999901    1    3    3    0    0  0.71431048547E-01  0.52464943432E-01 -0.93917373516E-01  0.88942421714E+00  0.88000000000E+00 0. -1.
        -11    1    4    4    0    0 -0.61798244005E-01 -0.27313061666E-01  0.40261901772E-01  0.78653087384E-01  0.51100000000E-03 0.  1.
         11    1    4    4    0    0 -0.27707784240E-01 -0.21273907020E-01  0.38093803949E-01  0.51688484672E-01  0.51100000000E-03 0. -1.
</event>
<event>
 8    1  0.1051655E+005  0.1043930E+01  0.7957747E-01            NaN
         13   -1    0    0    0    0  0.00000000000E+00  0.00000000000E+00  0.74505805969E-08  0.10566000000E+00  0.10566000000E+00 0. -1.
     999900   -1    0    0    0    0 -0.00000000000E+00 -0.00000000000E+00 -0.74505805969E-08  0.93827000000E+00  0.93827000000E+00 0. -1.
     999902    2    1    2    0    0  0.21850356525E-01 -0.31556513269E-02  0.11663561797E-02  0.10218221597E+01  0.10215829724E+01 0.  0.
     999903    2    3    3    0    0  0.13104447610E+00 -0.10340437402E-02 -0.24436210895E-01  0.13470134020E+00  0.19328701078E-01 0.  0.
         14    1    1    2    0    0 -0.21850356525E-01  0.31556513269E-02 -0.11663561797E-02  0.22107840290E-01  0.00000000000E+00 0. -1.
     999901    1    3    3    0    0 -0.10919411958E+00 -0.21216075867E-02  0.25602567074E-01  0.88712081951E+00  0.88000000000E+00 0.  1.
        -11    1    4    4    0    0  0.56036139785E-01  0.87736236224E-02 -0.13019338095E-01  0.58196131478E-01  0.51100000000E-03 0.  1.
         11    1    4    4    0    0  0.75008336316E-01 -0.98076673626E-02 -0.11416872800E-01  0.76505208721E-01  0.51100000000E-03 0. -1.
</event>
<event>
 8    1  0.1051655E+005  0.1043930E+01  0.7957747E-01            NaN
         13   -1    0    0    0    0  0.00000000000E+00  0.00000000000E+00  0.74505805969E-08  0.10566000000E+00  0.10566000000E+00 0. -1.
     999900   -1    0    0    0    0 -0.00000000000E+00 -0.00000000000E+00 -0.74505805969E-08  0.93827000000E+00  0.93827000000E+00 0.  1.
     999902    2    1    2    0    0  0.17503093102E-02 -0.24975072347E-01 -0.12926918281E-02  0.10188603196E+01  0.10185518455E+01 0.  0.
     999903    2    3    3    0    0  0.57693595010E-01  0.11009760116E+00  0.14674739749E-02  0.12679423640E+00  0.24991843047E-01 0.  0.
         14    1    1    2    0    0 -0.17503093102E-02  0.24975072347E-01  0.12926918281E-02  0.25069680365E-01  0.00000000000E+00 0. -1.
     999901    1    3    3    0    0 -0.55943285699E-01 -0.13507267350E+00 -0.27601658030E-02  0.89206608323E+00  0.88000000000E+00 0. -1.
        -11    1    4    4    0    0  0.25062358060E-01  0.60086832615E-01  0.11865659836E-01  0.66178578479E-01  0.51100000000E-03 0. -1.
         11    1    4    4    0    0  0.32631236950E-01  0.50010768542E-01 -0.10398185861E-01  0.60615657921E-01  0.51100000000E-03 0.  1.
</event>
<event>
 8    1  0.1051655E+005  0.1043930E+01  0.7957747E-01            NaN
         13   -1    0    0    0    0  0.00000000000E+00  0.00000000000E+00  0.74505805969E-08  0.10566000000E+00  0.10566000000E+00 0.  1.
     999900   -1    0    0    0    0 -0.00000000000E+00 -0.00000000000E+00 -0.74505805969E-08  0.93827000000E+00  0.93827000000E+00 0.  1.
     999902    2    1    2    0    0 -0.15203771765E-01  0.17458062683E-02 -0.19896279618E-01  0.10188289152E+01  0.10185196581E+01 0.  0.
     999903    2    3    3    0    0  0.41960418063E-01  0.11907790199E+00 -0.18552104460E-01  0.12920181799E+00  0.20216472605E-01 0.  0.
         14    1    1    2    0    0  0.15203771765E-01 -0.17458062683E-02  0.19896279618E-01  0.25101084798E-01  0.00000000000E+00 0.  1.
     999901    1    3    3    0    0 -0.57164189828E-01 -0.11733209573E+00 -0.13441751587E-02  0.88962709721E+00  0.88000000000E+00 0. -1.
        -11    1    4    4    0    0  0.39016445548E-01  0.11220123286E+00 -0.12278132394E-01  0.11942534629E+00  0.51100000000E-03 0.  1.
         11    1    4    4    0    0  0.29439725153E-02  0.68766691305E-02 -0.62739720657E-02  0.97764717042E-02  0.51100000000E-03 0. -1.
</event>
<event>
 8    1  0.1051655E+005  0.1043930E+01  0.7957747E-01            NaN
         13   -1    0    0    0    0  0.00000000000E+00  0.00000000000E+00  0.74505805969E-08  0.10566000000E+00  0.10566000000E+00 0. -1.
     999900   -1    0    0    0    0 -0.00000000000E+00 -0.00000000000E+00 -0.74505805969E-08  0.93827000000E+00  0.93827000000E+00 0.  1.
     999902    2    1    2    0    0  0.22045643834E-01  0.72663968764E-02 -0.72153339955E-02  0.10196221416E+01  0.10193323499E+01 0.  0.
     999903    2    3    3    0    0 -0.60324985567E-01 -0.97532405608E-01 -0.54161531674E-01  0.12834684458E+00  0.19691799641E-01 0.  0.
         14    1    1    2    0    0 -0.22045643834E-01 -0.72663968764E-02  0.72153339955E-02  0.24307858406E-01  0.00000000000E+00 0.  1.
     999901    1    3    3    0    0  0.82370629401E-01  0.10479880248E+00  0.46946197678E-01  0.89127529701E+00  0.88000000000E+00 0.  1.
        -11    1    4    4    0    0 -0.54388552925E-01 -0.89493841661E-01 -0.55028614090E-01  0.11830330458E+00  0.51100000000E-03 0.  1.
         11    1    4    4    0    0 -0.59364326419E-02 -0.80385639473E-02  0.86708241681E-03  0.10043540002E-01  0.51100000000E-03 0. -1.
</event>
<event>
 8    1  0.1051655E+005  0.1043930E+01  0.7957747E-01            NaN
         13   -1    0    0    0    0  0.00000000000E+00  0.00000000000E+00  0.74505805969E-08  0.10566000000E+00  0.10566000000E+00 0. -1.
     999900   -1    0    0    0    0 -0.00000000000E+00 -0.00000000000E+00 -0.74505805969E-08  0.93827000000E+00  0.93827000000E+00 0.  1.
     999902    2    1    2    0    0  0.22969403004E-01  0.56014860905E-02  0.96837272148E-03  0.10202676276E+01  0.10199931981E+01 0.  0.
     999903    2    3    3    0    0  0.87652026673E-01  0.45423443580E-01  0.86708033693E-01  0.13284387340E+00  0.19571524864E-01 0.  0.
         14    1    1    2    0    0 -0.22969403004E-01 -0.56014860905E-02 -0.96837272148E-03  0.23662372377E-01  0.00000000000E+00 0. -1.
     999901    1    3    3    0    0 -0.64682623669E-01 -0.39821957489E-01 -0.85739660971E-01  0.88742375423E+00  0.88000000000E+00 0.  1.
        -11    1    4    4    0    0  0.59641434977E-01  0.37494935867E-01  0.52127759628E-01  0.87638663994E-01  0.51100000000E-03 0.  1.
         11    1    4    4    0    0  0.28010591696E-01  0.79285077126E-02  0.34580274065E-01  0.45205209402E-01  0.51100000000E-03 0. -1.
</event>
<event>
 8    1  0.1051655E+005  0.1043930E+01  0.7957747E-01            NaN
         13   -1    0    0    0    0  0.00000000000E+00  0.00000000000E+00  0.74505805969E-08  0.10566000000E+00  0.10566000000E+00 0. -1.
     999900   -1    0    0    0    0 -0.00000000000E+00 -0.00000000000E+00 -0.74505805969E-08  0.93827000000E+00  0.93827000000E+00 0. -1.
     999902    2    1    2    0    0 -0.48057821326E-02 -0.18283813497E-01 -0.13838689305E-01  0.10205013274E+01  0.10202323542E+01 0.  0.
     999903    2    3    3    0    0 -0.11541534987E+00  0.37993750131E-01 -0.45267315540E-01  0.13123792481E+00  0.20249321416E-01 0.  0.
         14    1    1    2    0    0  0.48057821326E-02  0.18283813497E-01  0.13838689305E-01  0.23428672595E-01  0.00000000000E+00 0.  1.
     999901    1    3    3    0    0  0.11060956774E+00 -0.56277563628E-01  0.31428626235E-01  0.88926340259E+00  0.88000000000E+00 0. -1.
        -11    1    4    4    0    0 -0.49248701093E-01  0.11339454976E-01 -0.94509860051E-02  0.51415951376E-01  0.51100000000E-03 0.  1.
         11    1    4    4    0    0 -0.66166648780E-01  0.26654295155E-01 -0.35816329535E-01  0.79821973436E-01  0.51100000000E-03 0. -1.
</event>
<event>
 8    1  0.1051655E+005  0.1043930E+01  0.7957747E-01            NaN
         13   -1    0    0    0    0  0.00000000000E+00  0.00000000000E+00  0.74505805969E-08  0.10566000000E+00  0.10566000000E+00 0. -1.
     999900   -1    0    0    0    0 -0.00000000000E+00 -0.00000000000E+00 -0.74505805969E-08  0.93827000000E+00  0.93827000000E+00 0. -1.
     999902    2    1    2    0    0  0.17486875531E-01 -0.15575878547E-01  0.11044539100E-01  0.10180382899E+01  0.10177089854E+01 0.  0.
     999903    2    3    3    0    0 -0.21069807037E-01  0.11501019086E+00 -0.42149560200E-01  0.12597946252E+00  0.20565961690E-01 0.  0.
         14    1    1    2    0    0 -0.17486875531E-01  0.15575878547E-01 -0.11044539100E-01  0.25891710107E-01  0.00000000000E+00 0.  1.
     999901    1    3    3    0    0  0.38556682569E-01 -0.13058606941E+00  0.53194099299E-01  0.89205882737E+00  0.88000000000E+00 0.  1.
        -11    1    4    4    0    0 -0.12362139754E-01  0.10370313466E+00 -0.37080724555E-01  0.11082600729E+00  0.51100000000E-03 0. -1.
         11    1    4    4    0    0 -0.87076672830E-02  0.11307056202E-01 -0.50688356446E-02  0.15153455225E-01  0.51100000000E-03 0.  1.
</event>
<event>
 8    1  0.1051655E+005  0.1043930E+01  0.7957747E-01            NaN
         13   -1    0    0    0    0  0.00000000000E+00  0.00000000000E+00  0.74505805969E-08  0.10566000000E+00  0.10566000000E+00 0.  1.
     999900   -1    0    0    0    0 -0.00000000000E+00 -0.00000000000E+00 -0.74505805969E-08  0.93827000000E+00  0.93827000000E+00 0. -1.
     999902    2    1    2    0    0 -0.20918674999E-01 -0.10514917256E-01  0.67085246209E-02  0.10195751493E+01  0.10192842226E+01 0.  0.
     999903    2    3    3    0    0 -0.33675837609E-01 -0.43297476410E-01 -0.11636832496E+00  0.13031402216E+00  0.20770744269E-01 0.  0.
         14    1    1    2    0    0  0.20918674999E-01  0.10514917256E-01 -0.67085246209E-02  0.24354850672E-01  0.00000000000E+00 0.  1.
     999901    1    3    3    0    0  0.12757162609E-01  0.32782559154E-01  0.12307684958E+00  0.88926112716E+00  0.88000000000E+00 0.  1.
        -11    1    4    4    0    0 -0.33734137923E-01 -0.31678478031E-01 -0.10046291667E+00  0.11061002115E+00  0.51100000000E-03 0.  1.
         11    1    4    4    0    0  0.58300314141E-04 -0.11618998379E-01 -0.15905408283E-01  0.19704001013E-01  0.51100000000E-03 0. -1.
</event>
<event>
 8    1  0.1051655E+005  0.1043930E+01  0.7957747E-01            NaN
         13   -1    0    0    0    0  0.00000000000E+00  0.00000000000E+00  0.74505805969E-08  0.10566000000E+00  0.10566000000E+00 0. -1.
     999900   -1    0    0    0    0 -0.00000000000E+00 -0.00000000000E+00 -0.74505805969E-08  0.93827000000E+00  0.93827000000E+00 0.  1.
     999902    2    1    2    0    0  0.22575658780E-01  0.51840297746E-02 -0.19883595791E-02  0.10206815999E+01  0.10204167973E+01 0.  0.
     999903    2    3    3    0    0  0.12887338277E+00  0.55244150899E-02  0.29207467007E-01  0.13373599750E+00  0.19833631788E-01 0.  0.
         14    1    1    2    0    0 -0.22575658780E-01 -0.51840297746E-02  0.19883595791E-02  0.23248400115E-01  0.00000000000E+00 0.  1.
     999901    1    3    3    0    0 -0.10629772399E+00 -0.34038531537E-03 -0.31195826586E-01  0.88694560238E+00  0.88000000000E+00 0.  1.
        -11    1    4    4    0    0  0.89079682920E-01 -0.50058814821E-02  0.17317791834E-01  0.90886829593E-01  0.51100000000E-03 0.  1.
         11    1    4    4    0    0  0.39793699853E-01  0.10530296572E-01  0.11889675173E-01  0.42849167910E-01  0.51100000000E-03 0. -1.
</event>
<event>
 8    1  0.1051655E+005  0.1043930E+01  0.7957747E-01            NaN
         13   -1    0    0    0    0  0.00000000000E+00  0.00000000000E+00  0.74505805969E-08  0.10566000000E+00  0.10566000000E+00 0.  1.
     999900   -1    0    0    0    0 -0.00000000000E+00 -0.00000000000E+00 -0.74505805969E-08  0.93827000000E+00  0.93827000000E+00 0.  1.
     999902    2    1    2    0    0  0.23001071979E-01 -0.22444763537E-02  0.51958158274E-02  0.10202427991E+01  0.10199677865E+01 0.  0.
     999903    2    3    3    0    0  0.56283276066E-01  0.65508895307E-01 -0.96586645514E-01  0.13116580919E+00  0.20402619432E-01 0.  0.
         14    1    1    2    0    0 -0.23001071979E-01  0.22444763537E-02 -0.51958158274E-02  0.23687200940E-01  0.00000000000E+00 0. -1.
     999901    1    3    3    0    0 -0.33282204087E-01 -0.67753371660E-01  0.10178246134E+00  0.88907698987E+00  0.88000000000E+00 0. -1.
        -11    1    4    4    0    0  0.34008748807E-02  0.15068678422E-01 -0.13614289468E-01  0.20597111886E-01  0.51100000000E-03 0.  1.
         11    1    4    4    0    0  0.52882401185E-01  0.50440216885E-01 -0.82972356047E-01  0.11056869730E+00  0.51100000000E-03 0. -1.
</event>
<event>
 8    1  0.1051655E+005  0.1043930E+01  0.7957747E-01            NaN
         13   -1    0    0    0    0  0.00000000000E+00  0.00000000000E+00  0.74505805969E-08  0.10566000000E+00  0.10566000000E+00 0.  1.
     999900   -1    0    0    0    0 -0.00000000000E+00 -0.00000000000E+00 -0.74505805969E-08  0.93827000000E+00  0.93827000000E+00 0. -1.
     999902    2    1    2    0    0 -0.22323454948E-02  0.94676588058E-02 -0.36025165558E-01  0.10066146884E+01  0.10059228093E+01 0.  0.
     999903    2    3    3    0    0 -0.27257919585E-01  0.10933903405E+00 -0.39561789262E-01  0.12060505034E+00  0.16805488691E-01 0.  0.
         14    1    1    2    0    0  0.22323454948E-02 -0.94676588058E-02  0.36025165558E-01  0.37315311645E-01  0.00000000000E+00 0.  1.
     999901    1    3    3    0    0  0.25025574090E-01 -0.99871375245E-01  0.35366237043E-02  0.88600963802E+00  0.88000000000E+00 0. -1.
        -11    1    4    4    0    0 -0.21116881897E-01  0.91650148509E-01 -0.26321541025E-01  0.97666560632E-01  0.51100000000E-03 0.  1.
         11    1    4    4    0    0 -0.61410376879E-02  0.17688885542E-01 -0.13240248238E-01  0.22938489706E-01  0.51100000000E-03 0. -1.
</event>
<event>
 8    1  0.1051655E+005  0.1043930E+01  0.7957747E-01            NaN
         13   -1    0    0    0    0  0.00000000000E+00  0.00000000000E+00  0.74505805969E-08  0.10566000000E+00  0.10566000000E+00 0. -1.
     999900   -1    0    0    0    0 -0.00000000000E+00 -0.00000000000E+00 -0.74505805969E-08  0.93827000000E+00  0.93827000000E+00 0. -1.
     999902    2    1    2    0    0  0.19165028276E-01  0.19997939544E-02  0.14213291854E-01  0.10199859997E+01  0.10197049203E+01 0.  0.
     999903    2    3    3    0    0 -0.80409720746E-01  0.98623584780E-01  0.89445792430E-02  0.12909933636E+00  0.19856950562E-01 0.  0.
         14    1    1    2    0    0 -0.19165028276E-01 -0.19997939544E-02 -0.14213291854E-01  0.23944000292E-01  0.00000000000E+00 0. -1.
     999901    1    3    3    0    0  0.99574749022E-01 -0.96623790826E-01  0.52687126106E-02  0.89088666335E+00  0.88000000000E+00 0. -1.
        -11    1    4    4    0    0 -0.29924078810E-01  0.52166942732E-01  0.57249550802E-02  0.60414208910E-01  0.51100000000E-03 0. -1.
         11    1    4    4    0    0 -0.50485641936E-01  0.46456642049E-01  0.32196241628E-02  0.68685127451E-01  0.51100000000E-03 0.  1.
</event>
<event>
 8    1  0.1051655E+005  0.1043930E+01  0.7957747E-01            NaN
         13   -1    0    0    0    0  0.00000000000E+00  0.00000000000E+00  0.74505805969E-08  0.10566000000E+00  0.10566000000E+00 0. -1.
     999900   -1    0    0    0    0 -0.00000000000E+00 -0.00000000000E+00 -0.74505805969E-08  0.93827000000E+00  0.93827000000E+00 0.  1.
     999902    2    1    2    0    0  0.10216012953E-01  0.21818554961E-01 -0.39707605494E-02  0.10195131370E+01  0.10192207088E+01 0.  0.
     999903    2    3    3    0    0  0.11977218971E+00 -0.29922784645E-01 -0.36609930656E-01  0.13061210900E+00  0.21874312017E-01 0.  0.
         14    1    1    2    0    0 -0.10216012953E-01 -0.21818554961E-01  0.39707605494E-02  0.24416863037E-01  0.00000000000E+00 0.  1.
     999901    1    3    3    0    0 -0.10955617676E+00  0.51741339606E-01  0.32639170107E-01  0.88890102796E+00  0.88000000000E+00 0. -1.
        -11    1    4    4    0    0  0.52697558626E-01 -0.13495256190E-01 -0.27495862806E-01  0.60954394568E-01  0.51100000000E-03 0.  1.
         11    1    4    4    0    0  0.67074631082E-01 -0.16427528455E-01 -0.91140678505E-02  0.69657714431E-01  0.51100000000E-03 0. -1.
</event>
<event>
 8    1  0.1051655E+005  0.1043930E+01  0.7957747E-01            NaN
         13   -1    0    0    0    0  0.00000000000E+00  0.00000000000E+00  0.74505805969E-08  0.10566000000E+00  0.10566000000E+00 0. -1.
     999900   -1    0    0    0    0 -0.00000000000E+00 -0.00000000000E+00 -0.74505805969E-08  0.93827000000E+00  0.93827000000E+00 0. -1.
     999902    2    1    2    0    0 -0.12593798478E-01 -0.52715818254E-02  0.17336906498E-01  0.10218627922E+01  0.10216244928E+01 0.  0.
     999903    2    3    3    0    0  0.11138230393E+00  0.28538308724E-01 -0.54783375841E-01  0.12961029550E+00  0.24024107423E-01 0.  0.
         14    1    1    2    0    0  0.12593798478E-01  0.52715818254E-02 -0.17336906498E-01  0.22067207843E-01  0.00000000000E+00 0.  1.
     999901    1    3    3    0    0 -0.12397610241E+00 -0.33809890549E-01  0.72120282339E-01  0.89225249666E+00  0.88000000000E+00 0.  1.
        -11    1    4    4    0    0  0.68131785233E-02 -0.21124798682E-02 -0.87900436430E-02  0.11331723657E-01  0.51100000000E-03 0.  1.
         11    1    4    4    0    0  0.10456912541E+00  0.30650788592E-01 -0.45993332198E-01  0.11827857184E+00  0.51100000000E-03 0. -1.
</event>
<event>
 8    1  0.1051655E+005  0.1043930E+01  0.7957747E-01            NaN
         13   -1    0    0    0    0  0.00000000000E+00  0.00000000000E+00  0.74505805969E-08  0.10566000000E+00  0.10566000000E+00 0.  1.
     999900   -1    0    0    0    0 -0.00000000000E+00 -0.00000000000E+00 -0.74505805969E-08  0.93827000000E+00  0.93827000000E+00 0. -1.
     999902    2    1    2    0    0  0.74743270430E-02 -0.18633396318E-01 -0.73893860898E-02  0.10225367289E+01  0.10223129119E+01 0.  0.
     999903    2    3    3    0    0 -0.63839001667E-01 -0.92405327886E-01  0.68619837310E-01  0.13332061858E+00  0.21249529682E-01 0.  0.
         14    1    1    2    0    0 -0.74743270430E-02  0.18633396318E-01  0.73893860898E-02  0.21393271136E-01  0.00000000000E+00 0.  1.
     999901    1    3    3    0    0  0.71313328710E-01  0.73771931568E-01 -0.76009223400E-01  0.88921611028E+00  0.88000000000E+00 0.  1.
        -11    1    4    4    0    0 -0.20710915660E-01 -0.23044304293E-01  0.92290047497E-02  0.32332918791E-01  0.51100000000E-03 0.  1.
         11    1    4    4    0    0 -0.43128086007E-01 -0.69361023593E-01  0.59390832560E-01  0.10098769979E+00  0.51100000000E-03 0. -1.
</event>
<event>
 8    1  0.1051655E+005  0.1043930E+01  0.7957747E-01            NaN
         13   -1    0    0    0    0  0.00000000000E+00  0.00000000000E+00  0.74505805969E-08  0.10566000000E+00  0.10566000000E+00 0. -1.
     999900   -1    0    0    0    0 -0.00000000000E+00 -0.00000000000E+00 -0.74505805969E-08  0.93827000000E+00  0.93827000000E+00 0. -1.
     999902    2    1    2    0    0  0.51359337310E-02 -0.22610674976E-01 -0.48772708356E-03  0.10207382274E+01  0.10204747280E+01 0.  0.
     999903    2    3    3    0    0  0.94328878658E-01  0.24775737535E-01  0.85149012156E-01  0.13083120720E+00  0.18832843288E-01 0.  0.
         14    1    1    2    0    0 -0.51359337310E-02  0.22610674976E-01  0.48772708356E-03  0.23191772590E-01  0.00000000000E+00 0.  1.
     999901    1    3    3    0    0 -0.89192944927E-01 -0.47386412510E-01 -0.85636739240E-01  0.88990702021E+00  0.88000000000E+00 0. -1.
        -11    1    4    4    0    0  0.76777501226E-01  0.24717512480E-01  0.61782049336E-01  0.10160227782E+00  0.51100000000E-03 0.  1.
         11    1    4    4    0    0  0.17551377432E-01  0.58225054462E-04  0.23366962821E-01  0.29228929375E-01  0.51100000000E-03 0. -1.
</event>
<event>
 8    1  0.1051655E+005  0.1043930E+01  0.7957747E-01            NaN
         13   -1    0    0    0    0  0.00000000000E+00  0.00000000000E+00  0.74505805969E-08  0.10566000000E+00  0.10566000000E+00 0. -1.
     999900   -1    0    0    0    0 -0.00000000000E+00 -0.00000000000E+00 -0.74505805969E-08  0.93827000000E+00  0.93827000000E+00 0. -1.
     999902    2    1    2    0    0  0.20468071004E-01 -0.14843225395E-01  0.55574877401E-02  0.10180427649E+01  0.10177135757E+01 0.  0.
     999903    2    3    3    0    0  0.52319437460E-01  0.11196548533E+00  0.28656424525E-01  0.12808292338E+00  0.17619624071E-01 0.  0.
         14    1    1    2    0    0 -0.20468071004E-01  0.14843225395E-01 -0.55574877401E-02  0.25887235092E-01  0.00000000000E+00 0.  1.
     999901    1    3    3    0    0 -0.31851366457E-01 -0.12680871072E+00 -0.23098936785E-01  0.88995984153E+00  0.88000000000E+00 0. -1.
        -11    1    4    4    0    0  0.46907087778E-01  0.84377001196E-01  0.19320127285E-01  0.98454464875E-01  0.51100000000E-03 0.  1.
         11    1    4    4    0    0  0.54123496822E-02  0.27588484134E-01  0.93362972402E-02  0.29628458500E-01  0.51100000000E-03 0. -1.
</event>
<event>
 8    1  0.1051655E+005  0.1043930E+01  0.7957747E-01            NaN
         13   -1    0    0    0    0  0.00000000000E+00  0.00000000000E+00  0.74505805969E-08  0.10566000000E+00  0.10566000000E+00 0. -1.
     999900   -1    0    0    0    0 -0.00000000000E+00 -0.00000000000E+00 -0.74505805969E-08  0.93827000000E+00  0.93827000000E+00 0.  1.
     999902    2    1    2    0    0  0.30532614202E-02 -0.95664863817E-02  0.22254229526E-01  0.10195150292E+01  0.10192226469E+01 0.  0.
     999903    2    3    3    0    0 -0.19509298244E-01 -0.10017989944E+00  0.82033066616E-01  0.13255766322E+00  0.20627289882E-01 0.  0.
         14    1    1    2    0    0 -0.30532614202E-02  0.95664863817E-02 -0.22254229526E-01  0.24414970792E-01  0.00000000000E+00 0.  1.
     999901    1    3    3    0    0  0.22562559664E-01  0.90613413063E-01 -0.59778837091E-01  0.88695736599E+00  0.88000000000E+00 0. -1.
        -11    1    4    4    0    0 -0.14461566073E-01 -0.27049286638E-01  0.21086436176E-01  0.37224987744E-01  0.51100000000E-03 0. -1.
         11    1    4    4    0    0 -0.50477321708E-02 -0.73130612806E-01  0.60946630440E-01  0.95332675471E-01  0.51100000000E-03 0.  1.
</event>
<event>
 8    1  0.1051655E+005  0.1043930E+01  0.7957747E-01            NaN
         13   -1    0    0    0    0  0.00000000000E+00  0.00000000000E+00  0.74505805969E-08  0.10566000000E+00  0.10566000000E+00 0. -1.
     999900   -1    0    0    0    0 -0.00000000000E+00 -0.00000000000E+00 -0.74505805969E-08  0.93827000000E+00  0.93827000000E+00 0. -1.
     999902    2    1    2    0    0  0.44849627366E-02  0.17008417704E-01  0.10473662531E-01  0.10234580980E+01  0.10232533311E+01 0.  0.
     999903    2    3    3    0    0 -0.67334353288E-01  0.10747764694E+00 -0.37215224883E-01  0.13462913497E+00  0.25586545173E-01 0.  0.
         14    1    1    2    0    0 -0.44849627366E-02 -0.17008417704E-01 -0.10473662531E-01  0.20471901973E-01  0.00000000000E+00 0. -1.
     999901    1    3    3    0    0  0.71819316025E-01 -0.90469229237E-01  0.47688887415E-01  0.88882896306E+00  0.88000000000E+00 0.  1.
        -11    1    4    4    0    0 -0.30773786111E-01  0.45888727352E-01 -0.29371668217E-01  0.62576011573E-01  0.51100000000E-03 0.  1.
         11    1    4    4    0    0 -0.36560567177E-01  0.61588919590E-01 -0.78435566664E-02  0.72053123393E-01  0.51100000000E-03 0. -1.
</event>
<event>
 8    1  0.1051655E+005  0.1043930E+01  0.7957747E-01            NaN
         13   -1    0    0    0    0  0.00000000000E+00  0.00000000000E+00  0.74505805969E-08  0.10566000000E+00  0.10566000000E+00 0. -1.
     999900   -1    0    0    0    0 -0.00000000000E+00 -0.00000000000E+00 -0.74505805969E-08  0.93827000000E+00  0.93827000000E+00 0. -1.
     999902    2    1    2    0    0  0.18836267999E-01  0.15267946347E-01  0.33899335939E-02  0.10194472136E+01  0.10191531850E+01 0.  0.
     999903    2    3    3    0    0  0.26549933183E-01 -0.54052798437E-01  0.11314604247E+00  0.12989043091E+00  0.21045026570E-01 0.  0.
         14    1    1    2    0    0 -0.18836267999E-01 -0.15267946347E-01 -0.33899335939E-02  0.24482786352E-01  0.00000000000E+00 0.  1.
     999901    1    3    3    0    0 -0.77136651837E-02  0.69320744784E-01 -0.10975610888E+00  0.88955678274E+00  0.88000000000E+00 0. -1.
        -11    1    4    4    0    0  0.27887244079E-01 -0.35373719259E-01  0.78783579682E-01  0.90753027195E-01  0.51100000000E-03 0.  1.
         11    1    4    4    0    0 -0.13373108954E-02 -0.18679079178E-01  0.34362462787E-01  0.39137403710E-01  0.51100000000E-03 0. -1.
</event>
<event>
 8    1  0.1051655E+005  0.1043930E+01  0.7957747E-01            NaN
         13   -1    0    0    0    0  0.00000000000E+00  0.00000000000E+00  0.74505805969E-08  0.10566000000E+00  0.10566000000E+00 0. -1.
     999900   -1    0    0    0    0 -0.00000000000E+00 -0.00000000000E+00 -0.74505805969E-08  0.93827000000E+00  0.93827000000E+00 0.  1.
     999902    2    1    2    0    0 -0.14949121376E-01 -0.89377594086E-03  0.18364174466E-01  0.10202336296E+01  0.10199584016E+01 0.  0.
     999903    2    3    3    0    0  0.63779741222E-01 -0.36347631581E-01 -0.10236066523E+00  0.12780453070E+00  0.21616812150E-01 0.  0.
         14    1    1    2    0    0  0.14949121376E-01  0.89377594086E-03 -0.18364174466E-01  0.23696370379E-01  0.00000000000E+00 0.  1.
     999901    1    3    3    0    0 -0.78728862598E-01  0.35453855640E-01  0.12072483970E+00  0.89242909892E+00  0.88000000000E+00 0. -1.
        -11    1    4    4    0    0  0.41890890675E-01 -0.22846099883E-01 -0.48094793414E-01  0.67750728969E-01  0.51100000000E-03 0.  1.
         11    1    4    4    0    0  0.21888850547E-01 -0.13501531699E-01 -0.54265871820E-01  0.60053801727E-01  0.51100000000E-03 0. -1.
</event>
<event>
 8    1  0.1051655E+005  0.1043930E+01  0.7957747E-01            NaN
         13   -1    0    0    0    0  0.00000000000E+00  0.00000000000E+00  0.74505805969E-08  0.10566000000E+00  0.10566000000E+00 0.  1.
     999900   -1    0    0    0    0 -0.00000000000E+00 -0.00000000000E+00 -0.74505805969E-08  0.93827000000E+00  0.93827000000E+00 0. -1.
     999902    2    1    2    0    0  0.21472240941E-01 -0.76427295654E-02  0.80565598028E-02  0.10197561174E+01  0.10194695495E+01 0.  0.
     999903    2    3    3    0    0  0.12524191442E-02  0.86208023492E-01 -0.94272680135E-01  0.12863991933E+00  0.15083061907E-01 0.  0.
         14    1    1    2    0    0 -0.21472240941E-01  0.76427295654E-02 -0.80565598028E-02  0.24173882644E-01  0.00000000000E+00 0. -1.
     999901    1    3    3    0    0  0.20219821797E-01 -0.93850753057E-01  0.10232923994E+00  0.89111619803E+00  0.88000000000E+00 0.  1.
        -11    1    4    4    0    0 -0.28774199941E-02  0.74846956898E-01 -0.75865249124E-01  0.10661211774E+00  0.51100000000E-03 0. -1.
         11    1    4    4    0    0  0.41298391384E-02  0.11361066594E-01 -0.18407431011E-01  0.22027801590E-01  0.51100000000E-03 0.  1.
</event>
<event>
 8    1  0.1051655E+005  0.1043930E+01  0.7957747E-01            NaN
         13   -1    0    0    0    0  0.00000000000E+00  0.00000000000E+00  0.74505805969E-08  0.10566000000E+00  0.10566000000E+00 0.  1.
     999900   -1    0    0    0    0 -0.00000000000E+00 -0.00000000000E+00 -0.74505805969E-08  0.93827000000E+00  0.93827000000E+00 0. -1.
     999902    2    1    2    0    0  0.30563509198E-02 -0.11098513358E-01 -0.20410671778E-01  0.10204968226E+01  0.10202277448E+01 0.  0.
     999903    2    3    3    0    0  0.97249243781E-01 -0.79930401168E-01 -0.36690743419E-01  0.13264820344E+00  0.20076124546E-01 0.  0.
         14    1    1    2    0    0 -0.30563509198E-02  0.11098513358E-01  0.20410671778E-01  0.23433177380E-01  0.00000000000E+00 0.  1.
     999901    1    3    3    0    0 -0.94192892861E-01  0.68831887811E-01  0.16280071641E-01  0.88784861918E+00  0.88000000000E+00 0. -1.
        -11    1    4    4    0    0  0.36281442213E-01 -0.23208514356E-01 -0.20955978643E-01  0.47899815757E-01  0.51100000000E-03 0.  1.
         11    1    4    4    0    0  0.60967801568E-01 -0.56721886813E-01 -0.15734764775E-01  0.84748387685E-01  0.51100000000E-03 0. -1.
</event>
<event>
 8    1  0.1051655E+005  0.1043930E+01  0.7957747E-01            NaN
         13   -1    0    0    0    0  0.00000000000E+00  0.00000000000E+00  0.74505805969E-08  0.10566000000E+00  0.10566000000E+00 0. -1.
     999900   -1    0    0    0    0 -0.00000000000E+00 -0.00000000000E+00 -0.74505805969E-08  0.93827000000E+00  0.93827000000E+00 0. -1.
     999902    2    1    2    0    0 -0.18619775708E-01  0.38771456379E-02  0.13959332566E-01  0.10203378133E+01  0.10200650283E+01 0.  0.
     999903    2    3    3    0    0  0.68033055861E-01  0.43552676458E-01  0.10106922068E+00  0.13091609471E+00  0.19967577922E-01 0.  0.
         14    1    1    2    0    0  0.18619775708E-01 -0.38771456379E-02 -0.13959332566E-01  0.23592186660E-01  0.00000000000E+00 0.  1.
     999901    1    3    3    0    0 -0.86652831569E-01 -0.39675530820E-01 -0.87109888116E-01  0.88942171863E+00  0.88000000000E+00 0. -1.
        -11    1    4    4    0    0  0.46993866799E-01  0.34231119281E-01  0.58243755157E-01  0.82296957293E-01  0.51100000000E-03 0.  1.
         11    1    4    4    0    0  0.21039189063E-01  0.93215571768E-02  0.42825465525E-01  0.48619137415E-01  0.51100000000E-03 0. -1.
</event>
<event>
 8    1  0.1051655E+005  0.1043930E+01  0.7957747E-01            NaN
         13   -1    0    0    0    0  0.00000000000E+00  0.00000000000E+00  0.74505805969E-08  0.10566000000E+00  0.10566000000E+00 0.  1.
     999900   -1    0    0    0    0 -0.00000000000E+00 -0.00000000000E+00 -0.74505805969E-08  0.93827000000E+00  0.93827000000E+00 0.  1.
     999902    2    1    2    0    0 -0.19450827361E-01  0.14865060722E-01 -0.55365099234E-02  0.10188310427E+01  0.10185218387E+01 0.  0.
     999903    2    3    3    0    0  0.40635024083E-01  0.66672141141E-01 -0.10185880703E+00  0.13002720155E+00  0.20868085398E-01 0.  0.
         14    1    1    2    0    0  0.19450827361E-01 -0.14865060722E-01  0.55365099234E-02  0.25098957298E-01  0.00000000000E+00 0.  1.
     999901    1    3    3    0    0 -0.60085851444E-01 -0.51807080418E-01  0.96322297102E-01  0.88880384115E+00  0.88000000000E+00 0. -1.
        -11    1    4    4    0    0  0.11735246422E-02  0.18283167133E-01 -0.25069685854E-01  0.31054816540E-01  0.51100000000E-03 0.  1.
         11    1    4    4    0    0  0.39461499441E-01  0.48388974008E-01 -0.76789121172E-01  0.98972385012E-01  0.51100000000E-03 0. -1.
</event>
<event>
 8    1  0.1051655E+005  0.1043930E+01  0.7957747E-01            NaN
         13   -1    0    0    0    0  0.00000000000E+00  0.00000000000E+00  0.74505805969E-08  0.10566000000E+00  0.10566000000E+00 0.  1.
     999900   -1    0    0    0    0 -0.00000000000E+00 -0.00000000000E+00 -0.74505805969E-08  0.93827000000E+00  0.93827000000E+00 0.  1.
     999902    2    1    2    0    0  0.13022991930E-01  0.10272777287E-01 -0.17588336208E-01  0.10197540234E+01  0.10194674053E+01 0.  0.
     999903    2    3    3    0    0 -0.11833631665E+00 -0.12515837902E-01  0.42709805176E-01  0.12767193373E+00  0.17772595927E-01 0.  0.
         14    1    1    2    0    0 -0.13022991930E-01 -0.10272777287E-01  0.17588336208E-01  0.24175976558E-01  0.00000000000E+00 0. -1.
     999901    1    3    3    0    0  0.13135930858E+00  0.22788615189E-01 -0.60298141383E-01  0.89208208971E+00  0.88000000000E+00 0.  1.
        -11    1    4    4    0    0 -0.91326220757E-01 -0.16483030453E-01  0.36110265590E-01  0.99581028779E-01  0.51100000000E-03 0. -1.
         11    1    4    4    0    0 -0.27010095897E-01  0.39671925506E-02  0.65995395853E-02  0.28090904949E-01  0.51100000000E-03 0.  1.
</event>
<event>
 8    1  0.1051655E+005  0.1043930E+01  0.7957747E-01            NaN
         13   -1    0    0    0    0  0.00000000000E+00  0.00000000000E+00  0.74505805969E-08  0.10566000000E+00  0.10566000000E+00 0. -1.
     999900   -1    0    0    0    0 -0.00000000000E+00 -0.00000000000E+00 -0.74505805969E-08  0.93827000000E+00  0.93827000000E+00 0. -1.
     999902    2    1    2    0    0  0.16239039642E-02  0.16927043110E-01  0.15074941397E-01  0.10212052181E+01  0.10209523406E+01 0.  0.
     999903    2    3    3    0    0 -0.93527578291E-01  0.89710946383E-01 -0.18224845373E-01  0.13246443650E+00  0.20474866207E-01 0.  0.
         14    1    1    2    0    0 -0.16239039642E-02 -0.16927043110E-01 -0.15074941397E-01  0.22724781861E-01  0.00000000000E+00 0.  1.
     999901    1    3    3    0    0  0.95151482255E-01 -0.72783903273E-01  0.33299786770E-01  0.88874078164E+00  0.88000000000E+00 0.  1.
        -11    1    4    4    0    0 -0.49010479807E-01  0.51966577492E-01 -0.19625788131E-01  0.74080935387E-01  0.51100000000E-03 0. -1.
         11    1    4    4    0    0 -0.44517098484E-01  0.37744368891E-01  0.14009427574E-02  0.58383501111E-01  0.51100000000E-03 0.  1.
</event>
<event>
 8    1  0.1051655E+005  0.1043930E+01  0.7957747E-01            NaN
         13   -1    0    0    0    0  0.00000000000E+00  0.00000000000E+00  0.74505805969E-08  0.10566000000E+00  0.10566000000E+00 0. -1.
     999900   -1    0    0    0    0 -0.00000000000E+00 -0.00000000000E+00 -0.74505805969E-08  0.93827000000E+00  0.93827000000E+00 0. -1.
     999902    2    1    2    0    0 -0.32240721819E-02  0.19866777347E-02 -0.24306957198E-01  0.10193298029E+01  0.10190329128E+01 0.  0.
     999903    2    3    3    0    0 -0.66003025512E-01  0.99234825710E-01  0.45240775855E-01  0.12902913096E+00  0.19945897444E-01 0.  0.
         14    1    1    2    0    0  0.32240721819E-02 -0.19866777347E-02  0.24306957198E-01  0.24600197114E-01  0.00000000000E+00 0. -1.
     999901    1    3    3    0    0  0.62778953330E-01 -0.97248147975E-01 -0.69547733053E-01  0.89030067193E+00  0.88000000000E+00 0. -1.
        -11    1    4    4    0    0 -0.61178615920E-01  0.89297853972E-01  0.46671728055E-01  0.11787892556E+00  0.51100000000E-03 0.  1.
         11    1    4    4    0    0 -0.48244095918E-02  0.99369717381E-02 -0.14309522001E-02  0.11150205399E-01  0.51100000000E-03 0. -1.
</event>
<event>
 8    1  0.1051655E+005  0.1043930E+01  0.7957747E-01            NaN
         13   -1    0    0    0    0  0.00000000000E+00  0.00000000000E+00  0.74505805969E-08  0.10566000000E+00  0.10566000000E+00 0. -1.
     999900   -1    0    0    0    0 -0.00000000000E+00 -0.00000000000E+00 -0.74505805969E-08  0.93827000000E+00  0.93827000000E+00 0. -1.
     999902    2    1    2    0    0 -0.60836765307E-02 -0.98900648189E-02 -0.21863710100E-01  0.10191742669E+01  0.10188735643E+01 0.  0.
     999903    2    3    3    0    0  0.55836275902E-01 -0.64199177076E-01  0.93283532363E-01  0.12785925657E+00  0.20172953098E-01 0.  0.
         14    1    1    2    0    0  0.60836765307E-02  0.98900648189E-02  0.21863710100E-01  0.24755733106E-01  0.00000000000E+00 0. -1.
     999901    1    3    3    0    0 -0.61919952433E-01  0.54309112257E-01 -0.11514724246E+00  0.89131501032E+00  0.88000000000E+00 0. -1.
        -11    1    4    4    0    0  0.55054377579E-01 -0.62499356742E-01  0.83698158338E-01  0.11807962108E+00  0.51100000000E-03 0.  1.
         11    1    4    4    0    0  0.78189832270E-03 -0.16998203336E-02  0.95853740242E-02  0.97796354910E-02  0.51100000000E-03 0. -1.
</event>
<event>
 8    1  0.1051655E+005  0.1043930E+01  0.7957747E-01            NaN
         13   -1    0    0    0    0  0.00000000000E+00  0.00000000000E+00  0.74505805969E-08  0.10566000000E+00  0.10566000000E+00 0.  1.
     999900   -1    0    0    0    0 -0.00000000000E+00 -0.00000000000E+00 -0.74505805969E-08  0.93827000000E+00  0.93827000000E+00 0.  1.
     999902    2    1    2    0    0  0.20884409051E-01  0.10043462086E-01 -0.35370760524E-02  0.10204877181E+01  0.10202184287E+01 0.  0.
     999903    2    3    3    0    0  0.54580577877E-01  0.11578007995E+00 -0.30665225345E-01  0.13310302104E+00  0.19798782050E-01 0.  0.
         14    1    1    2    0    0 -0.20884409051E-01 -0.10043462086E-01  0.35370760524E-02  0.23442281866E-01  0.00000000000E+00 0.  1.
     999901    1    3    3    0    0 -0.33696168826E-01 -0.10573661786E+00  0.27128149292E-01  0.88738469709E+00  0.88000000000E+00 0.  1.
        -11    1    4    4    0    0  0.38470805925E-01  0.94512919675E-01 -0.18215619411E-01  0.10365695734E+00  0.51100000000E-03 0. -1.
         11    1    4    4    0    0  0.16109771952E-01  0.21267160273E-01 -0.12449605934E-01  0.29446063698E-01  0.51100000000E-03 0.  1.
</event>
<event>
 8    1  0.1051655E+005  0.1043930E+01  0.7957747E-01            NaN
         13   -1    0    0    0    0  0.00000000000E+00  0.00000000000E+00  0.74505805969E-08  0.10566000000E+00  0.10566000000E+00 0. -1.
     999900   -1    0    0    0    0 -0.00000000000E+00 -0.00000000000E+00 -0.74505805969E-08  0.93827000000E+00  0.93827000000E+00 0. -1.
     999902    2    1    2    0    0  0.33212725418E-02 -0.18974967734E-01 -0.14190505510E-02  0.10246143598E+01  0.10244322781E+01 0.  0.
     999903    2    3    3    0    0  0.45070581311E-01 -0.22833865759E-01 -0.12371847571E+00  0.13516787728E+00  0.20281792136E-01 0.  0.
         14    1    1    2    0    0 -0.33212725418E-02  0.18974967734E-01  0.14190505510E-02  0.19315640198E-01  0.00000000000E+00 0.  1.
     999901    1    3    3    0    0 -0.41749308769E-01  0.38588980248E-02  0.12229942516E+00  0.88944648252E+00  0.88000000000E+00 0.  1.
        -11    1    4    4    0    0  0.34331074235E-01 -0.82602845892E-02 -0.93385977163E-01  0.99840156307E-01  0.51100000000E-03 0.  1.
         11    1    4    4    0    0  0.10739507076E-01 -0.14573581169E-01 -0.30332498543E-01  0.35327720974E-01  0.51100000000E-03 0. -1.
</event>
<event>
 8    1  0.1051655E+005  0.1043930E+01  0.7957747E-01            NaN
         13   -1    0    0    0    0  0.00000000000E+00  0.00000000000E+00  0.74505805969E-08  0.10566000000E+00  0.10566000000E+00 0. -1.
     999900   -1    0    0    0    0 -0.00000000000E+00 -0.00000000000E+00 -0.74505805969E-08  0.93827000000E+00  0.93827000000E+00 0.  1.
     999902    2    1    2    0    0 -0.21633090250E-01 -0.13091104152E-02  0.11514533559E-01  0.10193884262E+01  0.10190929666E+01 0.  0.
     999903    2    3    3    0    0  0.12302859534E+00  0.19001609164E-01  0.17850838909E-01  0.12732358693E+00  0.19888361384E-01 0.  0.
         14    1    1    2    0    0  0.21633090250E-01  0.13091104152E-02 -0.11514533559E-01  0.24541573847E-01  0.00000000000E+00 0.  1.
     999901    1    3    3    0    0 -0.14466168559E+00 -0.20310719579E-01 -0.63363053503E-02  0.89206483922E+00  0.88000000000E+00 0. -1.
        -11    1    4    4    0    0  0.84206260786E-01  0.44159346707E-02  0.80544273047E-02  0.84707318189E-01  0.51100000000E-03 0.  1.
         11    1    4    4    0    0  0.38822334551E-01  0.14585674493E-01  0.97964116043E-02  0.42616268745E-01  0.51100000000E-03 0. -1.
</event>
<event>
 7    1  0.1051655E+005  0.1043930E+01  0.7957747E-01            NaN
         13   -1    0    0    0    0  0.00000000000E+00  0.00000000000E+00  0.74505805969E-08  0.10566000000E+00  0.10566000000E+00 0.  1.
     999900   -1    0    0    0    0 -0.00000000000E+00 -0.00000000000E+00 -0.74505805969E-08  0.93827000000E+00  0.93827000000E+00 0. -1.
     999902    2    1    2    0    0  0.95262365204E-02 -0.17279061835E-01 -0.10229661531E-01  0.10217047636E+01  0.10214630012E+01 0.  0.
         14    1    1    2    0    0 -0.95262365204E-02  0.17279061835E-01  0.10229661531E-01  0.22225236448E-01  0.00000000000E+00 0.  1.
     999901    1    3    3    0    0  0.75897363106E-02  0.10218790759E+00  0.40610015873E-01  0.88687606008E+00  0.88000000000E+00 0. -1.
        -11    1    3    3    0    0  0.17410023230E-01 -0.39972099686E-01 -0.22176839234E-01  0.48917798209E-01  0.51100000000E-03 0.  1.
         11    1    3    3    0    0 -0.15473523020E-01 -0.79494869742E-01 -0.28662838170E-01  0.85910905262E-01  0.51100000000E-03 0. -1.
</event>
<event>
 8    1  0.1051655E+005  0.1043930E+01  0.7957747E-01            NaN
         13   -1    0    0    0    0  0.00000000000E+00  0.00000000000E+00  0.74505805969E-08  0.10566000000E+00  0.10566000000E+00 0.  1.
     999900   -1    0    0    0    0 -0.00000000000E+00 -0.00000000000E+00 -0.74505805969E-08  0.93827000000E+00  0.93827000000E+00 0. -1.
     999902    2    1    2    0    0 -0.55574138562E-03 -0.18628344236E-01 -0.15609423764E-01  0.10196199575E+01  0.10193301131E+01 0.  0.
     999903    2    3    3    0    0 -0.13009118823E-01  0.30635236027E-01 -0.12571404486E+00  0.13130412707E+00  0.18138297954E-01 0.  0.
         14    1    1    2    0    0  0.55574138562E-03  0.18628344236E-01  0.15609423764E-01  0.24310042528E-01  0.00000000000E+00 0.  1.
     999901    1    3    3    0    0  0.12453377437E-01 -0.49263580264E-01  0.11010462110E+00  0.88831583040E+00  0.88000000000E+00 0.  1.
        -11    1    4    4    0    0 -0.10189914413E-01  0.17748217627E-01 -0.43985032872E-01  0.48515748190E-01  0.51100000000E-03 0.  1.
         11    1    4    4    0    0 -0.28192044093E-02  0.12887018400E-01 -0.81729011987E-01  0.82788378883E-01  0.51100000000E-03 0. -1.
</event>
<event>
 8    1  0.1051655E+005  0.1043930E+01  0.7957747E-01            NaN
         13   -1    0    0    0    0  0.00000000000E+00  0.00000000000E+00  0.74505805969E-08  0.10566000000E+00  0.10566000000E+00 0. -1.
     999900   -1    0    0    0    0 -0.00000000000E+00 -0.00000000000E+00 -0.74505805969E-08  0.93827000000E+00  0.93827000000E+00 0. -1.
     999902    2    1    2    0    0  0.20140148559E-01  0.20438064660E-02  0.11134834594E-01  0.10208261633E+01  0.10205646811E+01 0.  0.
     999903    2    3    3    0    0 -0.11558942207E+00 -0.31739236946E-01  0.45531687290E-01  0.12911603448E+00  0.15149988660E-01 0.  0.
         14    1    1    2    0    0 -0.20140148559E-01 -0.20438064660E-02 -0.11134834594E-01  0.23103836700E-01  0.00000000000E+00 0.  1.
     999901    1    3    3    0    0  0.13572957063E+00  0.33783043412E-01 -0.34396852697E-01  0.89171012882E+00  0.88000000000E+00 0. -1.
        -11    1    4    4    0    0 -0.10246226886E+00 -0.27165338685E-01  0.45100168285E-01  0.11519877806E+00  0.51100000000E-03 0. -1.
         11    1    4    4    0    0 -0.13127153211E-01 -0.45738982605E-02  0.43151900540E-03  0.13917256424E-01  0.51100000000E-03 0.  1.
</event>
<event>
 8    1  0.1051655E+005  0.1043930E+01  0.7957747E-01            NaN
         13   -1    0    0    0    0  0.00000000000E+00  0.00000000000E+00  0.74505805969E-08  0.10566000000E+00  0.10566000000E+00 0.  1.
     999900   -1    0    0    0    0 -0.00000000000E+00 -0.00000000000E+00 -0.74505805969E-08  0.93827000000E+00  0.93827000000E+00 0. -1.
     999902    2    1    2    0    0  0.36983900258E-02  0.17711060446E-01 -0.15130357687E-01  0.10203442527E+01  0.10200716184E+01 0.  0.
     999903    2    3    3    0    0 -0.49899474123E-01 -0.11371251431E+00  0.24214405559E-01  0.12810387175E+00  0.20094056126E-01 0.  0.
         14    1    1    2    0    0 -0.36983900258E-02 -0.17711060446E-01  0.15130357687E-01  0.23585747278E-01  0.00000000000E+00 0. -1.
     999901    1    3    3    0    0  0.53597864149E-01  0.13142357476E+00 -0.39344763246E-01  0.89224038097E+00  0.88000000000E+00 0. -1.
        -11    1    4    4    0    0 -0.20009577798E-01 -0.24134189086E-01  0.55328404762E-02  0.31838902796E-01  0.51100000000E-03 0.  1.
         11    1    4    4    0    0 -0.29889896325E-01 -0.89578325227E-01  0.18681565083E-01  0.96264968954E-01  0.51100000000E-03 0. -1.
</event>
<event>
 8    1  0.1051655E+005  0.1043930E+01  0.7957747E-01            NaN
         13   -1    0    0    0    0  0.00000000000E+00  0.00000000000E+00  0.74505805969E-08  0.10566000000E+00  0.10566000000E+00 0.  1.
     999900   -1    0    0    0    0 -0.00000000000E+00 -0.00000000000E+00 -0.74505805969E-08  0.93827000000E+00  0.93827000000E+00 0. -1.
     999902    2    1    2    0    0  0.15702904442E-01  0.11207265623E-01 -0.14165366628E-01  0.10199958900E+01  0.10197150455E+01 0.  0.
     999903    2    3    3    0    0 -0.82105387934E-01  0.97884186822E-01 -0.16778798193E-01  0.13034079909E+00  0.19610891893E-01 0.  0.
         14    1    1    2    0    0 -0.15702904442E-01 -0.11207265623E-01  0.14165366628E-01  0.23934110018E-01  0.00000000000E+00 0.  1.
     999901    1    3    3    0    0  0.97808292376E-01 -0.86676921199E-01  0.26134315652E-02  0.88965509089E+00  0.88000000000E+00 0. -1.
        -11    1    4    4    0    0 -0.34454391494E-01  0.28700233468E-01 -0.95103692671E-03  0.44855034127E-01  0.51100000000E-03 0. -1.
         11    1    4    4    0    0 -0.47650996441E-01  0.69183953354E-01 -0.15827761266E-01  0.85485764962E-01  0.51100000000E-03 0.  1.
</event>
<event>
 8    1  0.1051655E+005  0.1043930E+01  0.7957747E-01            NaN
         13   -1    0    0    0    0  0.00000000000E+00  0.00000000000E+00  0.74505805969E-08  0.10566000000E+00  0.10566000000E+00 0. -1.
     999900   -1    0    0    0    0 -0.00000000000E+00 -0.00000000000E+00 -0.74505805969E-08  0.93827000000E+00  0.93827000000E+00 0.  1.
     999902    2    1    2    0    0 -0.99282358985E-02  0.17971163584E-01 -0.11645085695E-01  0.10203261738E+01  0.10200531165E+01 0.  0.
     999903    2    3    3    0    0  0.55882536937E-01 -0.11268115514E+00  0.12733430907E-01  0.12791629140E+00  0.19507349491E-01 0.  0.
         14    1    1    2    0    0  0.99282358985E-02 -0.17971163584E-01  0.11645085695E-01  0.23603826162E-01  0.00000000000E+00 0. -1.
     999901    1    3    3    0    0 -0.65810772835E-01  0.13065231872E+00 -0.24378516603E-01  0.89240988244E+00  0.88000000000E+00 0.  1.
        -11    1    4    4    0    0  0.18598587334E-01 -0.26640746456E-01 -0.37350363541E-02  0.32708537725E-01  0.51100000000E-03 0.  1.
         11    1    4    4    0    0  0.37283949603E-01 -0.86040408682E-01  0.16468467262E-01  0.95207753671E-01  0.51100000000E-03 0. -1.
</event>
<event>
 8    1  0.1051655E+005  0.1043930E+01  0.7957747E-01            NaN
         13   -1    0    0    0    0  0.00000000000E+00  0.00000000000E+00  0.74505805969E-08  0.10566000000E+00  0.10566000000E+00 0.  1.
     999900   -1    0    0    0    0 -0.00000000000E+00 -0.00000000000E+00 -0.74505805969E-08  0.93827000000E+00  0.93827000000E+00 0. -1.
     999902    2    1    2    0    0  0.11565079562E-01  0.19580794180E-01  0.87706102248E-02  0.10195561991E+01  0.10192648140E+01 0.  0.
     999903    2    3    3    0    0  0.56924477929E-01 -0.19117630997E-01  0.11499331167E+00  0.13116534738E+00  0.19365087716E-01 0.  0.
         14    1    1    2    0    0 -0.11565079562E-01 -0.19580794180E-01 -0.87706102248E-02  0.24373800888E-01  0.00000000000E+00 0. -1.
     999901    1    3    3    0    0 -0.45359398367E-01  0.38698425177E-01 -0.10622270145E+00  0.88839085173E+00  0.88000000000E+00 0. -1.
        -11    1    4    4    0    0  0.34757994194E-01 -0.43332321878E-02  0.78647692588E-01  0.86096548898E-01  0.51100000000E-03 0.  1.
         11    1    4    4    0    0  0.22166483735E-01 -0.14784398809E-01  0.36345619085E-01  0.45068798487E-01  0.51100000000E-03 0. -1.
</event>
<event>
 8    1  0.1051655E+005  0.1043930E+01  0.7957747E-01            NaN
         13   -1    0    0    0    0  0.00000000000E+00  0.00000000000E+00  0.74505805969E-08  0.10566000000E+00  0.10566000000E+00 0. -1.
     999900   -1    0    0    0    0 -0.00000000000E+00 -0.00000000000E+00 -0.74505805969E-08  0.93827000000E+00  0.93827000000E+00 0. -1.
     999902    2    1    2    0    0 -0.27408473783E-01  0.33452194200E-02 -0.25194904074E-01  0.10065508866E+01  0.10058565947E+01 0.  0.
     999903    2    3    3    0    0 -0.80001925219E-02 -0.95765609109E-01  0.62232940752E-01  0.11647040384E+00  0.21386002164E-01 0.  0.
         14    1    1    2    0    0  0.27408473783E-01 -0.33452194200E-02  0.25194904074E-01  0.37379113411E-01  0.00000000000E+00 0. -1.
     999901    1    3    3    0    0 -0.19408281261E-01  0.99110828529E-01 -0.87427844826E-01  0.89008048275E+00  0.88000000000E+00 0. -1.
        -11    1    4    4    0    0  0.57456244527E-02 -0.56031210598E-01  0.33381145418E-01  0.65475726433E-01  0.51100000000E-03 0. -1.
         11    1    4    4    0    0 -0.13745816975E-01 -0.39734398510E-01  0.28851795334E-01  0.50994677411E-01  0.51100000000E-03 0.  1.
</event>
<event>
 8    1  0.1051655E+005  0.1043930E+01  0.7957747E-01            NaN
         13   -1    0    0    0    0  0.00000000000E+00  0.00000000000E+00  0.74505805969E-08  0.10566000000E+00  0.10566000000E+00 0.  1.
     999900   -1    0    0    0    0 -0.00000000000E+00 -0.00000000000E+00 -0.74505805969E-08  0.93827000000E+00  0.93827000000E+00 0.  1.
     999902    2    1    2    0    0  0.80015528129E-02 -0.19624319791E-01  0.92855274012E-02  0.10207921567E+01  0.10205298954E+01 0.  0.
     999903    2    3    3    0    0  0.33818636368E-01 -0.51293731395E-02  0.12654603585E+00  0.13252043466E+00  0.19435940375E-01 0.  0.
         14    1    1    2    0    0 -0.80015528129E-02  0.19624319791E-01 -0.92855274012E-02  0.23137843326E-01  0.00000000000E+00 0. -1.
     999901    1    3    3    0    0 -0.25817083555E-01 -0.14494946652E-01 -0.11726050845E+00  0.88827172201E+00  0.88000000000E+00 0.  1.
        -11    1    4    4    0    0  0.18902833656E-01  0.36256511206E-02  0.41734626431E-01  0.45961969394E-01  0.51100000000E-03 0.  1.
         11    1    4    4    0    0  0.14915802713E-01 -0.87550242602E-02  0.84811409423E-01  0.86558465268E-01  0.51100000000E-03 0. -1.
</event>
<event>
 8    1  0.1051655E+005  0.1043930E+01  0.7957747E-01            NaN
         13   -1    0    0    0    0  0.00000000000E+00  0.00000000000E+00  0.74505805969E-08  0.10566000000E+00  0.10566000000E+00 0. -1.
     999900   -1    0    0    0    0 -0.00000000000E+00 -0.00000000000E+00 -0.74505805969E-08  0.93827000000E+00  0.93827000000E+00 0.  1.
     999902    2    1    2    0    0 -0.13695117103E-01  0.64316863388E-05  0.20158513510E-01  0.10195594862E+01  0.10192681806E+01 0.  0.
     999903    2    3    3    0    0  0.41435698530E-02  0.93628347183E-01 -0.84948693859E-01  0.12819491052E+00  0.20837896427E-01 0.  0.
         14    1    1    2    0    0  0.13695117103E-01 -0.64316863388E-05 -0.20158513510E-01  0.24370513757E-01  0.00000000000E+00 0.  1.
     999901    1    3    3    0    0 -0.17838686956E-01 -0.93621915497E-01  0.10510720737E+00  0.89136457572E+00  0.88000000000E+00 0. -1.
        -11    1    4    4    0    0  0.46753130975E-02  0.21481653480E-01 -0.99874222112E-02  0.24152219613E-01  0.51100000000E-03 0. -1.
         11    1    4    4    0    0 -0.53174324447E-03  0.72146693703E-01 -0.74961271647E-01  0.10404269091E+00  0.51100000000E-03 0.  1.
</event>
<event>
 8    1  0.1051655E+005  0.1043930E+01  0.7957747E-01            NaN
         13   -1    0    0    0    0  0.00000000000E+00  0.00000000000E+00  0.74505805969E-08  0.10566000000E+00  0.10566000000E+00 0. -1.
     999900   -1    0    0    0    0 -0.00000000000E+00 -0.00000000000E+00 -0.74505805969E-08  0.93827000000E+00  0.93827000000E+00 0. -1.
     999902    2    1    2    0    0 -0.79960150945E-03  0.91425874560E-02  0.21602450194E-01  0.10204589088E+01  0.10201889494E+01 0.  0.
     999903    2    3    3    0    0 -0.18666769426E-03  0.12461503348E-01  0.13162339291E+00  0.13360153654E+00  0.19217936734E-01 0.  0.
         14    1    1    2    0    0  0.79960150945E-03 -0.91425874560E-02 -0.21602450194E-01  0.23471091205E-01  0.00000000000E+00 0.  1.
     999901    1    3    3    0    0 -0.61293381518E-03 -0.33189158921E-02 -0.11002094272E+00  0.88685737226E+00  0.88000000000E+00 0. -1.
        -11    1    4    4    0    0 -0.11606141747E-02  0.15894173888E-01  0.66744927076E-01  0.68623015092E-01  0.51100000000E-03 0. -1.
         11    1    4    4    0    0  0.97394648044E-03 -0.34326705394E-02  0.64878465838E-01  0.64978521446E-01  0.51100000000E-03 0.  1.
</event>
<event>
 8    1  0.1051655E+005  0.1043930E+01  0.7957747E-01            NaN
         13   -1    0    0    0    0  0.00000000000E+00  0.00000000000E+00  0.74505805969E-08  0.10566000000E+00  0.10566000000E+00 0.  1.
     999900   -1    0    0    0    0 -0.00000000000E+00 -0.00000000000E+00 -0.74505805969E-08  0.93827000000E+00  0.93827000000E+00 0.  1.
     999902    2    1    2    0    0  0.15713070858E-01 -0.16715242541E-01  0.74483517696E-03  0.10209766842E+01  0.10207186365E+01 0.  0.
     999903    2    3    3    0    0 -0.12629790861E+00 -0.69330443914E-02  0.18029248625E-01  0.12937051513E+00  0.20308804876E-01 0.  0.
         14    1    1    2    0    0 -0.15713070858E-01  0.16715242541E-01 -0.74483517696E-03  0.22953315849E-01  0.00000000000E+00 0.  1.
     999901    1    3    3    0    0  0.14201097947E+00 -0.97821981498E-02 -0.17284413448E-01  0.89160616902E+00  0.88000000000E+00 0.  1.
        -11    1    4    4    0    0 -0.55483657872E-01 -0.12895793877E-01  0.58015473602E-02  0.57259556961E-01  0.51100000000E-03 0. -1.
         11    1    4    4    0    0 -0.70814250736E-01  0.59627494854E-02  0.12227701265E-01  0.72110958169E-01  0.51100000000E-03 0.  1.
</event>
<event>
 8    1  0.1051655E+005  0.1043930E+01  0.7957747E-01            NaN
         13   -1    0    0    0    0  0.00000000000E+00  0.00000000000E+00  0.74505805969E-08  0.10566000000E+00  0.10566000000E+00 0. -1.
     999900   -1    0    0    0    0 -0.00000000000E+00 -0.00000000000E+00 -0.74505805969E-08  0.93827000000E+00  0.93827000000E+00 0. -1.
     999902    2    1    2    0    0  0.97109528261E-02 -0.56937550705E-02  0.21154645809E-01  0.10199666845E+01  0.10196851460E+01 0.  0.
     999903    2    3    3    0    0 -0.10037811055E+00  0.21501663146E-01 -0.73226363788E-01  0.12768479649E+00  0.20080346290E-01 0.  0.
         14    1    1    2    0    0 -0.97109528261E-02  0.56937550705E-02 -0.21154645809E-01  0.23963315524E-01  0.00000000000E+00 0.  1.
     999901    1    3    3    0    0  0.11008906337E+00 -0.27195418217E-01  0.94381009597E-01  0.89228188798E+00  0.88000000000E+00 0.  1.
        -11    1    4    4    0    0 -0.55095618199E-01  0.34077322132E-02 -0.31863535867E-01  0.63739201615E-01  0.51100000000E-03 0. -1.
         11    1    4    4    0    0 -0.45282492349E-01  0.18093930933E-01 -0.41362827921E-01  0.63945594880E-01  0.51100000000E-03 0.  1.
</event>
<event>
 8    1  0.1051655E+005  0.1043930E+01  0.7957747E-01            NaN
         13   -1    0    0    0    0  0.00000000000E+00  0.00000000000E+00  0.74505805969E-08  0.10566000000E+00  0.10566000000E+00 0. -1.
     999900   -1    0    0    0    0 -0.00000000000E+00 -0.00000000000E+00 -0.74505805969E-08  0.93827000000E+00  0.93827000000E+00 0. -1.
     999902    2    1    2    0    0  0.23155358831E-01  0.35358925678E-02  0.35935009569E-02  0.10202321852E+01  0.10199569232E+01 0.  0.
     999903    2    3    3    0    0 -0.10033662869E+00 -0.24037177934E-01  0.73791531774E-01  0.12841476622E+00  0.19998425983E-01 0.  0.
         14    1    1    2    0    0 -0.23155358831E-01 -0.35358925678E-02 -0.35935009569E-02  0.23697814835E-01  0.00000000000E+00 0.  1.
     999901    1    3    3    0    0  0.12349198752E+00  0.27573070501E-01 -0.70198030817E-01  0.89181741894E+00  0.88000000000E+00 0. -1.
        -11    1    4    4    0    0 -0.23780765861E-01 -0.10301800355E-01  0.27999542416E-01  0.38156092725E-01  0.51100000000E-03 0.  1.
         11    1    4    4    0    0 -0.76555862832E-01 -0.13735377578E-01  0.45791989358E-01  0.90258673497E-01  0.51100000000E-03 0. -1.
</event>
<event>
 8    1  0.1051655E+005  0.1043930E+01  0.7957747E-01            NaN
         13   -1    0    0    0    0  0.00000000000E+00  0.00000000000E+00  0.74505805969E-08  0.10566000000E+00  0.10566000000E+00 0. -1.
     999900   -1    0    0    0    0 -0.00000000000E+00 -0.00000000000E+00 -0.74505805969E-08  0.93827000000E+00  0.93827000000E+00 0.  1.
     999902    2    1    2    0    0 -0.13767227154E-01 -0.16259334871E-01 -0.94992890121E-02  0.10206032127E+01  0.10203366007E+01 0.  0.
     999903    2    3    3    0    0  0.40427877781E-01  0.11254029209E+00  0.42189051769E-01  0.12807974641E+00  0.18021506773E-01 0.  0.
         14    1    1    2    0    0  0.13767227154E-01  0.16259334871E-01  0.94992890121E-02  0.23326787299E-01  0.00000000000E+00 0.  1.
     999901    1    3    3    0    0 -0.54195104935E-01 -0.12879962696E+00 -0.51688340781E-01  0.89252346629E+00  0.88000000000E+00 0.  1.
        -11    1    4    4    0    0  0.20645686455E-01  0.42378084678E-01  0.24211653006E-01  0.52996336595E-01  0.51100000000E-03 0. -1.
         11    1    4    4    0    0  0.19782191325E-01  0.70162207411E-01  0.17977398763E-01  0.75083409817E-01  0.51100000000E-03 0.  1.
</event>
<event>
 8    1  0.1051655E+005  0.1043930E+01  0.7957747E-01            NaN
         13   -1    0    0    0    0  0.00000000000E+00  0.00000000000E+00  0.74505805969E-08  0.10566000000E+00  0.10566000000E+00 0. -1.
     999900   -1    0    0    0    0 -0.00000000000E+00 -0.00000000000E+00 -0.74505805969E-08  0.93827000000E+00  0.93827000000E+00 0. -1.
     999902    2    1    2    0    0  0.60451917826E-02  0.22673568873E-01  0.48368520587E-02  0.10199710725E+01  0.10196896383E+01 0.  0.
     999903    2    3    3    0    0 -0.51504792122E-01  0.12051823503E+00  0.21497825073E-02  0.13267585687E+00  0.20515185681E-01 0.  0.
         14    1    1    2    0    0 -0.60451917826E-02 -0.22673568873E-01 -0.48368520587E-02  0.23958927500E-01  0.00000000000E+00 0. -1.
     999901    1    3    3    0    0  0.57549983905E-01 -0.97844666160E-01  0.26870695514E-02  0.88729521563E+00  0.88000000000E+00 0.  1.
        -11    1    4    4    0    0 -0.27612850626E-01  0.69582861148E-01 -0.87308996059E-02  0.75370642920E-01  0.51100000000E-03 0. -1.
         11    1    4    4    0    0 -0.23891941496E-01  0.50935373885E-01  0.10880682113E-01  0.57305213947E-01  0.51100000000E-03 0.  1.
</event>
<event>
 8    1  0.1051655E+005  0.1043930E+01  0.7957747E-01            NaN
         13   -1    0    0    0    0  0.00000000000E+00  0.00000000000E+00  0.74505805969E-08  0.10566000000E+00  0.10566000000E+00 0.  1.
     999900   -1    0    0    0    0 -0.00000000000E+00 -0.00000000000E+00 -0.74505805969E-08  0.93827000000E+00  0.93827000000E+00 0. -1.
     999902    2    1    2    0    0 -0.22668427540E-01  0.78668431316E-02 -0.15202928511E-02  0.10198872024E+01  0.10196037708E+01 0.  0.
     999903    2    3    3    0    0 -0.32568905057E-01  0.12528751262E+00  0.16733092646E-01  0.13184507545E+00  0.18585831633E-01 0.  0.
         14    1    1    2    0    0  0.22668427540E-01 -0.78668431316E-02  0.15202928511E-02  0.24042797640E-01  0.00000000000E+00 0. -1.
     999901    1    3    3    0    0  0.99004775171E-02 -0.11742066949E+00 -0.18253385497E-01  0.88804212691E+00  0.88000000000E+00 0. -1.
        -11    1    4    4    0    0 -0.26036498314E-01  0.70890698986E-01  0.41961229382E-02  0.75639004593E-01  0.51100000000E-03 0.  1.
         11    1    4    4    0    0 -0.65324067426E-02  0.54396813632E-01  0.12536969708E-01  0.56206070861E-01  0.51100000000E-03 0. -1.
</event>
<event>
 8    1  0.1051655E+005  0.1043930E+01  0.7957747E-01            NaN
         13   -1    0    0    0    0  0.00000000000E+00  0.00000000000E+00  0.74505805969E-08  0.10566000000E+00  0.10566000000E+00 0.  1.
     999900   -1    0    0    0    0 -0.00000000000E+00 -0.00000000000E+00 -0.74505805969E-08  0.93827000000E+00  0.93827000000E+00 0.  1.
     999902    2    1    2    0    0  0.28711969261E-02 -0.10767402420E-01  0.17167034677E-01  0.10234632512E+01  0.10232585884E+01 0.  0.
     999903    2    3    3    0    0  0.11696426197E+00 -0.23735898236E-01  0.59781735703E-01  0.13498059965E+00  0.20046818025E-01 0.  0.
         14    1    1    2    0    0 -0.28711969261E-02  0.10767402420E-01 -0.17167034677E-01  0.20466748795E-01  0.00000000000E+00 0. -1.
     999901    1    3    3    0    0 -0.11409306505E+00  0.12968495816E-01 -0.42614701027E-01  0.88848265156E+00  0.88000000000E+00 0.  1.
        -11    1    4    4    0    0  0.47712564446E-01 -0.16717512872E-02  0.17235754193E-01  0.50760377283E-01  0.51100000000E-03 0.  1.
         11    1    4    4    0    0  0.69251697529E-01 -0.22064146949E-01  0.42545981511E-01  0.84220222363E-01  0.51100000000E-03 0. -1.
</event>
<event>
 8    1  0.1051655E+005  0.1043930E+01  0.7957747E-01            NaN
         13   -1    0    0    0    0  0.00000000000E+00  0.00000000000E+00  0.74505805969E-08  0.10566000000E+00  0.10566000000E+00 0. -1.
     999900   -1    0    0    0    0 -0.00000000000E+00 -0.00000000000E+00 -0.74505805969E-08  0.93827000000E+00  0.93827000000E+00 0.  1.
     999902    2    1    2    0    0 -0.83538545296E-02  0.18113166571E-01  0.12076718595E-01  0.10206121780E+01  0.10203457733E+01 0.  0.
     999903    2    3    3    0    0 -0.93669648649E-01  0.92803741592E-01  0.83516053342E-02  0.13332905345E+00  0.17898314177E-01 0.  0.
         14    1    1    2    0    0  0.83538545296E-02 -0.18113166571E-01 -0.12076718595E-01  0.23317821956E-01  0.00000000000E+00 0.  1.
     999901    1    3    3    0    0  0.85315794120E-01 -0.74690575021E-01  0.37251132608E-02  0.88728312460E+00  0.88000000000E+00 0. -1.
        -11    1    4    4    0    0 -0.79969013115E-01  0.75205693840E-01  0.12989412604E-01  0.11054377145E+00  0.51100000000E-03 0.  1.
         11    1    4    4    0    0 -0.13700635535E-01  0.17598047751E-01 -0.46378072694E-02  0.22785282004E-01  0.51100000000E-03 0. -1.
</event>
<event>
 8    1  0.1051655E+005  0.1043930E+01  0.7957747E-01            NaN
         13   -1    0    0    0    0  0.00000000000E+00  0.00000000000E+00  0.74505805969E-08  0.10566000000E+00  0.10566000000E+00 0.  1.
     999900   -1    0    0    0    0 -0.00000000000E+00 -0.00000000000E+00 -0.74505805969E-08  0.93827000000E+00  0.93827000000E+00 0.  1.
     999902    2    1    2    0    0  0.67943687860E-03  0.47048217649E-02 -0.24984576547E-01  0.10184972249E+01  0.10181796360E+01 0.  0.
     999903    2    3    3    0    0  0.68072868189E-01 -0.74418262150E-01  0.74651507166E-01  0.12679677850E+00  0.18236841587E-01 0.  0.
         14    1    1    2    0    0 -0.67943687860E-03 -0.47048217649E-02  0.24984576547E-01  0.25432775066E-01  0.00000000000E+00 0.  1.
     999901    1    3    3    0    0 -0.67393431311E-01  0.79123083915E-01 -0.99636083713E-01  0.89170044643E+00  0.88000000000E+00 0.  1.
        -11    1    4    4    0    0  0.11192650098E-01 -0.41737769641E-02  0.66125101320E-02  0.13663170994E-01  0.51100000000E-03 0. -1.
         11    1    4    4    0    0  0.56880218091E-01 -0.70244485186E-01  0.68038997034E-01  0.11313360751E+00  0.51100000000E-03 0.  1.
</event>
<event>
 8    1  0.1051655E+005  0.1043930E+01  0.7957747E-01            NaN
         13   -1    0    0    0    0  0.00000000000E+00  0.00000000000E+00  0.74505805969E-08  0.10566000000E+00  0.10566000000E+00 0. -1.
     999900   -1    0    0    0    0 -0.00000000000E+00 -0.00000000000E+00 -0.74505805969E-08  0.93827000000E+00  0.93827000000E+00 0.  1.
     999902    2    1    2    0    0 -0.13386566244E-01  0.20853525373E-01  0.10644473050E-01  0.10169601190E+01  0.10166024341E+01 0.  0.
     999903    2    3    3    0    0 -0.80676005280E-01 -0.23785954434E-01  0.96080124477E-01  0.12914268149E+00  0.19288660035E-01 0.  0.
         14    1    1    2    0    0  0.13386566244E-01 -0.20853525373E-01 -0.10644473050E-01  0.26969881031E-01  0.00000000000E+00 0.  1.
     999901    1    3    3    0    0  0.67289439036E-01  0.44639479807E-01 -0.85435651427E-01  0.88781743748E+00  0.88000000000E+00 0. -1.
        -11    1    4    4    0    0 -0.63436541955E-01 -0.26207412917E-01  0.80332655232E-01  0.10566276527E+00  0.51100000000E-03 0.  1.
         11    1    4    4    0    0 -0.17239463325E-01  0.24214584830E-02  0.15747469245E-01  0.23479916217E-01  0.51100000000E-03 0. -1.
</event>
<event>
 8    1  0.1051655E+005  0.1043930E+01  0.7957747E-01            NaN
         13   -1    0    0    0    0  0.00000000000E+00  0.00000000000E+00  0.74505805969E-08  0.10566000000E+00  0.10566000000E+00 0. -1.
     999900   -1    0    0    0    0 -0.00000000000E+00 -0.00000000000E+00 -0.74505805969E-08  0.93827000000E+00  0.93827000000E+00 0. -1.
     999902    2    1    2    0    0 -0.21816964453E-01  0.67694142999E-02 -0.88693907123E-02  0.10194254902E+01  0.10191309333E+01 0.  0.
     999903    2    3    3    0    0 -0.11170330731E+00 -0.18723740097E-01  0.63847681746E-01  0.13149687362E+00  0.19664536629E-01 0.  0.
         14    1    1    2    0    0  0.21816964453E-01 -0.67694142999E-02  0.88693907123E-02  0.24504509779E-01  0.00000000000E+00 0. -1.
     999901    1    3    3    0    0  0.89886342855E-01  0.25493154397E-01 -0.72717072459E-01  0.88792861660E+00  0.88000000000E+00 0. -1.
        -11    1    4    4    0    0 -0.48039396969E-01  0.52223534557E-03  0.21406163455E-01  0.52597921496E-01  0.51100000000E-03 0. -1.
         11    1    4    4    0    0 -0.63663910339E-01 -0.19245975442E-01  0.42441518291E-01  0.78898952124E-01  0.51100000000E-03 0.  1.
</event>
<event>
 8    1  0.1051655E+005  0.1043930E+01  0.7957747E-01            NaN
         13   -1    0    0    0    0  0.00000000000E+00  0.00000000000E+00  0.74505805969E-08  0.10566000000E+00  0.10566000000E+00 0. -1.
     999900   -1    0    0    0    0 -0.00000000000E+00 -0.00000000000E+00 -0.74505805969E-08  0.93827000000E+00  0.93827000000E+00 0.  1.
     999902    2    1    2    0    0  0.83173656171E-02 -0.19277238263E-01 -0.98611760424E-02  0.10207344556E+01  0.10204708696E+01 0.  0.
     999903    2    3    3    0    0 -0.44244810748E-01  0.82555124672E-01  0.85185915234E-01  0.12822867857E+00  0.20322449778E-01 0.  0.
         14    1    1    2    0    0 -0.83173656171E-02  0.19277238263E-01  0.98611760424E-02  0.23195544374E-01  0.00000000000E+00 0.  1.
     999901    1    3    3    0    0  0.52562176365E-01 -0.10183236293E+00 -0.95047091276E-01  0.89250577706E+00  0.88000000000E+00 0.  1.
        -11    1    4    4    0    0 -0.17860402867E-01  0.54221735127E-01  0.49070837284E-01  0.75280799301E-01  0.51100000000E-03 0.  1.
         11    1    4    4    0    0 -0.26384407881E-01  0.28333389545E-01  0.36115077950E-01  0.52947879265E-01  0.51100000000E-03 0. -1.
</event>
<event>
 8    1  0.1051655E+005  0.1043930E+01  0.7957747E-01            NaN
         13   -1    0    0    0    0  0.00000000000E+00  0.00000000000E+00  0.74505805969E-08  0.10566000000E+00  0.10566000000E+00 0.  1.
     999900   -1    0    0    0    0 -0.00000000000E+00 -0.00000000000E+00 -0.74505805969E-08  0.93827000000E+00  0.93827000000E+00 0. -1.
     999902    2    1    2    0    0 -0.13198780068E-02  0.22740468736E-01 -0.51380888058E-02  0.10205789625E+01  0.10203117895E+01 0.  0.
     999903    2    3    3    0    0  0.81859496113E-01 -0.48242150676E-01  0.85093267463E-01  0.12923220718E+00  0.20780206940E-01 0.  0.
         14    1    1    2    0    0  0.13198780068E-02 -0.22740468736E-01  0.51380888058E-02  0.23351037512E-01  0.00000000000E+00 0. -1.
     999901    1    3    3    0    0 -0.83179374120E-01  0.70982619412E-01 -0.90231356268E-01  0.89134675530E+00  0.88000000000E+00 0.  1.
        -11    1    4    4    0    0  0.79132953713E-01 -0.43758959779E-01  0.73622466938E-01  0.11660788860E+00  0.51100000000E-03 0.  1.
         11    1    4    4    0    0  0.27265423999E-02 -0.44831908971E-02  0.11470800525E-01  0.12624318586E-01  0.51100000000E-03 0. -1.
</event>
<event>
 8    1  0.1051655E+005  0.1043930E+01  0.7957747E-01            NaN
         13   -1    0    0    0    0  0.00000000000E+00  0.00000000000E+00  0.74505805969E-08  0.10566000000E+00  0.10566000000E+00 0. -1.
     999900   -1    0    0    0    0 -0.00000000000E+00 -0.00000000000E+00 -0.74505805969E-08  0.93827000000E+00  0.93827000000E+00 0.  1.
     999902    2    1    2    0    0 -0.58896177077E-02 -0.16880862718E-01 -0.15280059332E-01  0.10204112556E+01  0.10201401861E+01 0.  0.
     999903    2    3    3    0    0 -0.45658805112E-01 -0.10773624272E+00 -0.61517602455E-01  0.13363383220E+00  0.19538710701E-01 0.  0.
         14    1    1    2    0    0  0.58896177077E-02  0.16880862718E-01  0.15280059332E-01  0.23518744355E-01  0.00000000000E+00 0. -1.
     999901    1    3    3    0    0  0.39769187405E-01  0.90855380003E-01  0.46237543124E-01  0.88677742345E+00  0.88000000000E+00 0. -1.
        -11    1    4    4    0    0 -0.16206675302E-01 -0.18266849831E-01 -0.11868199676E-01  0.27156019805E-01  0.51100000000E-03 0. -1.
         11    1    4    4    0    0 -0.29452129811E-01 -0.89469392890E-01 -0.49649402779E-01  0.10647781239E+00  0.51100000000E-03 0.  1.
</event>
<event>
 8    1  0.1051655E+005  0.1043930E+01  0.7957747E-01            NaN
         13   -1    0    0    0    0  0.00000000000E+00  0.00000000000E+00  0.74505805969E-08  0.10566000000E+00  0.10566000000E+00 0. -1.
     999900   -1    0    0    0    0 -0.00000000000E+00 -0.00000000000E+00 -0.74505805969E-08  0.93827000000E+00  0.93827000000E+00 0. -1.
     999902    2    1    2    0    0 -0.71636504294E-02  0.94510896749E-02  0.22993774390E-01  0.10180581109E+01  0.10177293169E+01 0.  0.
     999903    2    3    3    0    0  0.56539874242E-02 -0.29620824789E-01  0.12597965646E+00  0.13109869909E+00  0.20165173568E-01 0.  0.
         14    1    1    2    0    0  0.71636504294E-02 -0.94510896749E-02 -0.22993774390E-01  0.25871889073E-01  0.00000000000E+00 0.  1.
     999901    1    3    3    0    0 -0.12817637854E-01  0.39071914464E-01 -0.10298588207E+00  0.88695941184E+00  0.88000000000E+00 0. -1.
        -11    1    4    4    0    0  0.10366846028E-01 -0.12810306304E-01  0.84470751375E-01  0.86064768651E-01  0.51100000000E-03 0. -1.
         11    1    4    4    0    0 -0.47128586040E-02 -0.16810518485E-01  0.41508905090E-01  0.45033930438E-01  0.51100000000E-03 0.  1.
</event>
<event>
 8    1  0.1051655E+005  0.1043930E+01  0.7957747E-01            NaN
         13   -1    0    0    0    0  0.00000000000E+00  0.00000000000E+00  0.74505805969E-08  0.10566000000E+00  0.10566000000E+00 0.  1.
     999900   -1    0    0    0    0 -0.00000000000E+00 -0.00000000000E+00 -0.74505805969E-08  0.93827000000E+00  0.93827000000E+00 0.  1.
     999902    2    1    2    0    0 -0.12140060972E-01 -0.77307463193E-02  0.22033896258E-01  0.10176119814E+01  0.10172715992E+01 0.  0.
     999903    2    3    3    0    0  0.61885130718E-01 -0.72955716906E-01 -0.77576794183E-01  0.12651360554E+00  0.28900300319E-01 0.  0.
         14    1    1    2    0    0  0.12140060972E-01  0.77307463193E-02 -0.22033896258E-01  0.26318018607E-01  0.00000000000E+00 0.  1.
     999901    1    3    3    0    0 -0.74025191690E-01  0.65224970587E-01  0.99610690441E-01  0.89109837585E+00  0.88000000000E+00 0.  1.
        -11    1    4    4    0    0  0.14028403795E-01 -0.37915424025E-01 -0.27630754692E-01  0.48970350396E-01  0.51100000000E-03 0.  1.
         11    1    4    4    0    0  0.47856726924E-01 -0.35040292881E-01 -0.49946039490E-01  0.77543255147E-01  0.51100000000E-03 0. -1.
</event>
<event>
 8    1  0.1051655E+005  0.1043930E+01  0.7957747E-01            NaN
         13   -1    0    0    0    0  0.00000000000E+00  0.00000000000E+00  0.74505805969E-08  0.10566000000E+00  0.10566000000E+00 0. -1.
     999900   -1    0    0    0    0 -0.00000000000E+00 -0.00000000000E+00 -0.74505805969E-08  0.93827000000E+00  0.93827000000E+00 0. -1.
     999902    2    1    2    0    0 -0.16093429147E-01 -0.74215210489E-02  0.16053075547E-01  0.10200181061E+01  0.10197377889E+01 0.  0.
     999903    2    3    3    0    0  0.14617233013E-02  0.92628609070E-01  0.90842368705E-01  0.13102336465E+00  0.18237057859E-01 0.  0.
         14    1    1    2    0    0  0.16093429147E-01  0.74215210489E-02 -0.16053075547E-01  0.23911893921E-01  0.00000000000E+00 0.  1.
     999901    1    3    3    0    0 -0.17555152449E-01 -0.10005013012E+00 -0.74789293158E-01  0.88899474143E+00  0.88000000000E+00 0. -1.
        -11    1    4    4    0    0  0.51942223008E-02  0.55667518535E-01  0.65150146311E-01  0.85852520350E-01  0.51100000000E-03 0.  1.
         11    1    4    4    0    0 -0.37324989995E-02  0.36961090535E-01  0.25692222394E-01  0.45170844301E-01  0.51100000000E-03 0. -1.
</event>
<event>
 8    1  0.1051655E+005  0.1043930E+01  0.7957747E-01            NaN
         13   -1    0    0    0    0  0.00000000000E+00  0.00000000000E+00  0.74505805969E-08  0.10566000000E+00  0.10566000000E+00 0. -1.
     999900   -1    0    0    0    0 -0.00000000000E+00 -0.00000000000E+00 -0.74505805969E-08  0.93827000000E+00  0.93827000000E+00 0.  1.
     999902    2    1    2    0    0  0.21004795148E-02 -0.10551335366E-01 -0.19675015293E-01  0.10215057069E+01  0.10212595461E+01 0.  0.
     999903    2    3    3    0    0  0.11412344074E+00 -0.32104484811E-01 -0.57388542788E-01  0.13334131211E+00  0.20775057219E-01 0.  0.
         14    1    1    2    0    0 -0.21004795148E-02  0.10551335366E-01  0.19675015293E-01  0.22424293054E-01  0.00000000000E+00 0.  1.
     999901    1    3    3    0    0 -0.11202296122E+00  0.21553149446E-01  0.37713527495E-01  0.88816439483E+00  0.88000000000E+00 0.  1.
        -11    1    4    4    0    0  0.38480444676E-01 -0.11386770127E-01 -0.88217451759E-02  0.41091209100E-01  0.51100000000E-03 0. -1.
         11    1    4    4    0    0  0.75642996060E-01 -0.20717714684E-01 -0.48566797612E-01  0.92250103013E-01  0.51100000000E-03 0.  1.
</event>
<event>
 8    1  0.1051655E+005  0.1043930E+01  0.7957747E-01            NaN
         13   -1    0    0    0    0  0.00000000000E+00  0.00000000000E+00  0.74505805969E-08  0.10566000000E+00  0.10566000000E+00 0.  1.
     999900   -1    0    0    0    0 -0.00000000000E+00 -0.00000000000E+00 -0.74505805969E-08  0.93827000000E+00  0.93827000000E+00 0.  1.
     999902    2    1    2    0    0 -0.18765073380E-01 -0.16067130358E-02  0.12689028728E-01  0.10212205096E+01  0.10209679761E+01 0.  0.
     999903    2    3    3    0    0  0.27744997794E-02 -0.11779577856E+00  0.56466046067E-01  0.13224341233E+00  0.20404961422E-01 0.  0.
         14    1    1    2    0    0  0.18765073380E-01  0.16067130358E-02 -0.12689028728E-01  0.22709490435E-01  0.00000000000E+00 0. -1.
     999901    1    3    3    0    0 -0.21539573160E-01  0.11618906553E+00 -0.43777017339E-01  0.88897709723E+00  0.88000000000E+00 0. -1.
        -11    1    4    4    0    0  0.10822038946E-01 -0.87213553758E-01  0.43515217808E-01  0.98067098396E-01  0.51100000000E-03 0. -1.
         11    1    4    4    0    0 -0.80475391665E-02 -0.30582224804E-01  0.12950828259E-01  0.34176313935E-01  0.51100000000E-03 0.  1.
</event>
<event>
 8    1  0.1051655E+005  0.1043930E+01  0.7957747E-01            NaN
         13   -1    0    0    0    0  0.00000000000E+00  0.00000000000E+00  0.74505805969E-08  0.10566000000E+00  0.10566000000E+00 0. -1.
     999900   -1    0    0    0    0 -0.00000000000E+00 -0.00000000000E+00 -0.74505805969E-08  0.93827000000E+00  0.93827000000E+00 0. -1.
     999902    2    1    2    0    0 -0.77719364440E-02  0.13606878082E-01  0.13273471396E-01  0.10233938083E+01  0.10231877402E+01 0.  0.
     999903    2    3    3    0    0 -0.43131730540E-01  0.90580281219E-01 -0.86329185310E-01  0.13373324995E+00  0.19149944688E-01 0.  0.
         14    1    1    2    0    0  0.77719364440E-02 -0.13606878082E-01 -0.13273471396E-01  0.20536191715E-01  0.00000000000E+00 0.  1.
     999901    1    3    3    0    0  0.35359794096E-01 -0.76973403137E-01  0.99602656706E-01  0.88966055833E+00  0.88000000000E+00 0.  1.
        -11    1    4    4    0    0 -0.28009897232E-01  0.37354734249E-01 -0.42601805549E-01  0.63206846708E-01  0.51100000000E-03 0.  1.
         11    1    4    4    0    0 -0.15121833308E-01  0.53225546970E-01 -0.43727379761E-01  0.70526403245E-01  0.51100000000E-03 0. -1.
</event>
<event>
 8    1  0.1051655E+005  0.1043930E+01  0.7957747E-01            NaN
         13   -1    0    0    0    0  0.00000000000E+00  0.00000000000E+00  0.74505805969E-08  0.10566000000E+00  0.10566000000E+00 0.  1.
     999900   -1    0    0    0    0 -0.00000000000E+00 -0.00000000000E+00 -0.74505805969E-08  0.93827000000E+00  0.93827000000E+00 0. -1.
     999902    2    1    2    0    0 -0.16035518598E-01  0.16264240450E-01 -0.22222145574E-02  0.10209821981E+01  0.10207242758E+01 0.  0.
     999903    2    3    3    0    0  0.24898699276E-01 -0.12491036088E+00 -0.65631054723E-03  0.12878920872E+00  0.19070554738E-01 0.  0.
         14    1    1    2    0    0  0.16035518598E-01 -0.16264240450E-01  0.22222145574E-02  0.22947801892E-01  0.00000000000E+00 0.  1.
     999901    1    3    3    0    0 -0.40934217875E-01  0.14117460133E+00 -0.15659040102E-02  0.89219298939E+00  0.88000000000E+00 0.  1.
        -11    1    4    4    0    0  0.19600221957E-02 -0.12018278261E-02 -0.18022506517E-02  0.29656880387E-02  0.51100000000E-03 0. -1.
         11    1    4    4    0    0  0.22938677081E-01 -0.12370853306E+00  0.11459401045E-02  0.12582352068E+00  0.51100000000E-03 0.  1.
</event>
<event>
 8    1  0.1051655E+005  0.1043930E+01  0.7957747E-01            NaN
         13   -1    0    0    0    0  0.00000000000E+00  0.00000000000E+00  0.74505805969E-08  0.10566000000E+00  0.10566000000E+00 0. -1.
     999900   -1    0    0    0    0 -0.00000000000E+00 -0.00000000000E+00 -0.74505805969E-08  0.93827000000E+00  0.93827000000E+00 0. -1.
     999902    2    1    2    0    0  0.21981088096E-01  0.44636772362E-02  0.23263052754E-02  0.10213799591E+01  0.10211309987E+01 0.  0.
     999903    2    3    3    0    0  0.10362016700E+00  0.35792493198E-01 -0.73998054474E-01  0.13375850724E+00  0.19934508134E-01 0.  0.
         14    1    1    2    0    0 -0.21981088096E-01 -0.44636772362E-02 -0.23263052754E-02  0.22550040900E-01  0.00000000000E+00 0. -1.
     999901    1    3    3    0    0 -0.81639078903E-01 -0.31328815961E-01  0.76324359749E-01  0.88762145186E+00  0.88000000000E+00 0. -1.
        -11    1    4    4    0    0  0.48774112184E-01  0.97914210890E-02 -0.42186105522E-01  0.65228173104E-01  0.51100000000E-03 0. -1.
         11    1    4    4    0    0  0.54846054815E-01  0.26001072109E-01 -0.31811948952E-01  0.68530334135E-01  0.51100000000E-03 0.  1.
</event>
<event>
 8    1  0.1051655E+005  0.1043930E+01  0.7957747E-01            NaN
         13   -1    0    0    0    0  0.00000000000E+00  0.00000000000E+00  0.74505805969E-08  0.10566000000E+00  0.10566000000E+00 0. -1.
     999900   -1    0    0    0    0 -0.00000000000E+00 -0.00000000000E+00 -0.74505805969E-08  0.93827000000E+00  0.93827000000E+00 0. -1.
     999902    2    1    2    0    0 -0.20907726053E-02  0.11266174639E-01 -0.20680785961E-01  0.10202869687E+01  0.10200129928E+01 0.  0.
     999903    2    3    3    0    0  0.78730974791E-01 -0.24494793291E-01 -0.10136112969E+00  0.13218769523E+00  0.20023657702E-01 0.  0.
         14    1    1    2    0    0  0.20907726053E-02 -0.11266174639E-01  0.20680785961E-01  0.23643031299E-01  0.00000000000E+00 0. -1.
     999901    1    3    3    0    0 -0.80821747396E-01  0.35760967929E-01  0.80680343729E-01  0.88809927347E+00  0.88000000000E+00 0. -1.
        -11    1    4    4    0    0  0.18638876517E-01 -0.55692599954E-03 -0.13249332302E-01  0.22880642732E-01  0.51100000000E-03 0. -1.
         11    1    4    4    0    0  0.60092098274E-01 -0.23937867291E-01 -0.88111797387E-01  0.10930705250E+00  0.51100000000E-03 0.  1.
</event>
<event>
 8    1  0.1051655E+005  0.1043930E+01  0.7957747E-01            NaN
         13   -1    0    0    0    0  0.00000000000E+00  0.00000000000E+00  0.74505805969E-08  0.10566000000E+00  0.10566000000E+00 0.  1.
     999900   -1    0    0    0    0 -0.00000000000E+00 -0.00000000000E+00 -0.74505805969E-08  0.93827000000E+00  0.93827000000E+00 0. -1.
     999902    2    1    2    0    0  0.20889994585E-01  0.11042317106E-01  0.39435259597E-02  0.10199742901E+01  0.10196929324E+01 0.  0.
     999903    2    3    3    0    0  0.48055235565E-01 -0.43533312641E-01  0.11293449038E+00  0.13115739105E+00  0.15607918920E-01 0.  0.
         14    1    1    2    0    0 -0.20889994585E-01 -0.11042317106E-01 -0.39435259597E-02  0.23955709921E-01  0.00000000000E+00 0. -1.
     999901    1    3    3    0    0 -0.27165240980E-01  0.54575629747E-01 -0.10899096442E+00  0.88881689903E+00  0.88000000000E+00 0. -1.
        -11    1    4    4    0    0  0.15389194076E-01 -0.67897222409E-02  0.21095878407E-01  0.26985641167E-01  0.51100000000E-03 0. -1.
         11    1    4    4    0    0  0.32666041488E-01 -0.36743590400E-01  0.91838611977E-01  0.10417174988E+00  0.51100000000E-03 0.  1.
</event>
<event>
 8    1  0.1051655E+005  0.1043930E+01  0.7957747E-01            NaN
         13   -1    0    0    0    0  0.00000000000E+00  0.00000000000E+00  0.74505805969E-08  0.10566000000E+00  0.10566000000E+00 0.  1.
     999900   -1    0    0    0    0 -0.00000000000E+00 -0.00000000000E+00 -0.74505805969E-08  0.93827000000E+00  0.93827000000E+00 0.  1.
     999902    2    1    2    0    0 -0.47896836438E-02 -0.21033813094E-01  0.11098379267E-02  0.10223292106E+01  0.10221009836E+01 0.  0.
     999903    2    3    3    0    0  0.12133288809E+00 -0.27965051724E-01 -0.40189280087E-01  0.13235136687E+00  0.19949742608E-01 0.  0.
         14    1    1    2    0    0  0.47896836438E-02  0.21033813094E-01 -0.11098379267E-02  0.21600789404E-01  0.00000000000E+00 0. -1.
     999901    1    3    3    0    0 -0.12612257173E+00  0.69312386308E-02  0.41299118014E-01  0.88997784372E+00  0.88000000000E+00 0. -1.
        -11    1    4    4    0    0  0.57696032453E-01 -0.10728179703E-01 -0.88519153198E-02  0.59351019590E-01  0.51100000000E-03 0. -1.
         11    1    4    4    0    0  0.63636855633E-01 -0.17236872022E-01 -0.31337364767E-01  0.73000347283E-01  0.51100000000E-03 0.  1.
</event>
<event>
 8    1  0.1051655E+005  0.1043930E+01  0.7957747E-01            NaN
         13   -1    0    0    0    0  0.00000000000E+00  0.00000000000E+00  0.74505805969E-08  0.10566000000E+00  0.10566000000E+00 0. -1.
     999900   -1    0    0    0    0 -0.00000000000E+00 -0.00000000000E+00 -0.74505805969E-08  0.93827000000E+00  0.93827000000E+00 0. -1.
     999902    2    1    2    0    0 -0.12463882597E-01 -0.55996637930E-02  0.19325588240E-01  0.10202618153E+01  0.10199872494E+01 0.  0.
     999903    2    3    3    0    0  0.66289348083E-01 -0.10656069286E+00  0.31645331198E-01  0.13090981709E+00  0.19659458097E-01 0.  0.
         14    1    1    2    0    0  0.12463882597E-01  0.55996637930E-02 -0.19325588240E-01  0.23668184653E-01  0.00000000000E+00 0.  1.
     999901    1    3    3    0    0 -0.78753230680E-01  0.10096102907E+00 -0.12319742959E-01  0.88935199825E+00  0.88000000000E+00 0. -1.
        -11    1    4    4    0    0  0.25494239508E-01 -0.46027852273E-01  0.37128097681E-02  0.52750028534E-01  0.51100000000E-03 0. -1.
         11    1    4    4    0    0  0.40795108576E-01 -0.60532840586E-01  0.27932521430E-01  0.78159788559E-01  0.51100000000E-03 0.  1.
</event>
<event>
 8    1  0.1051655E+005  0.1043930E+01  0.7957747E-01            NaN
         13   -1    0    0    0    0  0.00000000000E+00  0.00000000000E+00  0.74505805969E-08  0.10566000000E+00  0.10566000000E+00 0.  1.
     999900   -1    0    0    0    0 -0.00000000000E+00 -0.00000000000E+00 -0.74505805969E-08  0.93827000000E+00  0.93827000000E+00 0. -1.
     999902    2    1    2    0    0  0.10273879042E-02 -0.17217161084E-01  0.15625811745E-01  0.10206565784E+01  0.10203911989E+01 0.  0.
     999903    2    3    3    0    0 -0.13786193739E-01  0.11550191352E+00 -0.50027462012E-01  0.12816335861E+00  0.19807785603E-01 0.  0.
         14    1    1    2    0    0 -0.10273879042E-02  0.17217161084E-01 -0.15625811745E-01  0.23273421631E-01  0.00000000000E+00 0.  1.
     999901    1    3    3    0    0  0.14813581644E-01 -0.13271907460E+00  0.65653273757E-01  0.89249321976E+00  0.88000000000E+00 0. -1.
        -11    1    4    4    0    0 -0.22320156383E-02  0.87385907357E-01 -0.40166367084E-01  0.96202270577E-01  0.51100000000E-03 0. -1.
         11    1    4    4    0    0 -0.11554178101E-01  0.28116006160E-01 -0.98610949283E-02  0.31961088031E-01  0.51100000000E-03 0.  1.
</event>
<event>
 8    1  0.1051655E+005  0.1043930E+01  0.7957747E-01            NaN
         13   -1    0    0    0    0  0.00000000000E+00  0.00000000000E+00  0.74505805969E-08  0.10566000000E+00  0.10566000000E+00 0. -1.
     999900   -1    0    0    0    0 -0.00000000000E+00 -0.00000000000E+00 -0.74505805969E-08  0.93827000000E+00  0.93827000000E+00 0. -1.
     999902    2    1    2    0    0  0.15581335961E-01 -0.18019622564E-01 -0.24530020197E-02  0.10199820972E+01  0.10197009251E+01 0.  0.
     999903    2    3    3    0    0 -0.10007079641E-01  0.11484135934E-01  0.12720012249E+00  0.12962533084E+00  0.19769375659E-01 0.  0.
         14    1    1    2    0    0 -0.15581335961E-01  0.18019622564E-01  0.24530020197E-02  0.23947902760E-01  0.00000000000E+00 0.  1.
     999901    1    3    3    0    0  0.25588415602E-01 -0.29503758498E-01 -0.12965312451E+00  0.89035676640E+00  0.88000000000E+00 0. -1.
        -11    1    4    4    0    0 -0.95540398126E-02 -0.68993272449E-03  0.26368184791E-01  0.28058830590E-01  0.51100000000E-03 0.  1.
         11    1    4    4    0    0 -0.45303982852E-03  0.12174068659E-01  0.10083193770E+00  0.10156650025E+00  0.51100000000E-03 0. -1.
</event>
<event>
 8    1  0.1051655E+005  0.1043930E+01  0.7957747E-01            NaN
         13   -1    0    0    0    0  0.00000000000E+00  0.00000000000E+00  0.74505805969E-08  0.10566000000E+00  0.10566000000E+00 0.  1.
     999900   -1    0    0    0    0 -0.00000000000E+00 -0.00000000000E+00 -0.74505805969E-08  0.93827000000E+00  0.93827000000E+00 0. -1.
     999902    2    1    2    0    0 -0.10701241200E-01  0.12055518515E-01 -0.17344914197E-01  0.10202509346E+01  0.10199761132E+01 0.  0.
     999903    2    3    3    0    0  0.90815222374E-01  0.74801494323E-01  0.50583514561E-01  0.12960121597E+00  0.19877501543E-01 0.  0.
         14    1    1    2    0    0  0.10701241200E-01 -0.12055518515E-01  0.17344914197E-01  0.23679065404E-01  0.00000000000E+00 0.  1.
     999901    1    3    3    0    0 -0.10151646357E+00 -0.62745975809E-01 -0.67928428758E-01  0.89064971863E+00  0.88000000000E+00 0.  1.
        -11    1    4    4    0    0  0.79226761379E-01  0.60078582300E-01  0.48834598685E-01  0.11077632834E+00  0.51100000000E-03 0. -1.
         11    1    4    4    0    0  0.11588460995E-01  0.14722912024E-01  0.17489158754E-02  0.18824887634E-01  0.51100000000E-03 0.  1.
</event>
<event>
 8    1  0.1051655E+005  0.1043930E+01  0.7957747E-01            NaN
         13   -1    0    0    0    0  0.00000000000E+00  0.00000000000E+00  0.74505805969E-08  0.10566000000E+00  0.10566000000E+00 0.  1.
     999900   -1    0    0    0    0 -0.00000000000E+00 -0.00000000000E+00 -0.74505805969E-08  0.93827000000E+00  0.93827000000E+00 0. -1.
     999902    2    1    2    0    0 -0.22423074475E-01 -0.11523493742E-02 -0.94304741269E-02  0.10195772585E+01  0.10192863827E+01 0.  0.
     999903    2    3    3    0    0 -0.85125701719E-01  0.97344086590E-01 -0.15915033156E-01  0.13184125217E+00  0.20163610968E-01 0.  0.
         14    1    1    2    0    0  0.22423074475E-01  0.11523493742E-02  0.94304741269E-02  0.24352741534E-01  0.00000000000E+00 0.  1.
     999901    1    3    3    0    0  0.62702627245E-01 -0.98496435964E-01  0.64845590287E-02  0.88773600629E+00  0.88000000000E+00 0.  1.
        -11    1    4    4    0    0 -0.34974989656E-01  0.47203056006E-01  0.16714135989E-02  0.58774425919E-01  0.51100000000E-03 0. -1.
         11    1    4    4    0    0 -0.50150712064E-01  0.50141030584E-01 -0.17586446754E-01  0.73066826255E-01  0.51100000000E-03 0.  1.
</event>
<event>
 8    1  0.1051655E+005  0.1043930E+01  0.7957747E-01            NaN
         13   -1    0    0    0    0  0.00000000000E+00  0.00000000000E+00  0.74505805969E-08  0.10566000000E+00  0.10566000000E+00 0.  1.
     999900   -1    0    0    0    0 -0.00000000000E+00 -0.00000000000E+00 -0.74505805969E-08  0.93827000000E+00  0.93827000000E+00 0.  1.
     999902    2    1    2    0    0  0.12693648936E-01  0.31411874032E-02 -0.19297125881E-01  0.10206195978E+01  0.10203533646E+01 0.  0.
     999903    2    3    3    0    0 -0.47238490009E-01 -0.83902788198E-01 -0.87613751319E-01  0.13166758773E+00  0.19723879757E-01 0.  0.
         14    1    1    2    0    0 -0.12693648936E-01 -0.31411874032E-02  0.19297125881E-01  0.23310402161E-01  0.00000000000E+00 0.  1.
     999901    1    3    3    0    0  0.59932138945E-01  0.87043975601E-01  0.68316625438E-01  0.88895201011E+00  0.88000000000E+00 0. -1.
        -11    1    4    4    0    0  0.81549191751E-03 -0.10380686263E-01 -0.10252001672E-01  0.14621502441E-01  0.51100000000E-03 0. -1.
         11    1    4    4    0    0 -0.48053981926E-01 -0.73522101935E-01 -0.77361749647E-01  0.11704608529E+00  0.51100000000E-03 0.  1.
</event>
<event>
 8    1  0.1051655E+005  0.1043930E+01  0.7957747E-01            NaN
         13   -1    0    0    0    0  0.00000000000E+00  0.00000000000E+00  0.74505805969E-08  0.10566000000E+00  0.10566000000E+00 0.  1.
     999900   -1    0    0    0    0 -0.00000000000E+00 -0.00000000000E+00 -0.74505805969E-08  0.93827000000E+00  0.93827000000E+00 0. -1.
     999902    2    1    2    0    0 -0.12204019765E-01  0.19413569154E-01 -0.40680840830E-03  0.10209955225E+01  0.10207379030E+01 0.  0.
     999903    2    3    3    0    0 -0.29129646320E-01  0.11451955685E+00  0.59435323084E-01  0.13368908927E+00  0.19415194134E-01 0.  0.
         14    1    1    2    0    0  0.12204019765E-01 -0.19413569154E-01  0.40680840830E-03  0.22934477514E-01  0.00000000000E+00 0.  1.
     999901    1    3    3    0    0  0.16925626555E-01 -0.95105987696E-01 -0.59842131492E-01  0.88730643322E+00  0.88000000000E+00 0.  1.
        -11    1    4    4    0    0 -0.96632121825E-02  0.30958850501E-01  0.26130761805E-01  0.41652201953E-01  0.51100000000E-03 0. -1.
         11    1    4    4    0    0 -0.19466434137E-01  0.83560706349E-01  0.33304561279E-01  0.92036887315E-01  0.51100000000E-03 0.  1.
</event>
<event>
 8    1  0.1051655E+005  0.1043930E+01  0.7957747E-01            NaN
         13   -1    0    0    0    0  0.00000000000E+00  0.00000000000E+00  0.74505805969E-08  0.10566000000E+00  0.10566000000E+00 0.  1.
     999900   -1    0    0    0    0 -0.00000000000E+00 -0.00000000000E+00 -0.74505805969E-08  0.93827000000E+00  0.93827000000E+00 0.  1.
     999902    2    1    2    0    0  0.17859777762E-01 -0.19348831098E-02  0.15659218745E-01  0.10200987901E+01  0.10198203837E+01 0.  0.
     999903    2    3    3    0    0  0.61986775796E-02  0.23882985594E-01 -0.12453626924E+00  0.12855108051E+00  0.20181113418E-01 0.  0.
         14    1    1    2    0    0 -0.17859777762E-01  0.19348831098E-02 -0.15659218745E-01  0.23831209916E-01  0.00000000000E+00 0. -1.
     999901    1    3    3    0    0  0.11661100183E-01 -0.25817868704E-01  0.14019548798E+00  0.89154770958E+00  0.88000000000E+00 0. -1.
        -11    1    4    4    0    0  0.11508866405E-01  0.70964799916E-02 -0.68057131300E-01  0.69389107762E-01  0.51100000000E-03 0.  1.
         11    1    4    4    0    0 -0.53101888252E-02  0.16786505602E-01 -0.56479137939E-01  0.59161972744E-01  0.51100000000E-03 0. -1.
</event>
<event>
 8    1  0.1051655E+005  0.1043930E+01  0.7957747E-01            NaN
         13   -1    0    0    0    0  0.00000000000E+00  0.00000000000E+00  0.74505805969E-08  0.10566000000E+00  0.10566000000E+00 0. -1.
     999900   -1    0    0    0    0 -0.00000000000E+00 -0.00000000000E+00 -0.74505805969E-08  0.93827000000E+00  0.93827000000E+00 0. -1.
     999902    2    1    2    0    0 -0.17799006521E-01 -0.17796961651E-02 -0.16439831713E-01  0.10196351442E+01  0.10193456662E+01 0.  0.
     999903    2    3    3    0    0  0.11239582415E+00  0.49881905963E-01 -0.31409630029E-01  0.12843162652E+00  0.19674653813E-01 0.  0.
         14    1    1    2    0    0  0.17799006521E-01  0.17796961651E-02  0.16439831713E-01  0.24294855800E-01  0.00000000000E+00 0. -1.
     999901    1    3    3    0    0 -0.13019483067E+00 -0.51661602128E-01  0.14969798316E-01  0.89120351768E+00  0.88000000000E+00 0.  1.
        -11    1    4    4    0    0  0.65391245838E-01  0.25554961360E-01 -0.27345902840E-01  0.75346735865E-01  0.51100000000E-03 0.  1.
         11    1    4    4    0    0  0.47004578312E-01  0.24326944603E-01 -0.40637271892E-02  0.53084890653E-01  0.51100000000E-03 0. -1.
</event>
<event>
 8    1  0.1051655E+005  0.1043930E+01  0.7957747E-01            NaN
         13   -1    0    0    0    0  0.00000000000E+00  0.00000000000E+00  0.74505805969E-08  0.10566000000E+00  0.10566000000E+00 0.  1.
     999900   -1    0    0    0    0 -0.00000000000E+00 -0.00000000000E+00 -0.74505805969E-08  0.93827000000E+00  0.93827000000E+00 0. -1.
     999902    2    1    2    0    0 -0.10503248609E-01  0.14078217641E-01  0.15314922256E-01  0.10206263246E+01  0.10203602468E+01 0.  0.
     999903    2    3    3    0    0 -0.54990158437E-01  0.90662355029E-01 -0.75163331215E-01  0.13156472404E+00  0.20400247745E-01 0.  0.
         14    1    1    2    0    0  0.10503248609E-01 -0.14078217641E-01 -0.15314922256E-01  0.23303675396E-01  0.00000000000E+00 0. -1.
     999901    1    3    3    0    0  0.44486909828E-01 -0.76584137388E-01  0.90478253471E-01  0.88906160056E+00  0.88000000000E+00 0.  1.
        -11    1    4    4    0    0 -0.39031488945E-01  0.77471905163E-01 -0.65554505854E-01  0.10873365430E+00  0.51100000000E-03 0.  1.
         11    1    4    4    0    0 -0.15958669492E-01  0.13190449866E-01 -0.96088253617E-02  0.22831069740E-01  0.51100000000E-03 0. -1.
</event>
<event>
 8    1  0.1051655E+005  0.1043930E+01  0.7957747E-01            NaN
         13   -1    0    0    0    0  0.00000000000E+00  0.00000000000E+00  0.74505805969E-08  0.10566000000E+00  0.10566000000E+00 0. -1.
     999900   -1    0    0    0    0 -0.00000000000E+00 -0.00000000000E+00 -0.74505805969E-08  0.93827000000E+00  0.93827000000E+00 0. -1.
     999902    2    1    2    0    0 -0.33545809358E-02 -0.17982635953E-01  0.16059893311E-01  0.10195876792E+01  0.10192970553E+01 0.  0.
     999903    2    3    3    0    0 -0.19822492055E-02  0.22828604761E-01 -0.12393170579E+00  0.12758706906E+00  0.19857441537E-01 0.  0.
         14    1    1    2    0    0  0.33545809358E-02  0.17982635953E-01 -0.16059893311E-01  0.24342320806E-01  0.00000000000E+00 0.  1.
     999901    1    3    3    0    0 -0.13723317303E-02 -0.40811240713E-01  0.13999159910E+00  0.89200061013E+00  0.88000000000E+00 0.  1.
        -11    1    4    4    0    0 -0.82820627301E-02  0.22009704050E-01 -0.10530894880E+00  0.10790391770E+00  0.51100000000E-03 0.  1.
         11    1    4    4    0    0  0.62998135246E-02  0.81890071050E-03 -0.18622756984E-01  0.19683151361E-01  0.51100000000E-03 0. -1.
</event>
<event>
 8    1  0.1051655E+005  0.1043930E+01  0.7957747E-01            NaN
         13   -1    0    0    0    0  0.00000000000E+00  0.00000000000E+00  0.74505805969E-08  0.10566000000E+00  0.10566000000E+00 0.  1.
     999900   -1    0    0    0    0 -0.00000000000E+00 -0.00000000000E+00 -0.74505805969E-08  0.93827000000E+00  0.93827000000E+00 0. -1.
     999902    2    1    2    0    0  0.18123895769E-01  0.67348537608E-02  0.16492234897E-01  0.10185168604E+01  0.10181997678E+01 0.  0.
     999903    2    3    3    0    0 -0.11775151888E-01 -0.76108281324E-01 -0.98724634409E-01  0.12664699037E+00  0.19020568907E-01 0.  0.
         14    1    1    2    0    0 -0.18123895769E-01 -0.67348537608E-02 -0.16492234897E-01  0.25413139612E-01  0.00000000000E+00 0. -1.
     999901    1    3    3    0    0  0.29899047657E-01  0.82843135084E-01  0.11521686931E+00  0.89186987002E+00  0.88000000000E+00 0.  1.
        -11    1    4    4    0    0 -0.45784981439E-02 -0.62487094999E-01 -0.87314166497E-01  0.10746917920E+00  0.51100000000E-03 0.  1.
         11    1    4    4    0    0 -0.71966537444E-02 -0.13621186325E-01 -0.11410467912E-01  0.19177811162E-01  0.51100000000E-03 0. -1.
</event>
<event>
 8    1  0.1051655E+005  0.1043930E+01  0.7957747E-01            NaN
         13   -1    0    0    0    0  0.00000000000E+00  0.00000000000E+00  0.74505805969E-08  0.10566000000E+00  0.10566000000E+00 0.  1.
     999900   -1    0    0    0    0 -0.00000000000E+00 -0.00000000000E+00 -0.74505805969E-08  0.93827000000E+00  0.93827000000E+00 0. -1.
     999902    2    1    2    0    0  0.11590701429E-01 -0.73909777805E-02  0.19587427859E-01  0.10200001391E+01  0.10197193955E+01 0.  0.
     999903    2    3    3    0    0 -0.11346643777E+00  0.49233023956E-01  0.31994506575E-01  0.12927038142E+00  0.19714459478E-01 0.  0.
         14    1    1    2    0    0 -0.11590701429E-01  0.73909777805E-02 -0.19587427859E-01  0.23929860892E-01  0.00000000000E+00 0.  1.
     999901    1    3    3    0    0  0.12505713920E+00 -0.56624001737E-01 -0.12407078716E-01  0.89072975769E+00  0.88000000000E+00 0.  1.
        -11    1    4    4    0    0 -0.29357188647E-01  0.21554864254E-01  0.13258147425E-01  0.38762047062E-01  0.51100000000E-03 0.  1.
         11    1    4    4    0    0 -0.84109249122E-01  0.27678159702E-01  0.18736359150E-01  0.90508334354E-01  0.51100000000E-03 0. -1.
</event>
<event>
 8    1  0.1051655E+005  0.1043930E+01  0.7957747E-01            NaN
         13   -1    0    0    0    0  0.00000000000E+00  0.00000000000E+00  0.74505805969E-08  0.10566000000E+00  0.10566000000E+00 0. -1.
     999900   -1    0    0    0    0 -0.00000000000E+00 -0.00000000000E+00 -0.74505805969E-08  0.93827000000E+00  0.93827000000E+00 0. -1.
     999902    2    1    2    0    0 -0.76802147455E-02  0.20048976894E-01 -0.11460888516E-01  0.10195928034E+01  0.10193023033E+01 0.  0.
     999903    2    3    3    0    0 -0.10813636930E+00  0.72297451927E-01 -0.13792150600E-01  0.13233479305E+00  0.20046897867E-01 0.  0.
         14    1    1    2    0    0  0.76802147455E-02 -0.20048976894E-01  0.11460888516E-01  0.24337196606E-01  0.00000000000E+00 0. -1.
     999901    1    3    3    0    0  0.10045615455E+00 -0.52248475033E-01  0.23312620838E-02  0.88725801034E+00  0.88000000000E+00 0. -1.
        -11    1    4    4    0    0 -0.59312961515E-01  0.39733886751E-01 -0.17571903822E-01  0.73524431892E-01  0.51100000000E-03 0. -1.
         11    1    4    4    0    0 -0.48823407784E-01  0.32563565176E-01  0.37797532222E-02  0.58810361162E-01  0.51100000000E-03 0.  1.
</event>
<event>
 8    1  0.1051655E+005  0.1043930E+01  0.7957747E-01            NaN
         13   -1    0    0    0    0  0.00000000000E+00  0.00000000000E+00  0.74505805969E-08  0.10566000000E+00  0.10566000000E+00 0. -1.
     999900   -1    0    0    0    0 -0.00000000000E+00 -0.00000000000E+00 -0.74505805969E-08  0.93827000000E+00  0.93827000000E+00 0.  1.
     999902    2    1    2    0    0 -0.66008870036E-02  0.11723575846E-01 -0.17245472979E-01  0.10220571795E+01  0.10218231050E+01 0.  0.
     999903    2    3    3    0    0  0.77938793501E-01 -0.28597957216E-02 -0.10637937572E+00  0.13340399350E+00  0.19935394163E-01 0.  0.
         14    1    1    2    0    0  0.66008870036E-02 -0.11723575846E-01  0.17245472979E-01  0.21872820534E-01  0.00000000000E+00 0. -1.
     999901    1    3    3    0    0 -0.84539680505E-01  0.14583371568E-01  0.89133902738E-01  0.88865318596E+00  0.88000000000E+00 0.  1.
        -11    1    4    4    0    0  0.37790802028E-01  0.25003419435E-02 -0.36317736409E-01  0.52475094346E-01  0.51100000000E-03 0. -1.
         11    1    4    4    0    0  0.40147991473E-01 -0.53601376650E-02 -0.70061639308E-01  0.80928899156E-01  0.51100000000E-03 0.  1.
</event>
<event>
 8    1  0.1051655E+005  0.1043930E+01  0.7957747E-01            NaN
         13   -1    0    0    0    0  0.00000000000E+00  0.00000000000E+00  0.74505805969E-08  0.10566000000E+00  0.10566000000E+00 0.  1.
     999900   -1    0    0    0    0 -0.00000000000E+00 -0.00000000000E+00 -0.74505805969E-08  0.93827000000E+00  0.93827000000E+00 0. -1.
     999902    2    1    2    0    0 -0.10532738612E-01 -0.17150478478E-01  0.13283068272E-01  0.10198153282E+01  0.10195301791E+01 0.  0.
     999903    2    3    3    0    0 -0.19451653640E-01 -0.11083074436E+00 -0.63690458474E-01  0.13145703160E+00  0.23720369548E-01 0.  0.
         14    1    1    2    0    0  0.10532738612E-01  0.17150478478E-01 -0.13283068272E-01  0.24114671829E-01  0.00000000000E+00 0.  1.
     999901    1    3    3    0    0  0.89189150286E-02  0.93680265886E-01  0.76973526746E-01  0.88835829657E+00  0.88000000000E+00 0.  1.
        -11    1    4    4    0    0  0.50281375118E-02 -0.31779643530E-01 -0.15901761008E-01  0.35893662866E-01  0.51100000000E-03 0.  1.
         11    1    4    4    0    0 -0.24479791152E-01 -0.79051100834E-01 -0.47788697465E-01  0.95563368737E-01  0.51100000000E-03 0. -1.
</event>
<event>
 8    1  0.1051655E+005  0.1043930E+01  0.7957747E-01            NaN
         13   -1    0    0    0    0  0.00000000000E+00  0.00000000000E+00  0.74505805969E-08  0.10566000000E+00  0.10566000000E+00 0.  1.
     999900   -1    0    0    0    0 -0.00000000000E+00 -0.00000000000E+00 -0.74505805969E-08  0.93827000000E+00  0.93827000000E+00 0. -1.
     999902    2    1    2    0    0  0.75752627222E-02 -0.11947670595E-01 -0.19383952798E-01  0.10199327280E+01  0.10196503815E+01 0.  0.
     999903    2    3    3    0    0 -0.34052895787E-01 -0.95265178115E-01  0.78451333853E-01  0.12962578431E+00  0.20326787816E-01 0.  0.
         14    1    1    2    0    0 -0.75752627222E-02  0.11947670595E-01  0.19383952798E-01  0.23997272012E-01  0.00000000000E+00 0.  1.
     999901    1    3    3    0    0  0.41628158509E-01  0.83317507519E-01 -0.97835286651E-01  0.89030694367E+00  0.88000000000E+00 0. -1.
        -11    1    4    4    0    0 -0.29969849572E-01 -0.54369557768E-01  0.46677404764E-01  0.77674203773E-01  0.51100000000E-03 0.  1.
         11    1    4    4    0    0 -0.40830462150E-02 -0.40895620346E-01  0.31773929089E-01  0.51951580541E-01  0.51100000000E-03 0. -1.
</event>
<event>
 8    1  0.1051655E+005  0.1043930E+01  0.7957747E-01            NaN
         13   -1    0    0    0    0  0.00000000000E+00  0.00000000000E+00  0.74505805969E-08  0.10566000000E+00  0.10566000000E+00 0. -1.
     999900   -1    0    0    0    0 -0.00000000000E+00 -0.00000000000E+00 -0.74505805969E-08  0.93827000000E+00  0.93827000000E+00 0.  1.
     999902    2    1    2    0    0 -0.14353210106E-01 -0.84163382388E-02  0.16327042902E-01  0.10206185925E+01  0.10203523360E+01 0.  0.
     999903    2    3    3    0    0 -0.67799471404E-01 -0.27667704826E-01  0.11001588477E+00  0.13382396179E+00  0.21049646886E-01 0.  0.
         14    1    1    2    0    0  0.14353210106E-01  0.84163382388E-02 -0.16327042902E-01  0.23311407499E-01  0.00000000000E+00 0. -1.
     999901    1    3    3    0    0  0.53446261298E-01  0.19251366587E-01 -0.93688841873E-01  0.88679463071E+00  0.88000000000E+00 0.  1.
        -11    1    4    4    0    0 -0.48750438542E-01 -0.26827537085E-01  0.92382645973E-01  0.10784774639E+00  0.51100000000E-03 0. -1.
         11    1    4    4    0    0 -0.19049032863E-01 -0.84016774070E-03  0.17633238801E-01  0.25976215399E-01  0.51100000000E-03 0.  1.
</event>
<event>
 8    1  0.1163255E+005  0.1043930E+01  0.7957747E-01            NaN
         13   -1    0    0    0    0  0.00000000000E+00  0.00000000000E+00  0.74505805969E-08  0.10566000000E+00  0.10566000000E+00 0. -1.
     999900   -1    0    0    0    0 -0.00000000000E+00 -0.00000000000E+00 -0.74505805969E-08  0.93827000000E+00  0.93827000000E+00 0.  1.
     999902    2    1    2    0    0  0.16921985702E-01  0.11929988707E-01 -0.11560366620E-02  0.10231932054E+01  0.10229830501E+01 0.  0.
     999903    2    3    3    0    0 -0.10852987618E+00 -0.46495373843E-01 -0.53137486459E-01  0.13086268154E+00  0.18997240348E-01 0.  0.
         14    1    1    2    0    0 -0.16921985702E-01 -0.11929988707E-01  0.11560366620E-02  0.20736794627E-01  0.00000000000E+00 0. -1.
     999901    1    3    3    0    0  0.12545186188E+00  0.58425362550E-01  0.51981449797E-01  0.89233052383E+00  0.88000000000E+00 0. -1.
        -11    1    4    4    0    0 -0.46850162281E-01 -0.14017625360E-01 -0.13777564845E-01  0.50808601048E-01  0.51100000000E-03 0.  1.
         11    1    4    4    0    0 -0.61679713898E-01 -0.32477748483E-01 -0.39359921614E-01  0.80054080493E-01  0.51100000000E-03 0. -1.
</event>
<event>
 8    1  0.1051655E+005  0.1043930E+01  0.7957747E-01            NaN
         13   -1    0    0    0    0  0.00000000000E+00  0.00000000000E+00  0.74505805969E-08  0.10566000000E+00  0.10566000000E+00 0. -1.
     999900   -1    0    0    0    0 -0.00000000000E+00 -0.00000000000E+00 -0.74505805969E-08  0.93827000000E+00  0.93827000000E+00 0. -1.
     999902    2    1    2    0    0  0.16239575699E-01  0.64131471458E-03  0.20180603183E-01  0.10180187698E+01  0.10176889623E+01 0.  0.
     999903    2    3    3    0    0 -0.99468348304E-01 -0.21830922668E-01 -0.70763612054E-01  0.12551432985E+00  0.19385992545E-01 0.  0.
         14    1    1    2    0    0 -0.16239575699E-01 -0.64131471458E-03 -0.20180603183E-01  0.25911230157E-01  0.00000000000E+00 0.  1.
     999901    1    3    3    0    0  0.11570792400E+00  0.22472237382E-01  0.90944215236E-01  0.89250444000E+00  0.88000000000E+00 0.  1.
        -11    1    4    4    0    0 -0.64270200282E-01 -0.23214719656E-01 -0.49273828770E-01  0.84248164228E-01  0.51100000000E-03 0.  1.
         11    1    4    4    0    0 -0.35198148022E-01  0.13837969886E-02 -0.21489783283E-01  0.41266165618E-01  0.51100000000E-03 0. -1.
</event>
<event>
 8    1  0.1051655E+005  0.1043930E+01  0.7957747E-01            NaN
         13   -1    0    0    0    0  0.00000000000E+00  0.00000000000E+00  0.74505805969E-08  0.10566000000E+00  0.10566000000E+00 0.  1.
     999900   -1    0    0    0    0 -0.00000000000E+00 -0.00000000000E+00 -0.74505805969E-08  0.93827000000E+00  0.93827000000E+00 0. -1.
     999902    2    1    2    0    0  0.34237329233E-02 -0.46399230060E-03  0.23035699483E-01  0.10206366386E+01  0.10203707989E+01 0.  0.
     999903    2    3    3    0    0  0.97258186468E-01 -0.80960374952E-01 -0.25505074281E-01  0.13066990941E+00  0.20257819833E-01 0.  0.
         14    1    1    2    0    0 -0.34237329233E-02  0.46399230060E-03 -0.23035699483E-01  0.23293361429E-01  0.00000000000E+00 0. -1.
     999901    1    3    3    0    0 -0.93834453545E-01  0.80496382651E-01  0.48540773764E-01  0.88996672916E+00  0.88000000000E+00 0. -1.
        -11    1    4    4    0    0  0.76060916587E-01 -0.73232514048E-01 -0.21307693507E-01  0.10771510140E+00  0.51100000000E-03 0.  1.
         11    1    4    4    0    0  0.21197269881E-01 -0.77278609036E-02 -0.41973807744E-02  0.22954808013E-01  0.51100000000E-03 0. -1.
</event>
<event>
 8    1  0.1051655E+005  0.1043930E+01  0.7957747E-01            NaN
         13   -1    0    0    0    0  0.00000000000E+00  0.00000000000E+00  0.74505805969E-08  0.10566000000E+00  0.10566000000E+00 0.  1.
     999900   -1    0    0    0    0 -0.00000000000E+00 -0.00000000000E+00 -0.74505805969E-08  0.93827000000E+00  0.93827000000E+00 0.  1.
     999902    2    1    2    0    0  0.14490568725E-01  0.15288578336E-01  0.10055022080E-01  0.10205886059E+01  0.10203216561E+01 0.  0.
     999903    2    3    3    0    0  0.69194730814E-01 -0.10729529892E+00  0.14424242090E-01  0.13039849003E+00  0.22260177397E-01 0.  0.
         14    1    1    2    0    0 -0.14490568725E-01 -0.15288578336E-01 -0.10055022080E-01  0.23341394100E-01  0.00000000000E+00 0.  1.
     999901    1    3    3    0    0 -0.54704162089E-01  0.12258387726E+00 -0.43692200104E-02  0.89019011587E+00  0.88000000000E+00 0.  1.
        -11    1    4    4    0    0  0.26659064344E-01 -0.23722742256E-01  0.66221928129E-02  0.36298605627E-01  0.51100000000E-03 0. -1.
         11    1    4    4    0    0  0.42535666470E-01 -0.83572556668E-01  0.78020492775E-02  0.94099884400E-01  0.51100000000E-03 0.  1.
</event>
<event>
 8    1  0.1051655E+005  0.1043930E+01  0.7957747E-01            NaN
         13   -1    0    0    0    0  0.00000000000E+00  0.00000000000E+00  0.74505805969E-08  0.10566000000E+00  0.10566000000E+00 0.  1.
     999900   -1    0    0    0    0 -0.00000000000E+00 -0.00000000000E+00 -0.74505805969E-08  0.93827000000E+00  0.93827000000E+00 0. -1.
     999902    2    1    2    0    0 -0.72752639142E-02  0.87711790286E-02  0.21308472570E-01  0.10197656864E+01  0.10194793481E+01 0.  0.
     999903    2    3    3    0    0 -0.19546154429E-01 -0.12613145877E+00  0.58468345134E-02  0.12926674838E+00  0.19608919366E-01 0.  0.
         14    1    1    2    0    0  0.72752639142E-02 -0.87711790286E-02 -0.21308472570E-01  0.24164313560E-01  0.00000000000E+00 0. -1.
     999901    1    3    3    0    0  0.12270890515E-01  0.13490263780E+00  0.15461638057E-01  0.89049893806E+00  0.88000000000E+00 0. -1.
        -11    1    4    4    0    0 -0.11596924806E-01 -0.98539871377E-01  0.11853848168E-01  0.99926821991E-01  0.51100000000E-03 0. -1.
         11    1    4    4    0    0 -0.79492296239E-02 -0.27591587390E-01 -0.60070136544E-02  0.29339926387E-01  0.51100000000E-03 0.  1.
</event>
<event>
 8    1  0.1051655E+005  0.1043930E+01  0.7957747E-01            NaN
         13   -1    0    0    0    0  0.00000000000E+00  0.00000000000E+00  0.74505805969E-08  0.10566000000E+00  0.10566000000E+00 0. -1.
     999900   -1    0    0    0    0 -0.00000000000E+00 -0.00000000000E+00 -0.74505805969E-08  0.93827000000E+00  0.93827000000E+00 0.  1.
     999902    2    1    2    0    0  0.22183056462E-01  0.32631488492E-02 -0.54826903870E-02  0.10208476252E+01  0.10205866341E+01 0.  0.
     999903    2    3    3    0    0 -0.41136662775E-01  0.10838462106E+00 -0.57284728486E-01  0.13082326487E+00  0.19842767126E-01 0.  0.
         14    1    1    2    0    0 -0.22183056462E-01 -0.32631488492E-02  0.54826903870E-02  0.23082374840E-01  0.00000000000E+00 0. -1.
     999901    1    3    3    0    0  0.63319719236E-01 -0.10512147221E+00  0.51802038099E-01  0.89002436029E+00  0.88000000000E+00 0. -1.
        -11    1    4    4    0    0 -0.20986080550E-01  0.29961110328E-01 -0.19750016760E-01  0.41574126473E-01  0.51100000000E-03 0.  1.
         11    1    4    4    0    0 -0.20150582225E-01  0.78423510727E-01 -0.37534711726E-01  0.89249138394E-01  0.51100000000E-03 0. -1.
</event>
<event>
 8    1  0.1051655E+005  0.1043930E+01  0.7957747E-01            NaN
         13   -1    0    0    0    0  0.00000000000E+00  0.00000000000E+00  0.74505805969E-08  0.10566000000E+00  0.10566000000E+00 0. -1.
     999900   -1    0    0    0    0 -0.00000000000E+00 -0.00000000000E+00 -0.74505805969E-08  0.93827000000E+00  0.93827000000E+00 0. -1.
     999902    2    1    2    0    0 -0.17097100665E-01 -0.39592257150E-02 -0.16781687871E-01  0.10196480856E+01  0.10193589197E+01 0.  0.
     999903    2    3    3    0    0 -0.25298401782E-02  0.16495374768E-01 -0.12958744975E+00  0.13209203910E+00  0.19413968678E-01 0.  0.
         14    1    1    2    0    0  0.17097100665E-01  0.39592257150E-02  0.16781687871E-01  0.24281914405E-01  0.00000000000E+00 0. -1.
     999901    1    3    3    0    0 -0.14567260486E-01 -0.20454600483E-01  0.11280576188E+00  0.88755604650E+00  0.88000000000E+00 0.  1.
        -11    1    4    4    0    0 -0.10482011997E-01  0.11547996301E-01 -0.94149771714E-01  0.95434110405E-01  0.51100000000E-03 0. -1.
         11    1    4    4    0    0  0.79521718184E-02  0.49473784664E-02 -0.35437678038E-01  0.36657928693E-01  0.51100000000E-03 0.  1.
</event>
<event>
 8    1  0.1051655E+005  0.1043930E+01  0.7957747E-01            NaN
         13   -1    0    0    0    0  0.00000000000E+00  0.00000000000E+00  0.74505805969E-08  0.10566000000E+00  0.10566000000E+00 0. -1.
     999900   -1    0    0    0    0 -0.00000000000E+00 -0.00000000000E+00 -0.74505805969E-08  0.93827000000E+00  0.93827000000E+00 0.  1.
     999902    2    1    2    0    0 -0.91533235700E-02 -0.20630824698E-01  0.31532622734E-02  0.10211405875E+01  0.10208862532E+01 0.  0.
     999903    2    3    3    0    0 -0.63638207226E-01 -0.11541806239E+00 -0.15332996317E-01  0.13418232198E+00  0.19966076518E-01 0.  0.
         14    1    1    2    0    0  0.91533235700E-02  0.20630824698E-01 -0.31532622734E-02  0.22789412521E-01  0.00000000000E+00 0. -1.
     999901    1    3    3    0    0  0.54484883656E-01  0.94787237693E-01  0.18486258590E-01  0.88695826550E+00  0.88000000000E+00 0.  1.
        -11    1    4    4    0    0 -0.25929403895E-01 -0.58423627336E-01  0.94774024802E-03  0.63928190574E-01  0.51100000000E-03 0.  1.
         11    1    4    4    0    0 -0.37708803331E-01 -0.56994435055E-01 -0.16280736565E-01  0.70254131408E-01  0.51100000000E-03 0. -1.
</event>
<event>
 8    1  0.1051655E+005  0.1043930E+01  0.7957747E-01            NaN
         13   -1    0    0    0    0  0.00000000000E+00  0.00000000000E+00  0.74505805969E-08  0.10566000000E+00  0.10566000000E+00 0.  1.
     999900   -1    0    0    0    0 -0.00000000000E+00 -0.00000000000E+00 -0.74505805969E-08  0.93827000000E+00  0.93827000000E+00 0. -1.
     999902    2    1    2    0    0 -0.15056480603E-01  0.18346419431E-01 -0.24064519875E-02  0.10200746080E+01  0.10197956297E+01 0.  0.
     999903    2    3    3    0    0 -0.82807390912E-01  0.47323554855E-01  0.89488445706E-01  0.13222634824E+00  0.19469011771E-01 0.  0.
         14    1    1    2    0    0  0.15056480603E-01 -0.18346419431E-01  0.24064519875E-02  0.23855391954E-01  0.00000000000E+00 0.  1.
     999901    1    3    3    0    0  0.67750910309E-01 -0.28977135425E-01 -0.91894897693E-01  0.88784825981E+00  0.88000000000E+00 0. -1.
        -11    1    4    4    0    0 -0.35245920614E-01  0.29272535847E-01  0.34824096583E-01  0.57551152019E-01  0.51100000000E-03 0. -1.
         11    1    4    4    0    0 -0.47561470298E-01  0.18051019008E-01  0.54664349123E-01  0.74675196218E-01  0.51100000000E-03 0.  1.
</event>
<event>
 8    1  0.1051655E+005  0.1043930E+01  0.7957747E-01            NaN
         13   -1    0    0    0    0  0.00000000000E+00  0.00000000000E+00  0.74505805969E-08  0.10566000000E+00  0.10566000000E+00 0.  1.
     999900   -1    0    0    0    0 -0.00000000000E+00 -0.00000000000E+00 -0.74505805969E-08  0.93827000000E+00  0.93827000000E+00 0. -1.
     999902    2    1    2    0    0 -0.54627853771E-02  0.20966439741E-01 -0.11418160865E-01  0.10194390217E+01  0.10191447939E+01 0.  0.
     999903    2    3    3    0    0 -0.82392982961E-01 -0.90543088720E-01  0.32523595432E-01  0.12798879418E+00  0.18349185809E-01 0.  0.
         14    1    1    2    0    0  0.54627853771E-02 -0.20966439741E-01  0.11418160865E-01  0.24490978278E-01  0.00000000000E+00 0.  1.
     999901    1    3    3    0    0  0.76930197583E-01  0.11150952846E+00 -0.43941756297E-01  0.89145022754E+00  0.88000000000E+00 0. -1.
        -11    1    4    4    0    0 -0.55938693578E-02 -0.10766172712E-01  0.80799846407E-02  0.14585922050E-01  0.51100000000E-03 0.  1.
         11    1    4    4    0    0 -0.76799113603E-01 -0.79776916008E-01  0.24443610791E-01  0.11340287213E+00  0.51100000000E-03 0. -1.
</event>
<event>
 8    1  0.1051655E+005  0.1043930E+01  0.7957747E-01            NaN
         13   -1    0    0    0    0  0.00000000000E+00  0.00000000000E+00  0.74505805969E-08  0.10566000000E+00  0.10566000000E+00 0.  1.
     999900   -1    0    0    0    0 -0.00000000000E+00 -0.00000000000E+00 -0.74505805969E-08  0.93827000000E+00  0.93827000000E+00 0.  1.
     999902    2    1    2    0    0  0.16618256422E-01  0.13557368064E-01  0.63923529297E-02  0.10215507495E+01  0.10213055875E+01 0.  0.
     999903    2    3    3    0    0 -0.40842750005E-01  0.12454275460E+00 -0.43630314174E-02  0.13265525423E+00  0.19983805430E-01 0.  0.
         14    1    1    2    0    0 -0.16618256422E-01 -0.13557368064E-01 -0.63923529297E-02  0.22379250463E-01  0.00000000000E+00 0.  1.
     999901    1    3    3    0    0  0.57461006427E-01 -0.11098538654E+00  0.10755384347E-01  0.88889549531E+00  0.88000000000E+00 0.  1.
        -11    1    4    4    0    0 -0.15357618431E-01  0.21459668919E-01 -0.59912836492E-03  0.26400642223E-01  0.51100000000E-03 0.  1.
         11    1    4    4    0    0 -0.25485131574E-01  0.10308308568E+00 -0.37639030525E-02  0.10625461201E+00  0.51100000000E-03 0. -1.
</event>
<event>
 8    1  0.1051655E+005  0.1043930E+01  0.7957747E-01            NaN
         13   -1    0    0    0    0  0.00000000000E+00  0.00000000000E+00  0.74505805969E-08  0.10566000000E+00  0.10566000000E+00 0.  1.
     999900   -1    0    0    0    0 -0.00000000000E+00 -0.00000000000E+00 -0.74505805969E-08  0.93827000000E+00  0.93827000000E+00 0.  1.
     999902    2    1    2    0    0  0.23049697264E-01  0.68595918727E-02 -0.41190010467E-02  0.10195310510E+01  0.10192390569E+01 0.  0.
     999903    2    3    3    0    0 -0.68717167517E-01 -0.93458898097E-01  0.49085731286E-01  0.12750207136E+00  0.19767509714E-01 0.  0.
         14    1    1    2    0    0 -0.23049697264E-01 -0.68595918727E-02  0.41190010467E-02  0.24398949040E-01  0.00000000000E+00 0.  1.
     999901    1    3    3    0    0  0.91766864781E-01  0.10031848997E+00 -0.53204732333E-01  0.89202897960E+00  0.88000000000E+00 0.  1.
        -11    1    4    4    0    0 -0.46860190782E-01 -0.51921835719E-01  0.22064897807E-01  0.73340816336E-01  0.51100000000E-03 0. -1.
         11    1    4    4    0    0 -0.21856976736E-01 -0.41537062378E-01  0.27020833479E-01  0.54161255026E-01  0.51100000000E-03 0.  1.
</event>
<event>
 8    1  0.1051655E+005  0.1043930E+01  0.7957747E-01            NaN
         13   -1    0    0    0    0  0.00000000000E+00  0.00000000000E+00  0.74505805969E-08  0.10566000000E+00  0.10566000000E+00 0. -1.
     999900   -1    0    0    0    0 -0.00000000000E+00 -0.00000000000E+00 -0.74505805969E-08  0.93827000000E+00  0.93827000000E+00 0.  1.
     999902    2    1    2    0    0 -0.21041832309E-02 -0.59335866236E-02  0.22416578622E-01  0.10206461422E+01  0.10203805219E+01 0.  0.
     999903    2    3    3    0    0  0.76845782501E-01  0.84568767705E-01  0.62126683863E-01  0.13160133697E+00  0.20050842533E-01 0.  0.
         14    1    1    2    0    0  0.21041832309E-02  0.59335866236E-02 -0.22416578622E-01  0.23283857807E-01  0.00000000000E+00 0.  1.
     999901    1    3    3    0    0 -0.78949965732E-01 -0.90502354328E-01 -0.39710105241E-01  0.88904480522E+00  0.88000000000E+00 0.  1.
        -11    1    4    4    0    0  0.58106813208E-01  0.57935045061E-01  0.34974222511E-01  0.89198254179E-01  0.51100000000E-03 0. -1.
         11    1    4    4    0    0  0.18738969294E-01  0.26633722643E-01  0.27152461352E-01  0.42403082795E-01  0.51100000000E-03 0.  1.
</event>
<event>
 8    1  0.1051655E+005  0.1043930E+01  0.7957747E-01            NaN
         13   -1    0    0    0    0  0.00000000000E+00  0.00000000000E+00  0.74505805969E-08  0.10566000000E+00  0.10566000000E+00 0.  1.
     999900   -1    0    0    0    0 -0.00000000000E+00 -0.00000000000E+00 -0.74505805969E-08  0.93827000000E+00  0.93827000000E+00 0. -1.
     999902    2    1    2    0    0  0.10140987218E-02  0.20639241824E-01  0.11243548527E-01  0.10204050328E+01  0.10201338181E+01 0.  0.
     999903    2    3    3    0    0  0.14092795092E-01 -0.34725124913E-01  0.12433919177E+00  0.13134547914E+00  0.19671276166E-01 0.  0.
         14    1    1    2    0    0 -0.10140987218E-02 -0.20639241824E-01 -0.11243548527E-01  0.23524967221E-01  0.00000000000E+00 0.  1.
     999901    1    3    3    0    0 -0.13078696370E-01  0.55364366737E-01 -0.11309564324E+00  0.88905955364E+00  0.88000000000E+00 0. -1.
        -11    1    4    4    0    0  0.42307503689E-02  0.86991245269E-03  0.24685318763E-01  0.25065555645E-01  0.51100000000E-03 0. -1.
         11    1    4    4    0    0  0.98620447229E-02 -0.35595037366E-01  0.99653873006E-01  0.10627992349E+00  0.51100000000E-03 0.  1.
</event>
<event>
 7    1  0.1051655E+005  0.1043930E+01  0.7957747E-01            NaN
         13   -1    0    0    0    0  0.00000000000E+00  0.00000000000E+00  0.74505805969E-08  0.10566000000E+00  0.10566000000E+00 0.  1.
     999900   -1    0    0    0    0 -0.00000000000E+00 -0.00000000000E+00 -0.74505805969E-08  0.93827000000E+00  0.93827000000E+00 0. -1.
     999903    2    1    2    0    0  0.66783586748E-01  0.19940572933E-01  0.38377828583E-01  0.81782027122E-01  0.18914764752E-01 0.  0.
         14    1    1    2    0    0  0.17590019691E-01  0.69215256651E-01  0.10997405697E-01  0.72257203641E-01  0.00000000000E+00 0. -1.
     999901    1    1    2    0    0 -0.84373606439E-01 -0.89155829583E-01 -0.49375234280E-01  0.88989076924E+00  0.88000000000E+00 0.  1.
        -11    1    3    3    0    0  0.66658223567E-02 -0.34152792679E-02  0.60207128826E-02  0.96232751589E-02  0.51100000000E-03 0. -1.
         11    1    3    3    0    0  0.60117764392E-01  0.23355852201E-01  0.32357115701E-01  0.72158751964E-01  0.51100000000E-03 0.  1.
</event>
<event>
 8    1  0.1051655E+005  0.1043930E+01  0.7957747E-01            NaN
         13   -1    0    0    0    0  0.00000000000E+00  0.00000000000E+00  0.74505805969E-08  0.10566000000E+00  0.10566000000E+00 0.  1.
     999900   -1    0    0    0    0 -0.00000000000E+00 -0.00000000000E+00 -0.74505805969E-08  0.93827000000E+00  0.93827000000E+00 0. -1.
     999902    2    1    2    0    0 -0.19117623728E-01  0.14241987134E-02  0.16506833495E-01  0.10186320271E+01  0.10183178380E+01 0.  0.
     999903    2    3    3    0    0 -0.78345300683E-01  0.82675001687E-01  0.62961476357E-01  0.13168916283E+00  0.20118301582E-01 0.  0.
         14    1    1    2    0    0  0.19117623728E-01 -0.14241987134E-02 -0.16506833495E-01  0.25297972864E-01  0.00000000000E+00 0. -1.
     999901    1    3    3    0    0  0.59227676955E-01 -0.81250802974E-01 -0.46454642862E-01  0.88694286431E+00  0.88000000000E+00 0. -1.
        -11    1    4    4    0    0 -0.41910929484E-01  0.43723442682E-01  0.44827695957E-01  0.75352829383E-01  0.51100000000E-03 0. -1.
         11    1    4    4    0    0 -0.36434371200E-01  0.38951559005E-01  0.18133780400E-01  0.56336333446E-01  0.51100000000E-03 0.  1.
</event>
<event>
 8    1  0.1051655E+005  0.1043930E+01  0.7957747E-01            NaN
         13   -1    0    0    0    0  0.00000000000E+00  0.00000000000E+00  0.74505805969E-08  0.10566000000E+00  0.10566000000E+00 0.  1.
     999900   -1    0    0    0    0 -0.00000000000E+00 -0.00000000000E+00 -0.74505805969E-08  0.93827000000E+00  0.93827000000E+00 0. -1.
     999902    2    1    2    0    0 -0.17543262281E-01 -0.15999270043E-01 -0.37868367592E-02  0.10198866469E+01  0.10196032021E+01 0.  0.
     999903    2    3    3    0    0  0.58016940572E-01  0.16316324379E-01  0.11128721899E+00  0.12859787208E+00  0.22811833714E-01 0.  0.
         14    1    1    2    0    0  0.17543262281E-01  0.15999270043E-01  0.37868367592E-02  0.24043353052E-01  0.00000000000E+00 0. -1.
     999901    1    3    3    0    0 -0.75560202852E-01 -0.32315594422E-01 -0.11507405575E+00  0.89128877487E+00  0.88000000000E+00 0. -1.
        -11    1    4    4    0    0  0.20640496427E-01  0.12353912050E-01  0.62766981557E-01  0.67220564788E-01  0.51100000000E-03 0.  1.
         11    1    4    4    0    0  0.37376444144E-01  0.39624123288E-02  0.48520237438E-01  0.61377307291E-01  0.51100000000E-03 0. -1.
</event>
<event>
 8    1  0.1051655E+005  0.1043930E+01  0.7957747E-01            NaN
         13   -1    0    0    0    0  0.00000000000E+00  0.00000000000E+00  0.74505805969E-08  0.10566000000E+00  0.10566000000E+00 0.  1.
     999900   -1    0    0    0    0 -0.00000000000E+00 -0.00000000000E+00 -0.74505805969E-08  0.93827000000E+00  0.93827000000E+00 0.  1.
     999902    2    1    2    0    0 -0.19284081983E-01 -0.25470150822E-02 -0.12921742202E-01  0.10205776013E+01  0.10203103968E+01 0.  0.
     999903    2    3    3    0    0  0.31572117720E-01  0.12320100094E+00  0.15964833260E-01  0.12971658474E+00  0.19905557098E-01 0.  0.
         14    1    1    2    0    0  0.19284081983E-01  0.25470150822E-02  0.12921742202E-01  0.23352398705E-01  0.00000000000E+00 0. -1.
     999901    1    3    3    0    0 -0.50856199703E-01 -0.12574801603E+00 -0.28886575462E-01  0.89086101656E+00  0.88000000000E+00 0.  1.
        -11    1    4    4    0    0  0.27428790052E-01  0.91175889662E-01  0.40730791996E-02  0.95300747502E-01  0.51100000000E-03 0. -1.
         11    1    4    4    0    0  0.41433276683E-02  0.32025111283E-01  0.11891754060E-01  0.34415837233E-01  0.51100000000E-03 0.  1.
</event>
<event>
 8    1  0.1051655E+005  0.1043930E+01  0.7957747E-01            NaN
         13   -1    0    0    0    0  0.00000000000E+00  0.00000000000E+00  0.74505805969E-08  0.10566000000E+00  0.10566000000E+00 0. -1.
     999900   -1    0    0    0    0 -0.00000000000E+00 -0.00000000000E+00 -0.74505805969E-08  0.93827000000E+00  0.93827000000E+00 0.  1.
     999902    2    1    2    0    0 -0.16835139008E-01 -0.14417731513E-01  0.91908995892E-02  0.10199348854E+01  0.10196525904E+01 0.  0.
     999903    2    3    3    0    0 -0.97719857643E-02 -0.57820170741E-01 -0.11458104447E+00  0.13018595793E+00  0.19516763052E-01 0.  0.
         14    1    1    2    0    0  0.16835139008E-01  0.14417731513E-01 -0.91908995892E-02  0.23995114558E-01  0.00000000000E+00 0.  1.
     999901    1    3    3    0    0 -0.70631532434E-02  0.43402439228E-01  0.12377194406E+00  0.88974892751E+00  0.88000000000E+00 0. -1.
        -11    1    4    4    0    0  0.21402760361E-02 -0.41260468750E-01 -0.73576452276E-01  0.84384610644E-01  0.51100000000E-03 0. -1.
         11    1    4    4    0    0 -0.11912261800E-01 -0.16559701991E-01 -0.41004592198E-01  0.45801347290E-01  0.51100000000E-03 0.  1.
</event>
<event>
 8    1  0.1051655E+005  0.1043930E+01  0.7957747E-01            NaN
         13   -1    0    0    0    0  0.00000000000E+00  0.00000000000E+00  0.74505805969E-08  0.10566000000E+00  0.10566000000E+00 0. -1.
     999900   -1    0    0    0    0 -0.00000000000E+00 -0.00000000000E+00 -0.74505805969E-08  0.93827000000E+00  0.93827000000E+00 0. -1.
     999902    2    1    2    0    0 -0.68319488711E-04  0.21767609274E-01 -0.90073738767E-02  0.10203722780E+01  0.10201002987E+01 0.  0.
     999903    2    3    3    0    0 -0.80035050959E-01  0.64042057532E-01 -0.81513860512E-01  0.13276932752E+00  0.21821786359E-01 0.  0.
         14    1    1    2    0    0  0.68319488711E-04 -0.21767609274E-01  0.90073738767E-02  0.23557721987E-01  0.00000000000E+00 0. -1.
     999901    1    3    3    0    0  0.79966731471E-01 -0.42274448258E-01  0.72506486635E-01  0.88760295049E+00  0.88000000000E+00 0.  1.
        -11    1    4    4    0    0 -0.41202543781E-01  0.45937180861E-01 -0.52509390649E-01  0.81026979623E-01  0.51100000000E-03 0. -1.
         11    1    4    4    0    0 -0.38832507178E-01  0.18104876672E-01 -0.29004469863E-01  0.51742347899E-01  0.51100000000E-03 0.  1.
</event>
<event>
 8    1  0.1051655E+005  0.1043930E+01  0.7957747E-01            NaN
         13   -1    0    0    0    0  0.00000000000E+00  0.00000000000E+00  0.74505805969E-08  0.10566000000E+00  0.10566000000E+00 0.  1.
     999900   -1    0    0    0    0 -0.00000000000E+00 -0.00000000000E+00 -0.74505805969E-08  0.93827000000E+00  0.93827000000E+00 0. -1.
     999902    2    1    2    0    0  0.86386553553E-02 -0.21596667993E-01 -0.62744997234E-02  0.10198382632E+01  0.10195536628E+01 0.  0.
     999903    2    3    3    0    0 -0.11318578301E+00  0.29880858376E-01  0.49052162940E-01  0.12823736084E+00  0.18298055974E-01 0.  0.
         14    1    1    2    0    0 -0.86386553553E-02  0.21596667993E-01  0.62744997234E-02  0.24091736789E-01  0.00000000000E+00 0.  1.
     999901    1    3    3    0    0  0.12182443837E+00 -0.51477526369E-01 -0.55326662663E-01  0.89160090237E+00  0.88000000000E+00 0.  1.
        -11    1    4    4    0    0 -0.46153062872E-01  0.33086756398E-02  0.21773518495E-01  0.51140979416E-01  0.51100000000E-03 0.  1.
         11    1    4    4    0    0 -0.67032720143E-01  0.26572182736E-01  0.27278644445E-01  0.77096381425E-01  0.51100000000E-03 0. -1.
</event>
<event>
 8    1  0.1051655E+005  0.1043930E+01  0.7957747E-01            NaN
         13   -1    0    0    0    0  0.00000000000E+00  0.00000000000E+00  0.74505805969E-08  0.10566000000E+00  0.10566000000E+00 0.  1.
     999900   -1    0    0    0    0 -0.00000000000E+00 -0.00000000000E+00 -0.74505805969E-08  0.93827000000E+00  0.93827000000E+00 0. -1.
     999902    2    1    2    0    0 -0.16503341034E-01  0.12508192804E-01  0.94243393513E-02  0.10211784435E+01  0.10209249630E+01 0.  0.
     999903    2    3    3    0    0 -0.10894471699E+00  0.73098850614E-01 -0.16914612998E-01  0.13387332333E+00  0.20580797976E-01 0.  0.
         14    1    1    2    0    0  0.16503341034E-01 -0.12508192804E-01 -0.94243393513E-02  0.22751556534E-01  0.00000000000E+00 0. -1.
     999901    1    3    3    0    0  0.92441375961E-01 -0.60590657809E-01  0.26338952349E-01  0.88730512013E+00  0.88000000000E+00 0.  1.
        -11    1    4    4    0    0 -0.44498714129E-01  0.37593258086E-01  0.50929374247E-03  0.58257266618E-01  0.51100000000E-03 0.  1.
         11    1    4    4    0    0 -0.64446002866E-01  0.35505592528E-01 -0.17423906740E-01  0.75616056715E-01  0.51100000000E-03 0. -1.
</event>
<event>
 8    1  0.1051655E+005  0.1043930E+01  0.7957747E-01            NaN
         13   -1    0    0    0    0  0.00000000000E+00  0.00000000000E+00  0.74505805969E-08  0.10566000000E+00  0.10566000000E+00 0.  1.
     999900   -1    0    0    0    0 -0.00000000000E+00 -0.00000000000E+00 -0.74505805969E-08  0.93827000000E+00  0.93827000000E+00 0.  1.
     999902    2    1    2    0    0 -0.18251324238E-01  0.12791777330E-01 -0.75545685259E-02  0.10203967914E+01  0.10201253844E+01 0.  0.
     999903    2    3    3    0    0  0.52797923414E-01  0.76721823584E-01 -0.90434875267E-01  0.13135000313E+00  0.20012439282E-01 0.  0.
         14    1    1    2    0    0  0.18251324238E-01 -0.12791777330E-01  0.75545685259E-02  0.23533208649E-01  0.00000000000E+00 0.  1.
     999901    1    3    3    0    0 -0.71049247653E-01 -0.63930046254E-01  0.82880306741E-01  0.88904678822E+00  0.88000000000E+00 0.  1.
        -11    1    4    4    0    0  0.21351711305E-01  0.38825389171E-01 -0.55253269050E-01  0.70827193094E-01  0.51100000000E-03 0. -1.
         11    1    4    4    0    0  0.31446212109E-01  0.37896434413E-01 -0.35181606217E-01  0.60522810032E-01  0.51100000000E-03 0.  1.
</event>
<event>
 8    1  0.1051655E+005  0.1043930E+01  0.7957747E-01            NaN
         13   -1    0    0    0    0  0.00000000000E+00  0.00000000000E+00  0.74505805969E-08  0.10566000000E+00  0.10566000000E+00 0.  1.
     999900   -1    0    0    0    0 -0.00000000000E+00 -0.00000000000E+00 -0.74505805969E-08  0.93827000000E+00  0.93827000000E+00 0.  1.
     999902    2    1    2    0    0 -0.15478048601E-01 -0.68582700809E-02 -0.15828270045E-01  0.10207537192E+01  0.10204905758E+01 0.  0.
     999903    2    3    3    0    0  0.12583897636E+00  0.16868974509E-01  0.21794118815E-02  0.12898146116E+00  0.22615419869E-01 0.  0.
         14    1    1    2    0    0  0.15478048601E-01  0.68582700809E-02  0.15828270045E-01  0.23176280755E-01  0.00000000000E+00 0.  1.
     999901    1    3    3    0    0 -0.14131702496E+00 -0.23727244590E-01 -0.18007681927E-01  0.89177225808E+00  0.88000000000E+00 0.  1.
        -11    1    4    4    0    0  0.61347487117E-01  0.16024135277E-01 -0.71560321331E-02  0.63810320512E-01  0.51100000000E-03 0.  1.
         11    1    4    4    0    0  0.64491489239E-01  0.84483923220E-03  0.93354440147E-02  0.65171140650E-01  0.51100000000E-03 0. -1.
</event>
<event>
 8    1  0.1051655E+005  0.1043930E+01  0.7957747E-01            NaN
         13   -1    0    0    0    0  0.00000000000E+00  0.00000000000E+00  0.74505805969E-08  0.10566000000E+00  0.10566000000E+00 0. -1.
     999900   -1    0    0    0    0 -0.00000000000E+00 -0.00000000000E+00 -0.74505805969E-08  0.93827000000E+00  0.93827000000E+00 0. -1.
     999902    2    1    2    0    0  0.23090866261E-02  0.22205358525E-01  0.77661934637E-02  0.10202926654E+01  0.10200188231E+01 0.  0.
     999903    2    3    3    0    0 -0.12593061181E+00 -0.23308761855E-02  0.27481419326E-01  0.13044091523E+00  0.19891002541E-01 0.  0.
         14    1    1    2    0    0 -0.23090866261E-02 -0.22205358525E-01 -0.77661934637E-02  0.23637334646E-01  0.00000000000E+00 0.  1.
     999901    1    3    3    0    0  0.12823969844E+00  0.24536234710E-01 -0.19715225862E-01  0.88985175012E+00  0.88000000000E+00 0.  1.
        -11    1    4    4    0    0 -0.45004903938E-01 -0.17346572635E-02  0.19624942386E-01  0.49130946449E-01  0.51100000000E-03 0.  1.
         11    1    4    4    0    0 -0.80925707875E-01 -0.59621892202E-03  0.78564769403E-02  0.81309968780E-01  0.51100000000E-03 0. -1.
</event>
<event>
 8    1  0.1051655E+005  0.1043930E+01  0.7957747E-01            NaN
         13   -1    0    0    0    0  0.00000000000E+00  0.00000000000E+00  0.74505805969E-08  0.10566000000E+00  0.10566000000E+00 0. -1.
     999900   -1    0    0    0    0 -0.00000000000E+00 -0.00000000000E+00 -0.74505805969E-08  0.93827000000E+00  0.93827000000E+00 0. -1.
     999902    2    1    2    0    0 -0.23750987136E-01 -0.13874511236E-02  0.23741805914E-02  0.10200203546E+01  0.10197400907E+01 0.  0.
     999903    2    3    3    0    0  0.88679497940E-01 -0.77230117600E-01  0.47882600018E-01  0.12846904351E+00  0.19570573234E-01 0.  0.
         14    1    1    2    0    0  0.23750987136E-01  0.13874511236E-02 -0.23741805914E-02  0.23909645419E-01  0.00000000000E+00 0. -1.
     999901    1    3    3    0    0 -0.11243048508E+00  0.75842666477E-01 -0.45508419426E-01  0.89155131107E+00  0.88000000000E+00 0. -1.
        -11    1    4    4    0    0  0.55952303468E-01 -0.54363053966E-01  0.22648152353E-01  0.81235471475E-01  0.51100000000E-03 0. -1.
         11    1    4    4    0    0  0.32727194472E-01 -0.22867063635E-01  0.25234447665E-01  0.47233572036E-01  0.51100000000E-03 0.  1.
</event>
<event>
 8    1  0.1051655E+005  0.1043930E+01  0.7957747E-01            NaN
         13   -1    0    0    0    0  0.00000000000E+00  0.00000000000E+00  0.74505805969E-08  0.10566000000E+00  0.10566000000E+00 0. -1.
     999900   -1    0    0    0    0 -0.00000000000E+00 -0.00000000000E+00 -0.74505805969E-08  0.93827000000E+00  0.93827000000E+00 0. -1.
     999902    2    1    2    0    0  0.11616191944E-01  0.41852158326E-02 -0.19697403890E-01  0.10206826417E+01  0.10204178632E+01 0.  0.
     999903    2    3    3    0    0  0.26137766292E-01  0.16162474423E-01 -0.12856670376E+00  0.13377404705E+00  0.20535090543E-01 0.  0.
         14    1    1    2    0    0 -0.11616191944E-01 -0.41852158326E-02  0.19697403890E-01  0.23247358276E-01  0.00000000000E+00 0.  1.
     999901    1    3    3    0    0 -0.14521574349E-01 -0.11977258591E-01  0.10886929987E+00  0.88690859467E+00  0.88000000000E+00 0.  1.
        -11    1    4    4    0    0  0.17618082675E-02  0.12104221997E-01 -0.43170236212E-01  0.44872559256E-01  0.51100000000E-03 0.  1.
         11    1    4    4    0    0  0.24375958025E-01  0.40582524265E-02 -0.85396467546E-01  0.88901487798E-01  0.51100000000E-03 0. -1.
</event>
<event>
 7    1  0.1051655E+005  0.1043930E+01  0.7957747E-01            NaN
         13   -1    0    0    0    0  0.00000000000E+00  0.00000000000E+00  0.74505805969E-08  0.10566000000E+00  0.10566000000E+00 0.  1.
     999900   -1    0    0    0    0 -0.00000000000E+00 -0.00000000000E+00 -0.74505805969E-08  0.93827000000E+00  0.93827000000E+00 0. -1.
     999902    2    1    2    0    0 -0.16346551501E-04 -0.18937337091E-01  0.13909580388E-01  0.10204332038E+01  0.10201626459E+01 0.  0.
         14    1    1    2    0    0  0.16346551501E-04  0.18937337091E-01 -0.13909580388E-01  0.23496796162E-01  0.00000000000E+00 0. -1.
     999901    1    3    3    0    0  0.11354314463E+00 -0.51616846319E-01 -0.27977191111E-01  0.88923510262E+00  0.88000000000E+00 0. -1.
        -11    1    3    3    0    0 -0.67364007506E-01  0.28149225317E-01  0.74305915905E-02  0.73387759235E-01  0.51100000000E-03 0. -1.
         11    1    3    3    0    0 -0.46195483679E-01  0.45302839119E-02  0.34456179909E-01  0.57810341978E-01  0.51100000000E-03 0.  1.
</event>
<event>
 8    1  0.1051655E+005  0.1043930E+01  0.7957747E-01            NaN
         13   -1    0    0    0    0  0.00000000000E+00  0.00000000000E+00  0.74505805969E-08  0.10566000000E+00  0.10566000000E+00 0.  1.
     999900   -1    0    0    0    0 -0.00000000000E+00 -0.00000000000E+00 -0.74505805969E-08  0.93827000000E+00  0.93827000000E+00 0. -1.
     999902    2    1    2    0    0  0.61954622827E-02 -0.13182681207E-01 -0.19124628557E-01  0.10198900696E+01  0.10196067064E+01 0.  0.
     999903    2    3    3    0    0 -0.93539759659E-01  0.18282280919E-01 -0.87670080299E-01  0.13105058054E+00  0.20106796057E-01 0.  0.
         14    1    1    2    0    0 -0.61954622827E-02  0.13182681207E-01  0.19124628557E-01  0.24039930411E-01  0.00000000000E+00 0. -1.
     999901    1    3    3    0    0  0.99735221942E-01 -0.31464962126E-01  0.68545451742E-01  0.88883948905E+00  0.88000000000E+00 0.  1.
        -11    1    4    4    0    0 -0.18033735115E-01 -0.39121377366E-02 -0.20444127602E-01  0.27545306284E-01  0.51100000000E-03 0.  1.
         11    1    4    4    0    0 -0.75506024544E-01  0.22194418656E-01 -0.67225952697E-01  0.10350527426E+00  0.51100000000E-03 0. -1.
</event>
<event>
 8    1  0.1051655E+005  0.1043930E+01  0.7957747E-01            NaN
         13   -1    0    0    0    0  0.00000000000E+00  0.00000000000E+00  0.74505805969E-08  0.10566000000E+00  0.10566000000E+00 0. -1.
     999900   -1    0    0    0    0 -0.00000000000E+00 -0.00000000000E+00 -0.74505805969E-08  0.93827000000E+00  0.93827000000E+00 0. -1.
     999902    2    1    2    0    0  0.99051809958E-02 -0.21261419060E-01 -0.42506670533E-02  0.10200924514E+01  0.10198138952E+01 0.  0.
     999903    2    3    3    0    0  0.10247890354E+00  0.34523899703E-01 -0.71248170570E-01  0.13095210179E+00  0.19450599809E-01 0.  0.
         14    1    1    2    0    0 -0.99051809958E-02  0.21261419060E-01  0.42506670533E-02  0.23837548561E-01  0.00000000000E+00 0.  1.
     999901    1    3    3    0    0 -0.92573722541E-01 -0.55785318764E-01  0.66997503517E-01  0.88914034965E+00  0.88000000000E+00 0. -1.
        -11    1    4    4    0    0  0.51373282152E-01  0.15218630214E-01 -0.46620306500E-01  0.71024889467E-01  0.51100000000E-03 0. -1.
         11    1    4    4    0    0  0.51105621385E-01  0.19305269489E-01 -0.24627864070E-01  0.59927212324E-01  0.51100000000E-03 0.  1.
</event>
<event>
 7    1  0.1203842E+005  0.1043930E+01  0.7957747E-01            NaN
         13   -1    0    0    0    0  0.00000000000E+00  0.00000000000E+00  0.74505805969E-08  0.10566000000E+00  0.10566000000E+00 0.  1.
     999900   -1    0    0    0    0 -0.00000000000E+00 -0.00000000000E+00 -0.74505805969E-08  0.93827000000E+00  0.93827000000E+00 0. -1.
     999903    2    1    2    0    0 -0.18447205351E-02 -0.11652951294E+00 -0.20728142187E-01  0.11991293593E+00  0.19155311109E-01 0.  0.
         14    1    1    2    0    0  0.18546995358E-01  0.35242439608E-01  0.29528979456E-02  0.39934198284E-01  0.00000000000E+00 0.  1.
     999901    1    1    2    0    0 -0.16702274823E-01  0.81287073333E-01  0.17775244241E-01  0.88408286579E+00  0.88000000000E+00 0.  1.
        -11    1    3    3    0    0  0.71083639819E-02 -0.25422484617E-01 -0.72411688676E-02  0.27377494593E-01  0.51100000000E-03 0.  1.
         11    1    3    3    0    0 -0.89530845170E-02 -0.91107028324E-01 -0.13486973319E-01  0.92535441333E-01  0.51100000000E-03 0. -1.
</event>
<event>
 8    1  0.1051655E+005  0.1043930E+01  0.7957747E-01            NaN
         13   -1    0    0    0    0  0.00000000000E+00  0.00000000000E+00  0.74505805969E-08  0.10566000000E+00  0.10566000000E+00 0.  1.
     999900   -1    0    0    0    0 -0.00000000000E+00 -0.00000000000E+00 -0.74505805969E-08  0.93827000000E+00  0.93827000000E+00 0. -1.
     999902    2    1    2    0    0 -0.22826859894E-01  0.47557871369E-02 -0.88563492257E-02  0.10189877073E+01  0.10186823988E+01 0.  0.
     999903    2    3    3    0    0 -0.33066379339E-01  0.71598836800E-01 -0.10314497769E+00  0.13137113100E+00  0.19992717771E-01 0.  0.
         14    1    1    2    0    0  0.22826859894E-01 -0.47557871369E-02  0.88563492257E-02  0.24942292707E-01  0.00000000000E+00 0.  1.
     999901    1    3    3    0    0  0.10239519446E-01 -0.66843049663E-01  0.94288628468E-01  0.88761657629E+00  0.88000000000E+00 0.  1.
        -11    1    4    4    0    0 -0.11236736209E-01  0.33640546526E-01 -0.61178672035E-01  0.70718043272E-01  0.51100000000E-03 0. -1.
         11    1    4    4    0    0 -0.21829643131E-01  0.37958290273E-01 -0.41966305659E-01  0.60653087731E-01  0.51100000000E-03 0.  1.
</event>
<event>
 8    1  0.1051655E+005  0.1043930E+01  0.7957747E-01            NaN
         13   -1    0    0    0    0  0.00000000000E+00  0.00000000000E+00  0.74505805969E-08  0.10566000000E+00  0.10566000000E+00 0. -1.
     999900   -1    0    0    0    0 -0.00000000000E+00 -0.00000000000E+00 -0.74505805969E-08  0.93827000000E+00  0.93827000000E+00 0. -1.
     999902    2    1    2    0    0  0.12825137837E-02 -0.20114030740E-01  0.12683133195E-01  0.10201165386E+01  0.10198385517E+01 0.  0.
     999903    2    3    3    0    0  0.88758703379E-02  0.10607336499E+00 -0.66517571086E-01  0.12756196358E+00  0.22740436562E-01 0.  0.
         14    1    1    2    0    0 -0.12825137837E-02  0.20114030740E-01 -0.12683133195E-01  0.23813461359E-01  0.00000000000E+00 0.  1.
     999901    1    3    3    0    0 -0.75933565543E-02 -0.12618739573E+00  0.79200704281E-01  0.89255457506E+00  0.88000000000E+00 0.  1.
        -11    1    4    4    0    0  0.15376230464E-01  0.68356773257E-01 -0.37068169923E-01  0.79267819800E-01  0.51100000000E-03 0. -1.
         11    1    4    4    0    0 -0.65003601261E-02  0.37716591732E-01 -0.29449401163E-01  0.48294143780E-01  0.51100000000E-03 0.  1.
</event>
<event>
 8    1  0.1051655E+005  0.1043930E+01  0.7957747E-01            NaN
         13   -1    0    0    0    0  0.00000000000E+00  0.00000000000E+00  0.74505805969E-08  0.10566000000E+00  0.10566000000E+00 0.  1.
     999900   -1    0    0    0    0 -0.00000000000E+00 -0.00000000000E+00 -0.74505805969E-08  0.93827000000E+00  0.93827000000E+00 0.  1.
     999902    2    1    2    0    0 -0.82282296522E-02 -0.13655658128E-01  0.18030976021E-01  0.10198614135E+01  0.10195773663E+01 0.  0.
     999903    2    3    3    0    0  0.37617084393E-01 -0.12132159678E+00 -0.26031954131E-01  0.13102212034E+00  0.18845649377E-01 0.  0.
         14    1    1    2    0    0  0.82282296522E-02  0.13655658128E-01 -0.18030976021E-01  0.24068586548E-01  0.00000000000E+00 0. -1.
     999901    1    3    3    0    0 -0.45845314045E-01  0.10766593865E+00  0.44062930152E-01  0.88883929311E+00  0.88000000000E+00 0. -1.
        -11    1    4    4    0    0  0.68523563426E-02 -0.91591421795E-02 -0.62522192933E-02  0.13045920435E-01  0.51100000000E-03 0. -1.
         11    1    4    4    0    0  0.30764728050E-01 -0.11216245460E+00 -0.19779734838E-01  0.11797619991E+00  0.51100000000E-03 0.  1.
</event>
<event>
 8    1  0.1051655E+005  0.1043930E+01  0.7957747E-01            NaN
         13   -1    0    0    0    0  0.00000000000E+00  0.00000000000E+00  0.74505805969E-08  0.10566000000E+00  0.10566000000E+00 0.  1.
     999900   -1    0    0    0    0 -0.00000000000E+00 -0.00000000000E+00 -0.74505805969E-08  0.93827000000E+00  0.93827000000E+00 0. -1.
     999902    2    1    2    0    0 -0.12380082557E-01 -0.18455616341E-01 -0.13502207404E-01  0.10179264267E+01  0.10175942337E+01 0.  0.
     999903    2    3    3    0    0  0.10233535257E+00 -0.74586538265E-01  0.74034951415E-02  0.12846177883E+00  0.20296324847E-01 0.  0.
         14    1    1    2    0    0  0.12380082557E-01  0.18455616341E-01  0.13502207404E-01  0.26003573282E-01  0.00000000000E+00 0.  1.
     999901    1    3    3    0    0 -0.11471543513E+00  0.56130921923E-01 -0.20905702545E-01  0.88946464789E+00  0.88000000000E+00 0. -1.
        -11    1    4    4    0    0  0.68238598357E-01 -0.37632105561E-01  0.30304347554E-02  0.77987988373E-01  0.51100000000E-03 0. -1.
         11    1    4    4    0    0  0.34096754215E-01 -0.36954432704E-01  0.43730603861E-02  0.50473790452E-01  0.51100000000E-03 0.  1.
</event>
<event>
 8    1  0.1051655E+005  0.1043930E+01  0.7957747E-01            NaN
         13   -1    0    0    0    0  0.00000000000E+00  0.00000000000E+00  0.74505805969E-08  0.10566000000E+00  0.10566000000E+00 0. -1.
     999900   -1    0    0    0    0 -0.00000000000E+00 -0.00000000000E+00 -0.74505805969E-08  0.93827000000E+00  0.93827000000E+00 0.  1.
     999902    2    1    2    0    0 -0.85423500118E-02  0.15737664774E-01  0.15814549469E-01  0.10200397130E+01  0.10197599082E+01 0.  0.
     999903    2    3    3    0    0  0.21278488606E-01 -0.12354372126E+00 -0.15670967460E-01  0.12803078669E+00  0.20747963268E-01 0.  0.
         14    1    1    2    0    0  0.85423500118E-02 -0.15737664774E-01 -0.15814549469E-01  0.23890286963E-01  0.00000000000E+00 0.  1.
     999901    1    3    3    0    0 -0.29820838618E-01  0.13928138603E+00  0.31485516929E-01  0.89200892635E+00  0.88000000000E+00 0.  1.
        -11    1    4    4    0    0  0.12888843710E-01 -0.10922452498E+00 -0.17344806249E-01  0.11134281555E+00  0.51100000000E-03 0.  1.
         11    1    4    4    0    0  0.83896448967E-02 -0.14319196272E-01  0.16738387896E-02  0.16687971137E-01  0.51100000000E-03 0. -1.
</event>
<event>
 8    1  0.1051655E+005  0.1043930E+01  0.7957747E-01            NaN
         13   -1    0    0    0    0  0.00000000000E+00  0.00000000000E+00  0.74505805969E-08  0.10566000000E+00  0.10566000000E+00 0. -1.
     999900   -1    0    0    0    0 -0.00000000000E+00 -0.00000000000E+00 -0.74505805969E-08  0.93827000000E+00  0.93827000000E+00 0.  1.
     999902    2    1    2    0    0 -0.15322456316E-01  0.11202819651E-01 -0.14444826163E-01  0.10200776660E+01  0.10197987599E+01 0.  0.
     999903    2    3    3    0    0 -0.23652103889E-01 -0.64145625701E-01 -0.11047838745E+00  0.13161313875E+00  0.21034754176E-01 0.  0.
         14    1    1    2    0    0  0.15322456316E-01 -0.11202819651E-01  0.14444826163E-01  0.23852334027E-01  0.00000000000E+00 0. -1.
     999901    1    3    3    0    0  0.83296475730E-02  0.75348445351E-01  0.96033561283E-01  0.88846452723E+00  0.88000000000E+00 0. -1.
        -11    1    4    4    0    0 -0.19806362737E-01 -0.24397041269E-01 -0.44264457263E-01  0.54287299853E-01  0.51100000000E-03 0.  1.
         11    1    4    4    0    0 -0.38457411514E-02 -0.39748584432E-01 -0.66213930183E-01  0.77325838894E-01  0.51100000000E-03 0. -1.
</event>
<event>
 8    1  0.1051655E+005  0.1043930E+01  0.7957747E-01            NaN
         13   -1    0    0    0    0  0.00000000000E+00  0.00000000000E+00  0.74505805969E-08  0.10566000000E+00  0.10566000000E+00 0.  1.
     999900   -1    0    0    0    0 -0.00000000000E+00 -0.00000000000E+00 -0.74505805969E-08  0.93827000000E+00  0.93827000000E+00 0. -1.
     999902    2    1    2    0    0  0.22958791987E-01 -0.18556453731E-02  0.38263467818E-02  0.10205806857E+01  0.10203135525E+01 0.  0.
     999903    2    3    3    0    0  0.10858669220E+00 -0.58646732516E-01  0.47010567262E-01  0.13355067392E+00  0.19881652661E-01 0.  0.
         14    1    1    2    0    0 -0.22958791987E-01  0.18556453731E-02 -0.38263467818E-02  0.23349314315E-01  0.00000000000E+00 0.  1.
     999901    1    3    3    0    0 -0.85627900213E-01  0.56791087142E-01 -0.43184220480E-01  0.88703001177E+00  0.88000000000E+00 0.  1.
        -11    1    4    4    0    0  0.88594106467E-02 -0.28645232556E-02 -0.14374983068E-02  0.94351562187E-02  0.51100000000E-03 0. -1.
         11    1    4    4    0    0  0.99727281553E-01 -0.55782209260E-01  0.48448065569E-01  0.12411551770E+00  0.51100000000E-03 0.  1.
</event>
<event>
 8    1  0.1051655E+005  0.1043930E+01  0.7957747E-01            NaN
         13   -1    0    0    0    0  0.00000000000E+00  0.00000000000E+00  0.74505805969E-08  0.10566000000E+00  0.10566000000E+00 0. -1.
     999900   -1    0    0    0    0 -0.00000000000E+00 -0.00000000000E+00 -0.74505805969E-08  0.93827000000E+00  0.93827000000E+00 0.  1.
     999902    2    1    2    0    0 -0.22043516395E-01 -0.80815833043E-02  0.68361299508E-03  0.10204417917E+01  0.10201714338E+01 0.  0.
     999903    2    3    3    0    0  0.31214861139E-01  0.51085722816E-01  0.11328710679E+00  0.12970233947E+00  0.20114911589E-01 0.  0.
         14    1    1    2    0    0  0.22043516395E-01  0.80815833043E-02 -0.68361299508E-03  0.23488208329E-01  0.00000000000E+00 0. -1.
     999901    1    3    3    0    0 -0.53258377534E-01 -0.59167306120E-01 -0.11260349379E+00  0.89073945220E+00  0.88000000000E+00 0.  1.
        -11    1    4    4    0    0  0.19570345346E-01  0.21706026000E-01  0.71988779977E-01  0.77696818115E-01  0.51100000000E-03 0.  1.
         11    1    4    4    0    0  0.11644515793E-01  0.29379696816E-01  0.41298326811E-01  0.52005521356E-01  0.51100000000E-03 0. -1.
</event>
<event>
 8    1  0.1051655E+005  0.1043930E+01  0.7957747E-01            NaN
         13   -1    0    0    0    0  0.00000000000E+00  0.00000000000E+00  0.74505805969E-08  0.10566000000E+00  0.10566000000E+00 0. -1.
     999900   -1    0    0    0    0 -0.00000000000E+00 -0.00000000000E+00 -0.74505805969E-08  0.93827000000E+00  0.93827000000E+00 0. -1.
     999902    2    1    2    0    0  0.16027359343E-01  0.14156499081E-01  0.10202612506E-01  0.10202366251E+01  0.10199614675E+01 0.  0.
     999903    2    3    3    0    0 -0.60367133640E-01  0.46474145445E-01 -0.10269635168E+00  0.12915485276E+00  0.18176862311E-01 0.  0.
         14    1    1    2    0    0 -0.16027359343E-01 -0.14156499081E-01 -0.10202612506E-01  0.23693374932E-01  0.00000000000E+00 0.  1.
     999901    1    3    3    0    0  0.76394492983E-01 -0.32317646365E-01  0.11289896419E+00  0.89108177231E+00  0.88000000000E+00 0.  1.
        -11    1    4    4    0    0 -0.37334377379E-01  0.18928806916E-01 -0.62846920059E-01  0.75512594627E-01  0.51100000000E-03 0.  1.
         11    1    4    4    0    0 -0.23032756261E-01  0.27545338529E-01 -0.39849431626E-01  0.53642258133E-01  0.51100000000E-03 0. -1.
</event>
<event>
 8    1  0.1051655E+005  0.1043930E+01  0.7957747E-01            NaN
         13   -1    0    0    0    0  0.00000000000E+00  0.00000000000E+00  0.74505805969E-08  0.10566000000E+00  0.10566000000E+00 0.  1.
     999900   -1    0    0    0    0 -0.00000000000E+00 -0.00000000000E+00 -0.74505805969E-08  0.93827000000E+00  0.93827000000E+00 0. -1.
     999902    2    1    2    0    0 -0.16549647843E-01 -0.17618707125E-01  0.19484959457E-02  0.10196790965E+01  0.10193906776E+01 0.  0.
     999903    2    3    3    0    0 -0.89427587265E-01 -0.38589506920E-02  0.94647379236E-01  0.13170747087E+00  0.19404809239E-01 0.  0.
         14    1    1    2    0    0  0.16549647843E-01  0.17618707125E-01 -0.19484959457E-02  0.24250903508E-01  0.00000000000E+00 0.  1.
     999901    1    3    3    0    0  0.72877939421E-01 -0.13759756433E-01 -0.92698883290E-01  0.88797162562E+00  0.88000000000E+00 0. -1.
        -11    1    4    4    0    0 -0.22299661575E-01  0.15707425542E-02  0.36118876726E-01  0.42480307384E-01  0.51100000000E-03 0. -1.
         11    1    4    4    0    0 -0.67127925690E-01 -0.54296932462E-02  0.58528502510E-01  0.89227163483E-01  0.51100000000E-03 0.  1.
</event>
<event>
 8    1  0.1051655E+005  0.1043930E+01  0.7957747E-01            NaN
         13   -1    0    0    0    0  0.00000000000E+00  0.00000000000E+00  0.74505805969E-08  0.10566000000E+00  0.10566000000E+00 0.  1.
     999900   -1    0    0    0    0 -0.00000000000E+00 -0.00000000000E+00 -0.74505805969E-08  0.93827000000E+00  0.93827000000E+00 0. -1.
     999902    2    1    2    0    0 -0.75899621407E-02  0.18562269058E-01  0.13351918835E-01  0.10198376964E+01  0.10195530824E+01 0.  0.
     999903    2    3    3    0    0 -0.19318978057E-01  0.10475546039E+00 -0.74899735684E-01  0.13115598137E+00  0.15652209049E-01 0.  0.
         14    1    1    2    0    0  0.75899621407E-02 -0.18562269058E-01 -0.13351918835E-01  0.24092303635E-01  0.00000000000E+00 0. -1.
     999901    1    3    3    0    0  0.11729015917E-01 -0.86193191332E-01  0.88251654519E-01  0.88868171500E+00  0.88000000000E+00 0.  1.
        -11    1    4    4    0    0 -0.59234436246E-02  0.28372153561E-01 -0.12289901103E-01  0.31486013914E-01  0.51100000000E-03 0.  1.
         11    1    4    4    0    0 -0.13395534433E-01  0.76383306829E-01 -0.62609834580E-01  0.99669967453E-01  0.51100000000E-03 0. -1.
</event>
<event>
 8    1  0.1051655E+005  0.1043930E+01  0.7957747E-01            NaN
         13   -1    0    0    0    0  0.00000000000E+00  0.00000000000E+00  0.74505805969E-08  0.10566000000E+00  0.10566000000E+00 0. -1.
     999900   -1    0    0    0    0 -0.00000000000E+00 -0.00000000000E+00 -0.74505805969E-08  0.93827000000E+00  0.93827000000E+00 0.  1.
     999902    2    1    2    0    0 -0.14215115384E-02  0.16422853273E-01  0.14431607283E-01  0.10220210499E+01  0.10217861931E+01 0.  0.
     999903    2    3    3    0    0  0.48409989253E-01  0.11997428007E+00  0.30479153831E-01  0.13440424059E+00  0.19954100644E-01 0.  0.
         14    1    1    2    0    0  0.14215115384E-02 -0.16422853273E-01 -0.14431607283E-01  0.21908950077E-01  0.00000000000E+00 0.  1.
     999901    1    3    3    0    0 -0.49831500792E-01 -0.10355142680E+00 -0.16047546548E-01  0.88761680933E+00  0.88000000000E+00 0.  1.
        -11    1    4    4    0    0  0.35056171939E-01  0.10527094063E+00  0.27504497643E-01  0.11431388649E+00  0.51100000000E-03 0. -1.
         11    1    4    4    0    0  0.13353817314E-01  0.14703339439E-01  0.29746561878E-02  0.20090354103E-01  0.51100000000E-03 0.  1.
</event>
<event>
 8    1  0.1051655E+005  0.1043930E+01  0.7957747E-01            NaN
         13   -1    0    0    0    0  0.00000000000E+00  0.00000000000E+00  0.74505805969E-08  0.10566000000E+00  0.10566000000E+00 0. -1.
     999900   -1    0    0    0    0 -0.00000000000E+00 -0.00000000000E+00 -0.74505805969E-08  0.93827000000E+00  0.93827000000E+00 0.  1.
     999902    2    1    2    0    0  0.21658852654E-01 -0.68634353107E-02 -0.69302834034E-02  0.10201762325E+01  0.10198996538E+01 0.  0.
     999903    2    3    3    0    0 -0.10561657914E+00  0.29056677316E-01  0.61823899536E-01  0.12764252014E+00  0.21708664333E-01 0.  0.
         14    1    1    2    0    0 -0.21658852654E-01  0.68634353107E-02  0.69302834034E-02  0.23753767503E-01  0.00000000000E+00 0.  1.
     999901    1    3    3    0    0  0.12727543179E+00 -0.35920112627E-01 -0.68754182940E-01  0.89253371236E+00  0.88000000000E+00 0.  1.
        -11    1    4    4    0    0 -0.12779372769E-01 -0.72375510781E-03  0.14234766262E-01  0.19150088286E-01  0.51100000000E-03 0. -1.
         11    1    4    4    0    0 -0.92837206370E-01  0.29780432424E-01  0.47589133274E-01  0.10849243185E+00  0.51100000000E-03 0.  1.
</event>
<event>
 8    1  0.1051655E+005  0.1043930E+01  0.7957747E-01            NaN
         13   -1    0    0    0    0  0.00000000000E+00  0.00000000000E+00  0.74505805969E-08  0.10566000000E+00  0.10566000000E+00 0.  1.
     999900   -1    0    0    0    0 -0.00000000000E+00 -0.00000000000E+00 -0.74505805969E-08  0.93827000000E+00  0.93827000000E+00 0.  1.
     999902    2    1    2    0    0  0.17325762280E-01 -0.11707389838E-01  0.70044580928E-02  0.10218776203E+01  0.10216396446E+01 0.  0.
     999903    2    3    3    0    0 -0.10855528059E+00 -0.65978365663E-01  0.25652001373E-01  0.13106950035E+00  0.19590688319E-01 0.  0.
         14    1    1    2    0    0 -0.17325762280E-01  0.11707389838E-01 -0.70044580928E-02  0.22052379658E-01  0.00000000000E+00 0. -1.
     999901    1    3    3    0    0  0.12588104287E+00  0.54270975825E-01 -0.18647543280E-01  0.89080811999E+00  0.88000000000E+00 0. -1.
        -11    1    4    4    0    0 -0.95986049694E-01 -0.64396544179E-01  0.20536878024E-01  0.11739787527E+00  0.51100000000E-03 0.  1.
         11    1    4    4    0    0 -0.12569230895E-01 -0.15818214839E-02  0.51151233484E-02  0.13671625081E-01  0.51100000000E-03 0. -1.
</event>
<event>
 8    1  0.1051655E+005  0.1043930E+01  0.7957747E-01            NaN
         13   -1    0    0    0    0  0.00000000000E+00  0.00000000000E+00  0.74505805969E-08  0.10566000000E+00  0.10566000000E+00 0. -1.
     999900   -1    0    0    0    0 -0.00000000000E+00 -0.00000000000E+00 -0.74505805969E-08  0.93827000000E+00  0.93827000000E+00 0.  1.
     999902    2    1    2    0    0  0.90804624512E-02 -0.56969394689E-02  0.11029726224E-01  0.10285493375E+01  0.10284343319E+01 0.  0.
     999903    2    3    3    0    0  0.10041248701E-01 -0.89337243688E-01  0.10491196039E+00  0.13961148959E+00  0.20071841135E-01 0.  0.
         14    1    1    2    0    0 -0.90804624512E-02  0.56969394689E-02 -0.11029726224E-01  0.15380662476E-01  0.00000000000E+00 0.  1.
     999901    1    3    3    0    0 -0.96078625005E-03  0.83640304219E-01 -0.93882234168E-01  0.88893784794E+00  0.88000000000E+00 0.  1.
        -11    1    4    4    0    0 -0.40339019025E-02 -0.51855694962E-01  0.61724906797E-01  0.80718713473E-01  0.51100000000E-03 0. -1.
         11    1    4    4    0    0  0.14075150604E-01 -0.37481548726E-01  0.43187053594E-01  0.58892776115E-01  0.51100000000E-03 0.  1.
</event>
<event>
 8    1  0.1051655E+005  0.1043930E+01  0.7957747E-01            NaN
         13   -1    0    0    0    0  0.00000000000E+00  0.00000000000E+00  0.74505805969E-08  0.10566000000E+00  0.10566000000E+00 0. -1.
     999900   -1    0    0    0    0 -0.00000000000E+00 -0.00000000000E+00 -0.74505805969E-08  0.93827000000E+00  0.93827000000E+00 0. -1.
     999902    2    1    2    0    0  0.59369577017E-02 -0.20805977838E-01 -0.17373628212E-01  0.10161815021E+01  0.10158025724E+01 0.  0.
     999903    2    3    3    0    0 -0.12502120742E-03  0.10247720489E+00  0.66231311123E-01  0.12364283253E+00  0.19984251558E-01 0.  0.
         14    1    1    2    0    0 -0.59369577017E-02  0.20805977838E-01  0.17373628212E-01  0.27748497938E-01  0.00000000000E+00 0. -1.
     999901    1    3    3    0    0  0.60619789091E-02 -0.12328318273E+00 -0.83604939334E-01  0.89253866953E+00  0.88000000000E+00 0. -1.
        -11    1    4    4    0    0  0.69976234309E-02  0.18753304571E-01  0.88488088098E-02  0.21890995966E-01  0.51100000000E-03 0. -1.
         11    1    4    4    0    0 -0.71226446383E-02  0.83723900319E-01  0.57382502313E-01  0.10175183656E+00  0.51100000000E-03 0.  1.
</event>
<event>
 8    1  0.1051655E+005  0.1043930E+01  0.7957747E-01            NaN
         13   -1    0    0    0    0  0.00000000000E+00  0.00000000000E+00  0.74505805969E-08  0.10566000000E+00  0.10566000000E+00 0.  1.
     999900   -1    0    0    0    0 -0.00000000000E+00 -0.00000000000E+00 -0.74505805969E-08  0.93827000000E+00  0.93827000000E+00 0.  1.
     999902    2    1    2    0    0 -0.31659679046E-02 -0.23156338439E-01  0.22249605740E-02  0.10204525680E+01  0.10201824610E+01 0.  0.
     999903    2    3    3    0    0  0.12109836048E+00  0.29624715543E-01 -0.29288695783E-01  0.12959872282E+00  0.19888805277E-01 0.  0.
         14    1    1    2    0    0  0.31659679046E-02  0.23156338439E-01 -0.22249605740E-02  0.23477431977E-01  0.00000000000E+00 0.  1.
     999901    1    3    3    0    0 -0.12426432838E+00 -0.52781053982E-01  0.31513656357E-01  0.89085384520E+00  0.88000000000E+00 0. -1.
        -11    1    4    4    0    0  0.99272085585E-01  0.17244286752E-01 -0.19332621395E-01  0.10259787412E+00  0.51100000000E-03 0. -1.
         11    1    4    4    0    0  0.21826274894E-01  0.12380428791E-01 -0.99560743875E-02  0.27000848709E-01  0.51100000000E-03 0.  1.
</event>
<event>
 8    1  0.1051655E+005  0.1043930E+01  0.7957747E-01            NaN
         13   -1    0    0    0    0  0.00000000000E+00  0.00000000000E+00  0.74505805969E-08  0.10566000000E+00  0.10566000000E+00 0. -1.
     999900   -1    0    0    0    0 -0.00000000000E+00 -0.00000000000E+00 -0.74505805969E-08  0.93827000000E+00  0.93827000000E+00 0. -1.
     999902    2    1    2    0    0 -0.12146262008E-01  0.80890270660E-02  0.17766088693E-01  0.10209387419E+01  0.10206798307E+01 0.  0.
     999903    2    3    3    0    0  0.69552314247E-01 -0.95337011368E-01  0.52479011639E-01  0.13044641193E+00  0.18318012164E-01 0.  0.
         14    1    1    2    0    0  0.12146262008E-01 -0.80890270660E-02 -0.17766088693E-01  0.22991258058E-01  0.00000000000E+00 0.  1.
     999901    1    3    3    0    0 -0.81698576255E-01  0.10342603843E+00 -0.34712922945E-01  0.89049233001E+00  0.88000000000E+00 0.  1.
        -11    1    4    4    0    0  0.39688599234E-01 -0.48359350286E-01  0.36920941445E-01  0.72644536666E-01  0.51100000000E-03 0.  1.
         11    1    4    4    0    0  0.29863715013E-01 -0.46977661081E-01  0.15558070194E-01  0.57801875265E-01  0.51100000000E-03 0. -1.
</event>
<event>
 8    1  0.1051655E+005  0.1043930E+01  0.7957747E-01            NaN
         13   -1    0    0    0    0  0.00000000000E+00  0.00000000000E+00  0.74505805969E-08  0.10566000000E+00  0.10566000000E+00 0.  1.
     999900   -1    0    0    0    0 -0.00000000000E+00 -0.00000000000E+00 -0.74505805969E-08  0.93827000000E+00  0.93827000000E+00 0.  1.
     999902    2    1    2    0    0 -0.20704426407E-01  0.86159985214E-02 -0.75184501075E-02  0.10202776049E+01  0.10200034094E+01 0.  0.
     999903    2    3    3    0    0 -0.17173252350E-01  0.18091328395E-01  0.12613623992E+00  0.13012827625E+00  0.20020002483E-01 0.  0.
         14    1    1    2    0    0  0.20704426407E-01 -0.86159985214E-02  0.75184501075E-02  0.23652395130E-01  0.00000000000E+00 0.  1.
     999901    1    3    3    0    0 -0.35311740573E-02 -0.94753298737E-02 -0.13365469003E+00  0.89014932862E+00  0.88000000000E+00 0.  1.
        -11    1    4    4    0    0 -0.16739848876E-02 -0.43503804828E-02  0.20044088226E-01  0.20585301299E-01  0.51100000000E-03 0. -1.
         11    1    4    4    0    0 -0.15499267462E-01  0.22441708878E-01  0.10609215170E+00  0.10954297496E+00  0.51100000000E-03 0.  1.
</event>
<event>
 8    1  0.1051655E+005  0.1043930E+01  0.7957747E-01            NaN
         13   -1    0    0    0    0  0.00000000000E+00  0.00000000000E+00  0.74505805969E-08  0.10566000000E+00  0.10566000000E+00 0.  1.
     999900   -1    0    0    0    0 -0.00000000000E+00 -0.00000000000E+00 -0.74505805969E-08  0.93827000000E+00  0.93827000000E+00 0.  1.
     999902    2    1    2    0    0 -0.14283065437E-02  0.19275796162E-01  0.13594846145E-01  0.10202991680E+01  0.10200254782E+01 0.  0.
     999903    2    3    3    0    0  0.34435610526E-02  0.13126594613E+00  0.74435232124E-02  0.13316706539E+00  0.20867547580E-01 0.  0.
         14    1    1    2    0    0  0.14283065437E-02 -0.19275796162E-01 -0.13594846145E-01  0.23630831957E-01  0.00000000000E+00 0. -1.
     999901    1    3    3    0    0 -0.48718675963E-02 -0.11199014996E+00  0.61513229324E-02  0.88713210265E+00  0.88000000000E+00 0. -1.
        -11    1    4    4    0    0  0.72701856007E-02  0.64863539118E-01  0.12510447154E-01  0.66459812779E-01  0.51100000000E-03 0. -1.
         11    1    4    4    0    0 -0.38266245481E-02  0.66402407008E-01 -0.50669239414E-02  0.66707252612E-01  0.51100000000E-03 0.  1.
</event>
<event>
 8    1  0.1051655E+005  0.1043930E+01  0.7957747E-01            NaN
         13   -1    0    0    0    0  0.00000000000E+00  0.00000000000E+00  0.74505805969E-08  0.10566000000E+00  0.10566000000E+00 0.  1.
     999900   -1    0    0    0    0 -0.00000000000E+00 -0.00000000000E+00 -0.74505805969E-08  0.93827000000E+00  0.93827000000E+00 0. -1.
     999902    2    1    2    0    0 -0.16993655212E-01 -0.63109202558E-02 -0.11625573252E-01  0.10223947734E+01  0.10221679444E+01 0.  0.
     999903    2    3    3    0    0 -0.96308524235E-01 -0.76915958680E-01 -0.51522829330E-01  0.13511369563E+00  0.20241350364E-01 0.  0.
         14    1    1    2    0    0  0.16993655212E-01  0.63109202558E-02  0.11625573252E-01  0.21535226616E-01  0.00000000000E+00 0.  1.
     999901    1    3    3    0    0  0.79314869023E-01  0.70605038424E-01  0.39897256078E-01  0.88728107775E+00  0.88000000000E+00 0.  1.
        -11    1    4    4    0    0 -0.62772254387E-01 -0.41843158813E-01 -0.23219055974E-01  0.78934096192E-01  0.51100000000E-03 0.  1.
         11    1    4    4    0    0 -0.33536269849E-01 -0.35072799867E-01 -0.28303773356E-01  0.56179599438E-01  0.51100000000E-03 0. -1.
</event>
<event>
 8    1  0.1051655E+005  0.1043930E+01  0.7957747E-01            NaN
         13   -1    0    0    0    0  0.00000000000E+00  0.00000000000E+00  0.74505805969E-08  0.10566000000E+00  0.10566000000E+00 0.  1.
     999900   -1    0    0    0    0 -0.00000000000E+00 -0.00000000000E+00 -0.74505805969E-08  0.93827000000E+00  0.93827000000E+00 0. -1.
     999902    2    1    2    0    0 -0.78590999494E-02 -0.95353519049E-02 -0.19268556929E-01  0.10210397035E+01  0.10207830869E+01 0.  0.
     999903    2    3    3    0    0  0.11890579507E-01  0.12225194302E+00  0.35585203187E-01  0.12931840402E+00  0.19235890389E-01 0.  0.
         14    1    1    2    0    0  0.78590999494E-02  0.95353519049E-02  0.19268556929E-01  0.22890296505E-01  0.00000000000E+00 0.  1.
     999901    1    3    3    0    0 -0.19749679457E-01 -0.13178729492E+00 -0.54853760116E-01  0.89172129948E+00  0.88000000000E+00 0. -1.
        -11    1    4    4    0    0  0.92188175649E-02  0.69600629750E-01  0.29827091260E-01  0.76283358295E-01  0.51100000000E-03 0. -1.
         11    1    4    4    0    0  0.26717619425E-02  0.52651313269E-01  0.57581119278E-02  0.53035045723E-01  0.51100000000E-03 0.  1.
</event>
<event>
 8    1  0.1051655E+005  0.1043930E+01  0.7957747E-01            NaN
         13   -1    0    0    0    0  0.00000000000E+00  0.00000000000E+00  0.74505805969E-08  0.10566000000E+00  0.10566000000E+00 0.  1.
     999900   -1    0    0    0    0 -0.00000000000E+00 -0.00000000000E+00 -0.74505805969E-08  0.93827000000E+00  0.93827000000E+00 0. -1.
     999902    2    1    2    0    0 -0.11776927404E-01 -0.24037674278E-02 -0.21347124430E-01  0.10194315544E+01  0.10191371449E+01 0.  0.
     999903    2    3    3    0    0 -0.89817592685E-01 -0.82154478223E-01  0.41587650586E-01  0.13015583379E+00  0.19860768857E-01 0.  0.
         14    1    1    2    0    0  0.11776927404E-01  0.24037674278E-02  0.21347124430E-01  0.24498445631E-01  0.00000000000E+00 0.  1.
     999901    1    3    3    0    0  0.78040665281E-01  0.79750710796E-01 -0.62934775016E-01  0.88927572058E+00  0.88000000000E+00 0. -1.
        -11    1    4    4    0    0 -0.30833594912E-01 -0.40885961080E-01  0.20260790337E-01  0.55073887957E-01  0.51100000000E-03 0. -1.
         11    1    4    4    0    0 -0.58983997773E-01 -0.41268517143E-01  0.21326860249E-01  0.75081945829E-01  0.51100000000E-03 0.  1.
</event>
<event>
 8    1  0.1051655E+005  0.1043930E+01  0.7957747E-01            NaN
         13   -1    0    0    0    0  0.00000000000E+00  0.00000000000E+00  0.74505805969E-08  0.10566000000E+00  0.10566000000E+00 0.  1.
     999900   -1    0    0    0    0 -0.00000000000E+00 -0.00000000000E+00 -0.74505805969E-08  0.93827000000E+00  0.93827000000E+00 0. -1.
     999902    2    1    2    0    0 -0.17465680949E-02 -0.21938828652E-01  0.48497389742E-02  0.10213937476E+01  0.10211450950E+01 0.  0.
     999903    2    3    3    0    0 -0.44289517280E-01  0.11701211463E+00  0.22733860844E-01  0.12929671873E+00  0.23396938562E-01 0.  0.
         14    1    1    2    0    0  0.17465680949E-02  0.21938828652E-01 -0.48497389742E-02  0.22536252369E-01  0.00000000000E+00 0.  1.
     999901    1    3    3    0    0  0.42542949185E-01 -0.13895094328E+00 -0.17884121870E-01  0.89209702890E+00  0.88000000000E+00 0. -1.
        -11    1    4    4    0    0 -0.28569979961E-01  0.61059053010E-01  0.22829501014E-01  0.71175128711E-01  0.51100000000E-03 0.  1.
         11    1    4    4    0    0 -0.15719537318E-01  0.55953061619E-01 -0.95640170139E-04  0.58121590016E-01  0.51100000000E-03 0. -1.
</event>
<event>
 8    1  0.1051655E+005  0.1043930E+01  0.7957747E-01            NaN
         13   -1    0    0    0    0  0.00000000000E+00  0.00000000000E+00  0.74505805969E-08  0.10566000000E+00  0.10566000000E+00 0.  1.
     999900   -1    0    0    0    0 -0.00000000000E+00 -0.00000000000E+00 -0.74505805969E-08  0.93827000000E+00  0.93827000000E+00 0. -1.
     999902    2    1    2    0    0  0.67741954812E-02  0.14709786152E-01  0.18074769134E-01  0.10196614028E+01  0.10193725577E+01 0.  0.
     999903    2    3    3    0    0 -0.36349093869E-01  0.10917754832E+00  0.62724203166E-01  0.13243124765E+00  0.19045104570E-01 0.  0.
         14    1    1    2    0    0 -0.67741954812E-02 -0.14709786152E-01 -0.18074769134E-01  0.24268597246E-01  0.00000000000E+00 0. -1.
     999901    1    3    3    0    0  0.43123289350E-01 -0.94467762168E-01 -0.44649434032E-01  0.88723015511E+00  0.88000000000E+00 0.  1.
        -11    1    4    4    0    0 -0.48829118061E-02  0.42028275307E-01  0.19446066178E-01  0.46568544789E-01  0.51100000000E-03 0. -1.
         11    1    4    4    0    0 -0.31466182063E-01  0.67149273013E-01  0.43278136988E-01  0.85862702857E-01  0.51100000000E-03 0.  1.
</event>
<event>
 8    1  0.1051655E+005  0.1043930E+01  0.7957747E-01            NaN
         13   -1    0    0    0    0  0.00000000000E+00  0.00000000000E+00  0.74505805969E-08  0.10566000000E+00  0.10566000000E+00 0. -1.
     999900   -1    0    0    0    0 -0.00000000000E+00 -0.00000000000E+00 -0.74505805969E-08  0.93827000000E+00  0.93827000000E+00 0.  1.
     999902    2    1    2    0    0  0.21083306382E-01 -0.43788596094E-02 -0.10423176331E-01  0.10200067305E+01  0.10197261433E+01 0.  0.
     999903    2    3    3    0    0  0.98385584257E-02 -0.11911009345E+00 -0.51296756247E-01  0.13154719291E+00  0.19730564299E-01 0.  0.
         14    1    1    2    0    0 -0.21083306382E-01  0.43788596094E-02  0.10423176331E-01  0.23923269515E-01  0.00000000000E+00 0. -1.
     999901    1    3    3    0    0  0.11244747956E-01  0.11473123384E+00  0.40873579917E-01  0.88845953758E+00  0.88000000000E+00 0.  1.
        -11    1    4    4    0    0  0.39335779550E-02 -0.40893463084E-01 -0.76855539309E-02  0.41798052810E-01  0.51100000000E-03 0. -1.
         11    1    4    4    0    0  0.59049804707E-02 -0.78216630364E-01 -0.43611202316E-01  0.89749140098E-01  0.51100000000E-03 0.  1.
</event>
<event>
 8    1  0.1051655E+005  0.1043930E+01  0.7957747E-01            NaN
         13   -1    0    0    0    0  0.00000000000E+00  0.00000000000E+00  0.74505805969E-08  0.10566000000E+00  0.10566000000E+00 0. -1.
     999900   -1    0    0    0    0 -0.00000000000E+00 -0.00000000000E+00 -0.74505805969E-08  0.93827000000E+00  0.93827000000E+00 0. -1.
     999902    2    1    2    0    0  0.18357645110E-02  0.22579677142E-01  0.14144200027E-02  0.10212317085E+01  0.10209794269E+01 0.  0.
     999903    2    3    3    0    0 -0.73639882260E-01 -0.95170394769E-01  0.42370373106E-01  0.12924569812E+00  0.20711486332E-01 0.  0.
         14    1    1    2    0    0 -0.18357645110E-02 -0.22579677142E-01 -0.14144200027E-02  0.22698291458E-01  0.00000000000E+00 0.  1.
     999901    1    3    3    0    0  0.75475646771E-01  0.11775007191E+00 -0.40955953103E-01  0.89198601042E+00  0.88000000000E+00 0. -1.
        -11    1    4    4    0    0 -0.69461378245E-01 -0.91075155618E-01  0.34895078905E-01  0.11973927798E+00  0.51100000000E-03 0. -1.
         11    1    4    4    0    0 -0.41785040142E-02 -0.40952391509E-02  0.74752942008E-02  0.95064201405E-02  0.51100000000E-03 0.  1.
</event>
<event>
 8    1  0.1051655E+005  0.1043930E+01  0.7957747E-01            NaN
         13   -1    0    0    0    0  0.00000000000E+00  0.00000000000E+00  0.74505805969E-08  0.10566000000E+00  0.10566000000E+00 0.  1.
     999900   -1    0    0    0    0 -0.00000000000E+00 -0.00000000000E+00 -0.74505805969E-08  0.93827000000E+00  0.93827000000E+00 0. -1.
     999902    2    1    2    0    0  0.69891632897E-02 -0.15886416949E-01  0.16688729648E-01  0.10198522023E+01  0.10195679350E+01 0.  0.
     999903    2    3    3    0    0  0.64540331798E-01 -0.90324743619E-01 -0.66697184887E-01  0.13091665216E+00  0.19147887704E-01 0.  0.
         14    1    1    2    0    0 -0.69891632897E-02  0.15886416949E-01 -0.16688729648E-01  0.24077797744E-01  0.00000000000E+00 0. -1.
     999901    1    3    3    0    0 -0.57551168508E-01  0.74438326669E-01  0.83385914535E-01  0.88893555009E+00  0.88000000000E+00 0. -1.
        -11    1    4    4    0    0  0.18766680943E-01 -0.37200694188E-01 -0.17189412362E-01  0.45075680584E-01  0.51100000000E-03 0. -1.
         11    1    4    4    0    0  0.45773650855E-01 -0.53124049430E-01 -0.49507772525E-01  0.85840971580E-01  0.51100000000E-03 0.  1.
</event>
<event>
 8    1  0.1051655E+005  0.1043930E+01  0.7957747E-01            NaN
         13   -1    0    0    0    0  0.00000000000E+00  0.00000000000E+00  0.74505805969E-08  0.10566000000E+00  0.10566000000E+00 0. -1.
     999900   -1    0    0    0    0 -0.00000000000E+00 -0.00000000000E+00 -0.74505805969E-08  0.93827000000E+00  0.93827000000E+00 0.  1.
     999902    2    1    2    0    0  0.15397857383E-01 -0.11789045521E-01  0.13816263980E-01  0.10201189783E+01  0.10198410489E+01 0.  0.
     999903    2    3    3    0    0 -0.83236188536E-01  0.71689071250E-01 -0.61434096976E-01  0.12750490273E+00  0.20390339154E-01 0.  0.
         14    1    1    2    0    0 -0.15397857383E-01  0.11789045521E-01 -0.13816263980E-01  0.23811021747E-01  0.00000000000E+00 0.  1.
     999901    1    3    3    0    0  0.98634045918E-01 -0.83478116771E-01  0.75250360956E-01  0.89261407552E+00  0.88000000000E+00 0. -1.
        -11    1    4    4    0    0 -0.74551460062E-01  0.57088039507E-01 -0.57337316113E-01  0.11002178599E+00  0.51100000000E-03 0.  1.
         11    1    4    4    0    0 -0.86847284739E-02  0.14601031743E-01 -0.40967808634E-02  0.17483116744E-01  0.51100000000E-03 0. -1.
</event>
<event>
 8    1  0.1051655E+005  0.1043930E+01  0.7957747E-01            NaN
         13   -1    0    0    0    0  0.00000000000E+00  0.00000000000E+00  0.74505805969E-08  0.10566000000E+00  0.10566000000E+00 0. -1.
     999900   -1    0    0    0    0 -0.00000000000E+00 -0.00000000000E+00 -0.74505805969E-08  0.93827000000E+00  0.93827000000E+00 0. -1.
     999902    2    1    2    0    0 -0.40762719310E-03  0.34914747301E-01 -0.12615318893E-01  0.10068038366E+01  0.10061190851E+01 0.  0.
     999903    2    3    3    0    0 -0.16835453641E-01  0.51350973745E-01  0.10391419537E+00  0.11881782841E+00  0.19979022646E-01 0.  0.
         14    1    1    2    0    0  0.40762719310E-03 -0.34914747301E-01  0.12615318893E-01  0.37126163413E-01  0.00000000000E+00 0.  1.
     999901    1    3    3    0    0  0.16427826448E-01 -0.16436226444E-01 -0.11652951426E+00  0.88798600818E+00  0.88000000000E+00 0. -1.
        -11    1    4    4    0    0 -0.64250804109E-02  0.18286595065E-01  0.19212294603E-01  0.27295688346E-01  0.51100000000E-03 0. -1.
         11    1    4    4    0    0 -0.10410373231E-01  0.33064378681E-01  0.84701900763E-01  0.91522140066E-01  0.51100000000E-03 0.  1.
</event>
<event>
 8    1  0.1051655E+005  0.1043930E+01  0.7957747E-01            NaN
         13   -1    0    0    0    0  0.00000000000E+00  0.00000000000E+00  0.74505805969E-08  0.10566000000E+00  0.10566000000E+00 0. -1.
     999900   -1    0    0    0    0 -0.00000000000E+00 -0.00000000000E+00 -0.74505805969E-08  0.93827000000E+00  0.93827000000E+00 0.  1.
     999902    2    1    2    0    0 -0.14510702168E-02  0.21731257861E-01 -0.90713530757E-02  0.10203367251E+01  0.10200639147E+01 0.  0.
     999903    2    3    3    0    0 -0.15324751132E-01 -0.82667647924E-01  0.94585715614E-01  0.12801593166E+00  0.19308887849E-01 0.  0.
         14    1    1    2    0    0  0.14510702168E-02 -0.21731257861E-01  0.90713530757E-02  0.23593274881E-01  0.00000000000E+00 0. -1.
     999901    1    3    3    0    0  0.13873680915E-01  0.10439890578E+00 -0.10365706869E+00  0.89232079346E+00  0.88000000000E+00 0.  1.
        -11    1    4    4    0    0 -0.10626118616E-01 -0.33805528995E-01  0.52570798567E-01  0.63400931937E-01  0.51100000000E-03 0.  1.
         11    1    4    4    0    0 -0.46986325155E-02 -0.48862118929E-01  0.42014917046E-01  0.64614999722E-01  0.51100000000E-03 0. -1.
</event>
<event>
 8    1  0.1051655E+005  0.1043930E+01  0.7957747E-01            NaN
         13   -1    0    0    0    0  0.00000000000E+00  0.00000000000E+00  0.74505805969E-08  0.10566000000E+00  0.10566000000E+00 0.  1.
     999900   -1    0    0    0    0 -0.00000000000E+00 -0.00000000000E+00 -0.74505805969E-08  0.93827000000E+00  0.93827000000E+00 0.  1.
     999902    2    1    2    0    0  0.96728934084E-02  0.20215026283E-01 -0.13845609561E-01  0.10175877704E+01  0.10172467535E+01 0.  0.
     999903    2    3    3    0    0  0.62541613461E-01 -0.79437246843E-01  0.72708810418E-01  0.12617465368E+00  0.20291439540E-01 0.  0.
         14    1    1    2    0    0 -0.96728934084E-02 -0.20215026283E-01  0.13845609561E-01  0.26342229568E-01  0.00000000000E+00 0.  1.
     999901    1    3    3    0    0 -0.52868720052E-01  0.99652273126E-01 -0.86554419979E-01  0.89141311675E+00  0.88000000000E+00 0.  1.
        -11    1    4    4    0    0  0.52394174581E-01 -0.67552477985E-01  0.69582855193E-01  0.11022940474E+00  0.51100000000E-03 0. -1.
         11    1    4    4    0    0  0.10147438879E-01 -0.11884768858E-01  0.31259552248E-02  0.15945248938E-01  0.51100000000E-03 0.  1.
</event>
<event>
 8    1  0.1051655E+005  0.1043930E+01  0.7957747E-01            NaN
         13   -1    0    0    0    0  0.00000000000E+00  0.00000000000E+00  0.74505805969E-08  0.10566000000E+00  0.10566000000E+00 0. -1.
     999900   -1    0    0    0    0 -0.00000000000E+00 -0.00000000000E+00 -0.74505805969E-08  0.93827000000E+00  0.93827000000E+00 0. -1.
     999902    2    1    2    0    0 -0.58844495557E-02  0.60584749433E-02 -0.24422322092E-01  0.10180885279E+01  0.10177605165E+01 0.  0.
     999903    2    3    3    0    0 -0.11308923180E+00  0.14275098627E-01 -0.60606394439E-01  0.13080634878E+00  0.21076362261E-01 0.  0.
         14    1    1    2    0    0  0.58844495557E-02 -0.60584749433E-02  0.24422322092E-01  0.25841472125E-01  0.00000000000E+00 0. -1.
     999901    1    3    3    0    0  0.10720478224E+00 -0.82166236833E-02  0.36184072347E-01  0.88728217909E+00  0.88000000000E+00 0. -1.
        -11    1    4    4    0    0 -0.48873658569E-01  0.97290580185E-02 -0.37646043725E-01  0.62456183048E-01  0.51100000000E-03 0.  1.
         11    1    4    4    0    0 -0.64215573228E-01  0.45460406080E-02 -0.22960350715E-01  0.68350165736E-01  0.51100000000E-03 0. -1.
</event>
<event>
 8    1  0.1051655E+005  0.1043930E+01  0.7957747E-01            NaN
         13   -1    0    0    0    0  0.00000000000E+00  0.00000000000E+00  0.74505805969E-08  0.10566000000E+00  0.10566000000E+00 0. -1.
     999900   -1    0    0    0    0 -0.00000000000E+00 -0.00000000000E+00 -0.74505805969E-08  0.93827000000E+00  0.93827000000E+00 0.  1.
     999902    2    1    2    0    0 -0.61775429226E-02  0.90787208167E-02  0.19168855808E-01  0.10218385935E+01  0.10215997655E+01 0.  0.
     999903    2    3    3    0    0 -0.11542913384E+00 -0.55319967223E-01 -0.23166767686E-01  0.13174005617E+00  0.20846092271E-01 0.  0.
         14    1    1    2    0    0  0.61775429226E-02 -0.90787208167E-02 -0.19168855808E-01  0.22091406502E-01  0.00000000000E+00 0.  1.
     999901    1    3    3    0    0  0.10925159091E+00  0.64398688040E-01  0.42335623495E-01  0.89009853733E+00  0.88000000000E+00 0. -1.
        -11    1    4    4    0    0 -0.77791048979E-01 -0.29291561689E-01 -0.21887577353E-01  0.85957955134E-01  0.51100000000E-03 0.  1.
         11    1    4    4    0    0 -0.37638084856E-01 -0.26028405535E-01 -0.12791903332E-02  0.45782101035E-01  0.51100000000E-03 0. -1.
</event>
<event>
 8    1  0.1051655E+005  0.1043930E+01  0.7957747E-01            NaN
         13   -1    0    0    0    0  0.00000000000E+00  0.00000000000E+00  0.74505805969E-08  0.10566000000E+00  0.10566000000E+00 0.  1.
     999900   -1    0    0    0    0 -0.00000000000E+00 -0.00000000000E+00 -0.74505805969E-08  0.93827000000E+00  0.93827000000E+00 0.  1.
     999902    2    1    2    0    0  0.16623579225E-01  0.45152411262E-02 -0.17742848379E-01  0.10192006762E+01  0.10189006227E+01 0.  0.
     999903    2    3    3    0    0  0.55191375420E-01  0.11679092351E+00  0.64085515413E-02  0.13090084285E+00  0.20192904455E-01 0.  0.
         14    1    1    2    0    0 -0.16623579225E-01 -0.45152411262E-02  0.17742848379E-01  0.24729323834E-01  0.00000000000E+00 0.  1.
     999901    1    3    3    0    0 -0.38567796195E-01 -0.11227568238E+00 -0.24151399920E-01  0.88829983332E+00  0.88000000000E+00 0. -1.
        -11    1    4    4    0    0  0.21881486317E-01  0.50764441391E-01  0.12559764839E-01  0.56690711470E-01  0.51100000000E-03 0.  1.
         11    1    4    4    0    0  0.33309889103E-01  0.66026482117E-01 -0.61512132975E-02  0.74210131376E-01  0.51100000000E-03 0. -1.
</event>
<event>
 8    1  0.1051655E+005  0.1043930E+01  0.7957747E-01            NaN
         13   -1    0    0    0    0  0.00000000000E+00  0.00000000000E+00  0.74505805969E-08  0.10566000000E+00  0.10566000000E+00 0. -1.
     999900   -1    0    0    0    0 -0.00000000000E+00 -0.00000000000E+00 -0.74505805969E-08  0.93827000000E+00  0.93827000000E+00 0.  1.
     999902    2    1    2    0    0 -0.17703979238E-01 -0.24295616222E-02 -0.15016948603E-01  0.10205881407E+01  0.10203211801E+01 0.  0.
     999903    2    3    3    0    0 -0.41885708929E-01  0.10177851258E+00 -0.70735713882E-01  0.13236032105E+00  0.20060786010E-01 0.  0.
         14    1    1    2    0    0  0.17703979238E-01  0.24295616222E-02  0.15016948603E-01  0.23341859307E-01  0.00000000000E+00 0.  1.
     999901    1    3    3    0    0  0.24181729691E-01 -0.10420807420E+00  0.55718765279E-01  0.88822781964E+00  0.88000000000E+00 0. -1.
        -11    1    4    4    0    0 -0.26077695184E-01  0.69834305972E-01 -0.36761268014E-01  0.83117557855E-01  0.51100000000E-03 0.  1.
         11    1    4    4    0    0 -0.15808013745E-01  0.31944206608E-01 -0.33974445868E-01  0.49242763198E-01  0.51100000000E-03 0. -1.
</event>
<event>
 8    1  0.1051655E+005  0.1043930E+01  0.7957747E-01            NaN
         13   -1    0    0    0    0  0.00000000000E+00  0.00000000000E+00  0.74505805969E-08  0.10566000000E+00  0.10566000000E+00 0. -1.
     999900   -1    0    0    0    0 -0.00000000000E+00 -0.00000000000E+00 -0.74505805969E-08  0.93827000000E+00  0.93827000000E+00 0. -1.
     999902    2    1    2    0    0  0.17224479193E-01 -0.14953527957E-01  0.54931559045E-02  0.10204680000E+01  0.10201982521E+01 0.  0.
     999903    2    3    3    0    0  0.30861371218E-01  0.50801254584E-01  0.11537430451E+00  0.13109545542E+00  0.18482331787E-01 0.  0.
         14    1    1    2    0    0 -0.17224479193E-01  0.14953527957E-01 -0.54931559045E-02  0.23461999992E-01  0.00000000000E+00 0. -1.
     999901    1    3    3    0    0 -0.13636892026E-01 -0.65754782541E-01 -0.10988114861E+00  0.88937254459E+00  0.88000000000E+00 0. -1.
        -11    1    4    4    0    0  0.13212423933E-01  0.28928326781E-01  0.43246914530E-01  0.53684010412E-01  0.51100000000E-03 0.  1.
         11    1    4    4    0    0  0.17648947285E-01  0.21872927803E-01  0.72127389984E-01  0.77411445006E-01  0.51100000000E-03 0. -1.
</event>
<event>
 8    1  0.1051655E+005  0.1043930E+01  0.7957747E-01            NaN
         13   -1    0    0    0    0  0.00000000000E+00  0.00000000000E+00  0.74505805969E-08  0.10566000000E+00  0.10566000000E+00 0. -1.
     999900   -1    0    0    0    0 -0.00000000000E+00 -0.00000000000E+00 -0.74505805969E-08  0.93827000000E+00  0.93827000000E+00 0.  1.
     999902    2    1    2    0    0 -0.29707938666E-02  0.12301056490E-01 -0.23273139734E-01  0.10174388573E+01  0.10170939228E+01 0.  0.
     999903    2    3    3    0    0 -0.50739393798E-01  0.11717591049E+00 -0.14822730980E-02  0.12965768158E+00  0.22455226079E-01 0.  0.
         14    1    1    2    0    0  0.29707938666E-02 -0.12301056490E-01  0.23273139734E-01  0.26491142672E-01  0.00000000000E+00 0. -1.
     999901    1    3    3    0    0  0.47768599931E-01 -0.10487485400E+00 -0.21790866636E-01  0.88778117575E+00  0.88000000000E+00 0. -1.
        -11    1    4    4    0    0 -0.32251777840E-01  0.74047983401E-01  0.98939392923E-02  0.81372183056E-01  0.51100000000E-03 0. -1.
         11    1    4    4    0    0 -0.18487615958E-01  0.43127927086E-01 -0.11376212390E-01  0.48285498526E-01  0.51100000000E-03 0.  1.
</event>
<event>
 8    1  0.1051655E+005  0.1043930E+01  0.7957747E-01            NaN
         13   -1    0    0    0    0  0.00000000000E+00  0.00000000000E+00  0.74505805969E-08  0.10566000000E+00  0.10566000000E+00 0.  1.
     999900   -1    0    0    0    0 -0.00000000000E+00 -0.00000000000E+00 -0.74505805969E-08  0.93827000000E+00  0.93827000000E+00 0.  1.
     999902    2    1    2    0    0  0.11411646760E-01  0.17486859169E-01  0.11291112477E-01  0.10201917367E+01  0.10199155232E+01 0.  0.
     999903    2    3    3    0    0 -0.83830208139E-01  0.94131814482E-01 -0.28228714240E-01  0.13086205831E+00  0.20969399183E-01 0.  0.
         14    1    1    2    0    0 -0.11411646760E-01 -0.17486859169E-01 -0.11291112477E-01  0.23738263339E-01  0.00000000000E+00 0. -1.
     999901    1    3    3    0    0  0.95241854899E-01 -0.76644955313E-01  0.39519826716E-01  0.88932967836E+00  0.88000000000E+00 0. -1.
        -11    1    4    4    0    0 -0.55710615083E-01  0.67109317429E-01 -0.28806501902E-01  0.91855368877E-01  0.51100000000E-03 0. -1.
         11    1    4    4    0    0 -0.28119593056E-01  0.27022497053E-01  0.57778766213E-03  0.39006689429E-01  0.51100000000E-03 0.  1.
</event>
<event>
 8    1  0.1051655E+005  0.1043930E+01  0.7957747E-01            NaN
         13   -1    0    0    0    0  0.00000000000E+00  0.00000000000E+00  0.74505805969E-08  0.10566000000E+00  0.10566000000E+00 0.  1.
     999900   -1    0    0    0    0 -0.00000000000E+00 -0.00000000000E+00 -0.74505805969E-08  0.93827000000E+00  0.93827000000E+00 0.  1.
     999902    2    1    2    0    0  0.39117468329E-02 -0.15719997753E-01  0.13745719169E-01  0.10226846502E+01  0.10224639499E+01 0.  0.
     999903    2    3    3    0    0 -0.87313182468E-01  0.53227302089E-02  0.99152336543E-01  0.13360699644E+00  0.19176036243E-01 0.  0.
         14    1    1    2    0    0 -0.39117468329E-02  0.15719997753E-01 -0.13745719169E-01  0.21245349800E-01  0.00000000000E+00 0. -1.
     999901    1    3    3    0    0  0.91224929301E-01 -0.21042727962E-01 -0.85406617373E-01  0.88907765376E+00  0.88000000000E+00 0.  1.
        -11    1    4    4    0    0 -0.34395682773E-01  0.17672943544E-02  0.25556532280E-01  0.42890369384E-01  0.51100000000E-03 0.  1.
         11    1    4    4    0    0 -0.52917499695E-01  0.35554358545E-02  0.73595804263E-01  0.90716627055E-01  0.51100000000E-03 0. -1.
</event>
<event>
 8    1  0.1051655E+005  0.1043930E+01  0.7957747E-01            NaN
         13   -1    0    0    0    0  0.00000000000E+00  0.00000000000E+00  0.74505805969E-08  0.10566000000E+00  0.10566000000E+00 0.  1.
     999900   -1    0    0    0    0 -0.00000000000E+00 -0.00000000000E+00 -0.74505805969E-08  0.93827000000E+00  0.93827000000E+00 0. -1.
     999902    2    1    2    0    0 -0.11006044487E-01  0.21753391444E-01  0.61663107922E-02  0.10187831027E+01  0.10184727016E+01 0.  0.
     999903    2    3    3    0    0  0.36030899550E-01  0.50906126482E-01 -0.11123502477E+00  0.12926332797E+00  0.21121500539E-01 0.  0.
         14    1    1    2    0    0  0.11006044487E-01 -0.21753391444E-01 -0.61663107922E-02  0.25146897291E-01  0.00000000000E+00 0.  1.
     999901    1    3    3    0    0 -0.47036944037E-01 -0.29152735037E-01  0.11740133557E+00  0.88951977474E+00  0.88000000000E+00 0.  1.
        -11    1    4    4    0    0  0.15005510134E-01  0.38638905893E-01 -0.72372835309E-01  0.83403949515E-01  0.51100000000E-03 0.  1.
         11    1    4    4    0    0  0.21025389416E-01  0.12267220589E-01 -0.38862189464E-01  0.45859378452E-01  0.51100000000E-03 0. -1.
</event>
<event>
 8    1  0.1051655E+005  0.1043930E+01  0.7957747E-01            NaN
         13   -1    0    0    0    0  0.00000000000E+00  0.00000000000E+00  0.74505805969E-08  0.10566000000E+00  0.10566000000E+00 0. -1.
     999900   -1    0    0    0    0 -0.00000000000E+00 -0.00000000000E+00 -0.74505805969E-08  0.93827000000E+00  0.93827000000E+00 0.  1.
     999902    2    1    2    0    0  0.55720445757E-02  0.89566854722E-02  0.21069493117E-01  0.10203674569E+01  0.10200953650E+01 0.  0.
     999903    2    3    3    0    0 -0.54074652455E-01 -0.74920377971E-01  0.91525894189E-01  0.13157209540E+00  0.19927265423E-01 0.  0.
         14    1    1    2    0    0 -0.55720445757E-02 -0.89566854722E-02 -0.21069493117E-01  0.23562543063E-01  0.00000000000E+00 0.  1.
     999901    1    3    3    0    0  0.59646697031E-01  0.83877063443E-01 -0.70456401072E-01  0.88879536154E+00  0.88000000000E+00 0. -1.
        -11    1    4    4    0    0 -0.97102333066E-02 -0.14301361239E-01  0.29314323833E-01  0.34035397264E-01  0.51100000000E-03 0.  1.
         11    1    4    4    0    0 -0.44364419149E-01 -0.60619016732E-01  0.62211570356E-01  0.97536698135E-01  0.51100000000E-03 0. -1.
</event>
<event>
 8    1  0.1051655E+005  0.1043930E+01  0.7957747E-01            NaN
         13   -1    0    0    0    0  0.00000000000E+00  0.00000000000E+00  0.74505805969E-08  0.10566000000E+00  0.10566000000E+00 0.  1.
     999900   -1    0    0    0    0 -0.00000000000E+00 -0.00000000000E+00 -0.74505805969E-08  0.93827000000E+00  0.93827000000E+00 0.  1.
     999902    2    1    2    0    0 -0.13497462579E-01 -0.18326816127E-01  0.82702292822E-02  0.10197132624E+01  0.10194256654E+01 0.  0.
     999903    2    3    3    0    0 -0.53217460903E-01  0.56650415567E-01 -0.10091211732E+00  0.12891583971E+00  0.19866317662E-01 0.  0.
         14    1    1    2    0    0  0.13497462579E-01  0.18326816127E-01 -0.82702292822E-02  0.24216737555E-01  0.00000000000E+00 0. -1.
     999901    1    3    3    0    0  0.39719998324E-01 -0.74977231694E-01  0.10918234660E+00  0.89079742273E+00  0.88000000000E+00 0. -1.
        -11    1    4    4    0    0  0.14776043150E-04  0.78558128700E-02 -0.77972969006E-02  0.11080296663E-01  0.51100000000E-03 0. -1.
         11    1    4    4    0    0 -0.53232236946E-01  0.48794602697E-01 -0.93114820420E-01  0.11783554305E+00  0.51100000000E-03 0.  1.
</event>
<event>
 8    1  0.1051655E+005  0.1043930E+01  0.7957747E-01            NaN
         13   -1    0    0    0    0  0.00000000000E+00  0.00000000000E+00  0.74505805969E-08  0.10566000000E+00  0.10566000000E+00 0. -1.
     999900   -1    0    0    0    0 -0.00000000000E+00 -0.00000000000E+00 -0.74505805969E-08  0.93827000000E+00  0.93827000000E+00 0.  1.
     999902    2    1    2    0    0  0.13311339588E-01  0.17932337890E-01 -0.44134980299E-02  0.10211651264E+01  0.10209113458E+01 0.  0.
     999903    2    3    3    0    0  0.12787635903E+00  0.33190808883E-01 -0.90745642001E-03  0.13360089949E+00  0.19859100559E-01 0.  0.
         14    1    1    2    0    0 -0.13311339588E-01 -0.17932337890E-01  0.44134980299E-02  0.22764873571E-01  0.00000000000E+00 0.  1.
     999901    1    3    3    0    0 -0.11456501944E+00 -0.15258470993E-01 -0.35060416099E-02  0.88756422694E+00  0.88000000000E+00 0. -1.
        -11    1    4    4    0    0  0.15266397745E-01  0.35102473274E-02  0.63671642060E-02  0.16917051677E-01  0.51100000000E-03 0. -1.
         11    1    4    4    0    0  0.11260996128E+00  0.29680561555E-01 -0.72746206260E-02  0.11668384781E+00  0.51100000000E-03 0.  1.
</event>
<event>
 8    1  0.1051655E+005  0.1043930E+01  0.7957747E-01            NaN
         13   -1    0    0    0    0  0.00000000000E+00  0.00000000000E+00  0.74505805969E-08  0.10566000000E+00  0.10566000000E+00 0. -1.
     999900   -1    0    0    0    0 -0.00000000000E+00 -0.00000000000E+00 -0.74505805969E-08  0.93827000000E+00  0.93827000000E+00 0. -1.
     999902    2    1    2    0    0 -0.10309587399E-01  0.19180154794E-01 -0.95139562210E-02  0.10201669763E+01  0.10198901795E+01 0.  0.
     999903    2    3    3    0    0 -0.11613015183E+00 -0.39859526780E-01 -0.37633355835E-01  0.13141820617E+00  0.27919194148E-01 0.  0.
         14    1    1    2    0    0  0.10309587399E-01 -0.19180154794E-01  0.95139562210E-02  0.23763023655E-01  0.00000000000E+00 0.  1.
     999901    1    3    3    0    0  0.10582056443E+00  0.59039681574E-01  0.28119399614E-01  0.88874877018E+00  0.88000000000E+00 0.  1.
        -11    1    4    4    0    0 -0.38296379566E-01 -0.18800726213E-01 -0.25962897679E-01  0.49944100461E-01  0.51100000000E-03 0.  1.
         11    1    4    4    0    0 -0.77833772264E-01 -0.21058800567E-01 -0.11670458156E-01  0.81474105706E-01  0.51100000000E-03 0. -1.
</event>
<event>
 8    1  0.1051655E+005  0.1043930E+01  0.7957747E-01            NaN
         13   -1    0    0    0    0  0.00000000000E+00  0.00000000000E+00  0.74505805969E-08  0.10566000000E+00  0.10566000000E+00 0.  1.
     999900   -1    0    0    0    0 -0.00000000000E+00 -0.00000000000E+00 -0.74505805969E-08  0.93827000000E+00  0.93827000000E+00 0.  1.
     999902    2    1    2    0    0  0.17730781689E-01  0.10794727473E-01  0.11917542831E-01  0.10199939480E+01  0.10197130573E+01 0.  0.
     999903    2    3    3    0    0  0.30467509049E-01 -0.12417006154E+00 -0.34257151186E-02  0.12948109905E+00  0.20177864052E-01 0.  0.
         14    1    1    2    0    0 -0.17730781689E-01 -0.10794727473E-01 -0.11917542831E-01  0.23936052048E-01  0.00000000000E+00 0.  1.
     999901    1    3    3    0    0 -0.12736727361E-01  0.13496478901E+00  0.15343257950E-01  0.89051284890E+00  0.88000000000E+00 0. -1.
        -11    1    4    4    0    0  0.86776299076E-02 -0.17773995425E-01  0.54232205525E-02  0.20515570096E-01  0.51100000000E-03 0. -1.
         11    1    4    4    0    0  0.21789879142E-01 -0.10639606611E+00 -0.88489356712E-02  0.10896552895E+00  0.51100000000E-03 0.  1.
</event>
<event>
 8    1  0.1051655E+005  0.1043930E+01  0.7957747E-01            NaN
         13   -1    0    0    0    0  0.00000000000E+00  0.00000000000E+00  0.74505805969E-08  0.10566000000E+00  0.10566000000E+00 0. -1.
     999900   -1    0    0    0    0 -0.00000000000E+00 -0.00000000000E+00 -0.74505805969E-08  0.93827000000E+00  0.93827000000E+00 0. -1.
     999902    2    1    2    0    0  0.23775113637E-01 -0.50556724430E-02  0.70569330028E-03  0.10196130542E+01  0.10193230432E+01 0.  0.
     999903    2    3    3    0    0 -0.31263144239E-01 -0.53850542626E-01 -0.11161008569E+00  0.12943049793E+00  0.20449387245E-01 0.  0.
         14    1    1    2    0    0 -0.23775113637E-01  0.50556724430E-02 -0.70569330028E-03  0.24316945848E-01  0.00000000000E+00 0.  1.
     999901    1    3    3    0    0  0.55038257876E-01  0.48794870183E-01  0.11231577899E+00  0.89018255622E+00  0.88000000000E+00 0.  1.
        -11    1    4    4    0    0 -0.31494662301E-01 -0.48159212475E-01 -0.88054944758E-01  0.10519105436E+00  0.51100000000E-03 0. -1.
         11    1    4    4    0    0  0.23151806182E-03 -0.56913301507E-02 -0.23555140932E-01  0.24239443575E-01  0.51100000000E-03 0.  1.
</event>
<event>
 8    1  0.1051655E+005  0.1043930E+01  0.7957747E-01            NaN
         13   -1    0    0    0    0  0.00000000000E+00  0.00000000000E+00  0.74505805969E-08  0.10566000000E+00  0.10566000000E+00 0. -1.
     999900   -1    0    0    0    0 -0.00000000000E+00 -0.00000000000E+00 -0.74505805969E-08  0.93827000000E+00  0.93827000000E+00 0. -1.
     999902    2    1    2    0    0 -0.11046960958E-01  0.17743294794E-01 -0.10471746461E-01  0.10205522899E+01  0.10202844991E+01 0.  0.
     999903    2    3    3    0    0 -0.60007767448E-01  0.10073346422E+00 -0.61336240978E-01  0.13383264670E+00  0.20021985367E-01 0.  0.
         14    1    1    2    0    0  0.11046960958E-01 -0.17743294794E-01  0.10471746461E-01  0.23377710121E-01  0.00000000000E+00 0. -1.
     999901    1    3    3    0    0  0.48960806491E-01 -0.82990169427E-01  0.50864494517E-01  0.88671964318E+00  0.88000000000E+00 0.  1.
        -11    1    4    4    0    0 -0.15814884924E-01  0.25602144563E-01 -0.26013344130E-01  0.39781095827E-01  0.51100000000E-03 0.  1.
         11    1    4    4    0    0 -0.44192882524E-01  0.75131319658E-01 -0.35322896848E-01  0.94051550875E-01  0.51100000000E-03 0. -1.
</event>
<event>
 8    1  0.1051655E+005  0.1043930E+01  0.7957747E-01            NaN
         13   -1    0    0    0    0  0.00000000000E+00  0.00000000000E+00  0.74505805969E-08  0.10566000000E+00  0.10566000000E+00 0.  1.
     999900   -1    0    0    0    0 -0.00000000000E+00 -0.00000000000E+00 -0.74505805969E-08  0.93827000000E+00  0.93827000000E+00 0. -1.
     999902    2    1    2    0    0  0.61194186816E-02 -0.22762693491E-01  0.62820491270E-02  0.10195363196E+01  0.10192444532E+01 0.  0.
     999903    2    3    3    0    0  0.11680075326E+00 -0.52944753722E-01  0.23602485212E-01  0.13192079923E+00  0.20011423014E-01 0.  0.
         14    1    1    2    0    0 -0.61194186816E-02  0.22762693491E-01 -0.62820491270E-02  0.24393680353E-01  0.00000000000E+00 0.  1.
     999901    1    3    3    0    0 -0.11068133458E+00  0.30182060231E-01 -0.17320436085E-01  0.88761552042E+00  0.88000000000E+00 0.  1.
        -11    1    4    4    0    0  0.86078165208E-01 -0.41565578878E-01  0.26012947697E-01  0.99066050905E-01  0.51100000000E-03 0.  1.
         11    1    4    4    0    0  0.30722588054E-01 -0.11379174844E-01 -0.24104624845E-02  0.32854748321E-01  0.51100000000E-03 0. -1.
</event>
<event>
 8    1  0.1051655E+005  0.1043930E+01  0.7957747E-01            NaN
         13   -1    0    0    0    0  0.00000000000E+00  0.00000000000E+00  0.74505805969E-08  0.10566000000E+00  0.10566000000E+00 0. -1.
     999900   -1    0    0    0    0 -0.00000000000E+00 -0.00000000000E+00 -0.74505805969E-08  0.93827000000E+00  0.93827000000E+00 0. -1.
     999902    2    1    2    0    0 -0.87129061849E-02 -0.82649919064E-02  0.18081267925E-01  0.10222238471E+01  0.10219933642E+01 0.  0.
     999903    2    3    3    0    0  0.12877677752E+00  0.89368342570E-02 -0.98301145447E-02  0.13094478795E+00  0.19661660795E-01 0.  0.
         14    1    1    2    0    0  0.87129061849E-02  0.82649919064E-02 -0.18081267925E-01  0.21706152934E-01  0.00000000000E+00 0.  1.
     999901    1    3    3    0    0 -0.13748968370E+00 -0.17201826163E-01  0.27911382470E-01  0.89127905912E+00  0.88000000000E+00 0.  1.
        -11    1    4    4    0    0  0.65983760871E-01  0.27362133498E-02 -0.14693178714E-01  0.67657181318E-01  0.51100000000E-03 0. -1.
         11    1    4    4    0    0  0.62793016646E-01  0.62006209072E-02  0.48630641692E-02  0.63287606633E-01  0.51100000000E-03 0.  1.
</event>
<event>
 8    1  0.1051655E+005  0.1043930E+01  0.7957747E-01            NaN
         13   -1    0    0    0    0  0.00000000000E+00  0.00000000000E+00  0.74505805969E-08  0.10566000000E+00  0.10566000000E+00 0.  1.
     999900   -1    0    0    0    0 -0.00000000000E+00 -0.00000000000E+00 -0.74505805969E-08  0.93827000000E+00  0.93827000000E+00 0.  1.
     999902    2    1    2    0    0 -0.23647854734E-02 -0.13117272687E-01  0.20010809012E-01  0.10198865491E+01  0.10196031020E+01 0.  0.
     999903    2    3    3    0    0 -0.89573181671E-01 -0.87967025130E-01  0.36512654413E-01  0.13226044500E+00  0.19952418260E-01 0.  0.
         14    1    1    2    0    0  0.23647854734E-02  0.13117272687E-01 -0.20010809012E-01  0.24043450883E-01  0.00000000000E+00 0. -1.
     999901    1    3    3    0    0  0.87208396198E-01  0.74849752443E-01 -0.16501845402E-01  0.88762610412E+00  0.88000000000E+00 0.  1.
        -11    1    4    4    0    0 -0.49986221657E-01 -0.35750817221E-01  0.14624036249E-01  0.63173308009E-01  0.51100000000E-03 0. -1.
         11    1    4    4    0    0 -0.39586960014E-01 -0.52216207909E-01  0.21888618164E-01  0.69087136991E-01  0.51100000000E-03 0.  1.
</event>
<event>
 8    1  0.1051655E+005  0.1043930E+01  0.7957747E-01            NaN
         13   -1    0    0    0    0  0.00000000000E+00  0.00000000000E+00  0.74505805969E-08  0.10566000000E+00  0.10566000000E+00 0.  1.
     999900   -1    0    0    0    0 -0.00000000000E+00 -0.00000000000E+00 -0.74505805969E-08  0.93827000000E+00  0.93827000000E+00 0.  1.
     999902    2    1    2    0    0  0.71641277290E-02  0.20733331738E-01  0.10409790820E-01  0.10196491533E+01  0.10193600131E+01 0.  0.
     999903    2    3    3    0    0 -0.12611798639E-01  0.12892047111E+00  0.21873762710E-01  0.13272922060E+00  0.18948328972E-01 0.  0.
         14    1    1    2    0    0 -0.71641277290E-02 -0.20733331738E-01 -0.10409790820E-01  0.24280846690E-01  0.00000000000E+00 0. -1.
     999901    1    3    3    0    0  0.19775926368E-01 -0.10818713937E+00 -0.11463971890E-01  0.88691993271E+00  0.88000000000E+00 0.  1.
        -11    1    4    4    0    0 -0.11063821984E-01  0.87303887572E-01  0.23370178952E-01  0.91053848504E-01  0.51100000000E-03 0. -1.
         11    1    4    4    0    0 -0.15479766543E-02  0.41616583533E-01 -0.14964162425E-02  0.41675372095E-01  0.51100000000E-03 0.  1.
</event>
<event>
 8    1  0.1051655E+005  0.1043930E+01  0.7957747E-01            NaN
         13   -1    0    0    0    0  0.00000000000E+00  0.00000000000E+00  0.74505805969E-08  0.10566000000E+00  0.10566000000E+00 0. -1.
     999900   -1    0    0    0    0 -0.00000000000E+00 -0.00000000000E+00 -0.74505805969E-08  0.93827000000E+00  0.93827000000E+00 0.  1.
     999902    2    1    2    0    0  0.57071729954E-02  0.61844415537E-02  0.21668416337E-01  0.10206847982E+01  0.10204200693E+01 0.  0.
     999903    2    3    3    0    0 -0.20790171423E-01  0.94628088684E-01  0.89291262353E-01  0.13327438733E+00  0.20060568064E-01 0.  0.
         14    1    1    2    0    0 -0.57071729954E-02 -0.61844415537E-02 -0.21668416337E-01  0.23245201817E-01  0.00000000000E+00 0.  1.
     999901    1    3    3    0    0  0.26497344418E-01 -0.88443647131E-01 -0.67622846016E-01  0.88741041085E+00  0.88000000000E+00 0.  1.
        -11    1    4    4    0    0 -0.23286241440E-01  0.89368220091E-01  0.79436295588E-01  0.12181672291E+00  0.51100000000E-03 0.  1.
         11    1    4    4    0    0  0.24960700169E-02  0.52598685933E-02  0.98549667655E-02  0.11457664426E-01  0.51100000000E-03 0. -1.
</event>
<event>
 8    1  0.1051655E+005  0.1043930E+01  0.7957747E-01            NaN
         13   -1    0    0    0    0  0.00000000000E+00  0.00000000000E+00  0.74505805969E-08  0.10566000000E+00  0.10566000000E+00 0. -1.
     999900   -1    0    0    0    0 -0.00000000000E+00 -0.00000000000E+00 -0.74505805969E-08  0.93827000000E+00  0.93827000000E+00 0.  1.
     999902    2    1    2    0    0 -0.10893100487E-01  0.20262146309E-02 -0.20893962648E-01  0.10202799924E+01  0.10200058529E+01 0.  0.
     999903    2    3    3    0    0 -0.99017899236E-02 -0.10053732773E+00 -0.82849044809E-01  0.13215911374E+00  0.19906466514E-01 0.  0.
         14    1    1    2    0    0  0.10893100487E-01 -0.20262146309E-02  0.20893962648E-01  0.23650007592E-01  0.00000000000E+00 0. -1.
     999901    1    3    3    0    0 -0.99131056345E-03  0.10256354236E+00  0.61955082161E-01  0.88812087867E+00  0.88000000000E+00 0. -1.
        -11    1    4    4    0    0  0.53240835208E-02 -0.15623930060E-01 -0.10513857701E-01  0.19576909373E-01  0.51100000000E-03 0. -1.
         11    1    4    4    0    0 -0.15225873444E-01 -0.84913397667E-01 -0.72335187108E-01  0.11258220437E+00  0.51100000000E-03 0.  1.
</event>
<event>
 7    1  0.1051655E+005  0.1043930E+01  0.7957747E-01            NaN
         13   -1    0    0    0    0  0.00000000000E+00  0.00000000000E+00  0.74505805969E-08  0.10566000000E+00  0.10566000000E+00 0. -1.
     999900   -1    0    0    0    0 -0.00000000000E+00 -0.00000000000E+00 -0.74505805969E-08  0.93827000000E+00  0.93827000000E+00 0.  1.
     999903    2    1    2    0    0 -0.74795449629E-01 -0.79826499439E-01  0.15340112969E-01  0.11234088269E+00  0.20457897237E-01 0.  0.
         14    1    1    2    0    0  0.29767664806E-01  0.36408156925E-01 -0.15020214824E-01  0.49368761500E-01  0.00000000000E+00 0.  1.
     999901    1    1    2    0    0  0.45027784823E-01  0.43418342514E-01 -0.31989814495E-03  0.88222035581E+00  0.88000000000E+00 0. -1.
        -11    1    3    3    0    0 -0.39871536878E-01 -0.45869432048E-01 -0.15048582842E-02  0.60796956905E-01  0.51100000000E-03 0. -1.
         11    1    3    3    0    0 -0.34923912751E-01 -0.33957067391E-01  0.16844971253E-01  0.51543925784E-01  0.51100000000E-03 0.  1.
</event>
<event>
 8    1  0.1051655E+005  0.1043930E+01  0.7957747E-01            NaN
         13   -1    0    0    0    0  0.00000000000E+00  0.00000000000E+00  0.74505805969E-08  0.10566000000E+00  0.10566000000E+00 0. -1.
     999900   -1    0    0    0    0 -0.00000000000E+00 -0.00000000000E+00 -0.74505805969E-08  0.93827000000E+00  0.93827000000E+00 0. -1.
     999902    2    1    2    0    0 -0.21852583918E-01  0.92302085683E-02 -0.33332461591E-02  0.10199749858E+01  0.10196936447E+01 0.  0.
     999903    2    3    3    0    0 -0.23819544034E-01 -0.94815906542E-01  0.82814614340E-01  0.12966553576E+00  0.19936499325E-01 0.  0.
         14    1    1    2    0    0  0.21852583918E-01 -0.92302085683E-02  0.33332461591E-02  0.23955014174E-01  0.00000000000E+00 0. -1.
     999901    1    3    3    0    0  0.19669601158E-02  0.10404611511E+00 -0.86147860499E-01  0.89030945006E+00  0.88000000000E+00 0. -1.
        -11    1    4    4    0    0 -0.95356408694E-02 -0.54355318789E-01  0.58158291623E-01  0.80175290040E-01  0.51100000000E-03 0. -1.
         11    1    4    4    0    0 -0.14283903165E-01 -0.40460587753E-01  0.24656322716E-01  0.49490245724E-01  0.51100000000E-03 0.  1.
</event>
<event>
 8    1  0.1051655E+005  0.1043930E+01  0.7957747E-01            NaN
         13   -1    0    0    0    0  0.00000000000E+00  0.00000000000E+00  0.74505805969E-08  0.10566000000E+00  0.10566000000E+00 0.  1.
     999900   -1    0    0    0    0 -0.00000000000E+00 -0.00000000000E+00 -0.74505805969E-08  0.93827000000E+00  0.93827000000E+00 0. -1.
     999902    2    1    2    0    0  0.18812531605E-01  0.13947733475E-01 -0.28504861304E-02  0.10203381394E+01  0.10200653621E+01 0.  0.
     999903    2    3    3    0    0 -0.10932844736E+00 -0.13409632818E-01 -0.63316301384E-01  0.12858444540E+00  0.19811055587E-01 0.  0.
         14    1    1    2    0    0 -0.18812531605E-01 -0.13947733475E-01  0.28504861304E-02  0.23591860581E-01  0.00000000000E+00 0.  1.
     999901    1    3    3    0    0  0.12814097897E+00  0.27357366294E-01  0.60465815254E-01  0.89175369402E+00  0.88000000000E+00 0.  1.
        -11    1    4    4    0    0 -0.45378182253E-01 -0.73664448148E-02 -0.37594032284E-01  0.59388688470E-01  0.51100000000E-03 0.  1.
         11    1    4    4    0    0 -0.63950265108E-01 -0.60431880035E-02 -0.25722269100E-01  0.69195756931E-01  0.51100000000E-03 0. -1.
</event>
<event>
 8    1  0.1051655E+005  0.1043930E+01  0.7957747E-01            NaN
         13   -1    0    0    0    0  0.00000000000E+00  0.00000000000E+00  0.74505805969E-08  0.10566000000E+00  0.10566000000E+00 0. -1.
     999900   -1    0    0    0    0 -0.00000000000E+00 -0.00000000000E+00 -0.74505805969E-08  0.93827000000E+00  0.93827000000E+00 0.  1.
     999902    2    1    2    0    0 -0.16696185693E-01 -0.14013235617E-01 -0.93933856576E-02  0.10201946027E+01  0.10199184567E+01 0.  0.
     999903    2    3    3    0    0  0.41154952389E-03  0.14956251564E-01 -0.12899047493E+00  0.13146777769E+00  0.20527423477E-01 0.  0.
         14    1    1    2    0    0  0.16696185693E-01  0.14013235617E-01  0.93933856576E-02  0.23735397264E-01  0.00000000000E+00 0. -1.
     999901    1    3    3    0    0 -0.17107735217E-01 -0.28969487181E-01  0.11959708927E+00  0.88872682504E+00  0.88000000000E+00 0. -1.
        -11    1    4    4    0    0  0.32288984424E-03  0.49894491142E-02 -0.50453421078E-02  0.71214786596E-02  0.51100000000E-03 0.  1.
         11    1    4    4    0    0  0.88659679649E-04  0.99668024497E-02 -0.12394513282E+00  0.12434629903E+00  0.51100000000E-03 0. -1.
</event>
<event>
 8    1  0.1051655E+005  0.1043930E+01  0.7957747E-01            NaN
         13   -1    0    0    0    0  0.00000000000E+00  0.00000000000E+00  0.74505805969E-08  0.10566000000E+00  0.10566000000E+00 0. -1.
     999900   -1    0    0    0    0 -0.00000000000E+00 -0.00000000000E+00 -0.74505805969E-08  0.93827000000E+00  0.93827000000E+00 0.  1.
     999902    2    1    2    0    0 -0.15401401926E-01 -0.43505116763E-02 -0.17901187038E-01  0.10199178649E+01  0.10196351644E+01 0.  0.
     999903    2    3    3    0    0 -0.49696641209E-02 -0.11892435233E+00 -0.53489359177E-01  0.13171602745E+00  0.17896960711E-01 0.  0.
         14    1    1    2    0    0  0.15401401926E-01  0.43505116763E-02  0.17901187038E-01  0.24012135067E-01  0.00000000000E+00 0. -1.
     999901    1    3    3    0    0 -0.10431737805E-01  0.11457384065E+00  0.35588172139E-01  0.88820183749E+00  0.88000000000E+00 0.  1.
        -11    1    4    4    0    0 -0.26381032605E-02 -0.96556038773E-01 -0.50575205489E-01  0.10903275078E+00  0.51100000000E-03 0.  1.
         11    1    4    4    0    0 -0.23315608603E-02 -0.22368313558E-01 -0.29141536875E-02  0.22683276663E-01  0.51100000000E-03 0. -1.
</event>
<event>
 8    1  0.1051655E+005  0.1043930E+01  0.7957747E-01            NaN
         13   -1    0    0    0    0  0.00000000000E+00  0.00000000000E+00  0.74505805969E-08  0.10566000000E+00  0.10566000000E+00 0. -1.
     999900   -1    0    0    0    0 -0.00000000000E+00 -0.00000000000E+00 -0.74505805969E-08  0.93827000000E+00  0.93827000000E+00 0.  1.
     999902    2    1    2    0    0 -0.15121673981E-01 -0.12549569936E-01  0.13075092011E-01  0.10203267214E+01  0.10200536768E+01 0.  0.
     999903    2    3    3    0    0  0.29153474294E-02 -0.13039301803E+00  0.88929740488E-02  0.13227835419E+00  0.20190086598E-01 0.  0.
         14    1    1    2    0    0  0.15121673981E-01  0.12549569936E-01 -0.13075092011E-01  0.23603278600E-01  0.00000000000E+00 0. -1.
     999901    1    3    3    0    0 -0.18037021410E-01  0.11784344810E+00  0.41821179621E-02  0.88804836721E+00  0.88000000000E+00 0.  1.
        -11    1    4    4    0    0  0.40426510414E-02 -0.76891707467E-01  0.14895556816E-01  0.78427140956E-01  0.51100000000E-03 0.  1.
         11    1    4    4    0    0 -0.11273036120E-02 -0.53501310564E-01 -0.60025827669E-02  0.53851213231E-01  0.51100000000E-03 0. -1.
</event>
<event>
 8    1  0.1051655E+005  0.1043930E+01  0.7957747E-01            NaN
         13   -1    0    0    0    0  0.00000000000E+00  0.00000000000E+00  0.74505805969E-08  0.10566000000E+00  0.10566000000E+00 0.  1.
     999900   -1    0    0    0    0 -0.00000000000E+00 -0.00000000000E+00 -0.74505805969E-08  0.93827000000E+00  0.93827000000E+00 0. -1.
     999902    2    1    2    0    0 -0.13037917767E-01 -0.18385068718E-01 -0.10040683478E-01  0.10192558561E+01  0.10189571565E+01 0.  0.
     999903    2    3    3    0    0 -0.36394971075E-01  0.10380208175E+00 -0.64162033208E-01  0.12886022935E+00  0.19716138212E-01 0.  0.
         14    1    1    2    0    0  0.13037917767E-01  0.18385068718E-01  0.10040683478E-01  0.24674143879E-01  0.00000000000E+00 0. -1.
     999901    1    3    3    0    0  0.23357053308E-01 -0.12218715047E+00  0.54121349730E-01  0.89039562677E+00  0.88000000000E+00 0. -1.
        -11    1    4    4    0    0 -0.23038752801E-01  0.45446949203E-01 -0.21281281894E-01  0.55221041303E-01  0.51100000000E-03 0.  1.
         11    1    4    4    0    0 -0.13356218274E-01  0.58355132552E-01 -0.42880751313E-01  0.73639188045E-01  0.51100000000E-03 0. -1.
</event>
<event>
 8    1  0.1051655E+005  0.1043930E+01  0.7957747E-01            NaN
         13   -1    0    0    0    0  0.00000000000E+00  0.00000000000E+00  0.74505805969E-08  0.10566000000E+00  0.10566000000E+00 0. -1.
     999900   -1    0    0    0    0 -0.00000000000E+00 -0.00000000000E+00 -0.74505805969E-08  0.93827000000E+00  0.93827000000E+00 0. -1.
     999902    2    1    2    0    0 -0.15494019294E-01  0.84327765817E-02 -0.16718810804E-01  0.10196257825E+01  0.10193360787E+01 0.  0.
     999903    2    3    3    0    0  0.44668526297E-01 -0.11405202865E+00 -0.34962340837E-01  0.12892106946E+00  0.19877987667E-01 0.  0.
         14    1    1    2    0    0  0.15494019294E-01 -0.84327765817E-02  0.16718810804E-01  0.24304217524E-01  0.00000000000E+00 0. -1.
     999901    1    3    3    0    0 -0.60162545590E-01  0.12248480523E+00  0.18243530033E-01  0.89070471302E+00  0.88000000000E+00 0. -1.
        -11    1    4    4    0    0  0.33737814380E-01 -0.64486379866E-01 -0.14602723108E-01  0.74230950085E-01  0.51100000000E-03 0.  1.
         11    1    4    4    0    0  0.10930711916E-01 -0.49565648780E-01 -0.20359617729E-01  0.54690119373E-01  0.51100000000E-03 0. -1.
</event>
<event>
 8    1  0.1051655E+005  0.1043930E+01  0.7957747E-01            NaN
         13   -1    0    0    0    0  0.00000000000E+00  0.00000000000E+00  0.74505805969E-08  0.10566000000E+00  0.10566000000E+00 0.  1.
     999900   -1    0    0    0    0 -0.00000000000E+00 -0.00000000000E+00 -0.74505805969E-08  0.93827000000E+00  0.93827000000E+00 0. -1.
     999902    2    1    2    0    0 -0.10006964471E-01  0.15695488762E-01  0.13563280630E-01  0.10208984936E+01  0.10206386647E+01 0.  0.
     999903    2    3    3    0    0 -0.76834803300E-01  0.97746559303E-01 -0.40261785476E-01  0.13292581612E+00  0.24295768506E-01 0.  0.
         14    1    1    2    0    0  0.10006964471E-01 -0.15695488762E-01 -0.13563280630E-01  0.23031506396E-01  0.00000000000E+00 0. -1.
     999901    1    3    3    0    0  0.66827838829E-01 -0.82051070541E-01  0.53825066107E-01  0.88797267749E+00  0.88000000000E+00 0. -1.
        -11    1    4    4    0    0 -0.25680991804E-01  0.25564454705E-01 -0.13218885466E-02  0.36263800059E-01  0.51100000000E-03 0.  1.
         11    1    4    4    0    0 -0.51153811496E-01  0.72182104598E-01 -0.38939896930E-01  0.96662016060E-01  0.51100000000E-03 0. -1.
</event>
<event>
 8    1  0.1051655E+005  0.1043930E+01  0.7957747E-01            NaN
         13   -1    0    0    0    0  0.00000000000E+00  0.00000000000E+00  0.74505805969E-08  0.10566000000E+00  0.10566000000E+00 0.  1.
     999900   -1    0    0    0    0 -0.00000000000E+00 -0.00000000000E+00 -0.74505805969E-08  0.93827000000E+00  0.93827000000E+00 0. -1.
     999902    2    1    2    0    0  0.12186018691E-01 -0.65509296929E-02 -0.19123310664E-01  0.10203267218E+01  0.10200536772E+01 0.  0.
     999903    2    3    3    0    0  0.24988333186E-01  0.10131459988E+00 -0.78176233949E-01  0.13168386919E+00  0.18440523506E-01 0.  0.
         14    1    1    2    0    0 -0.12186018691E-01  0.65509296929E-02  0.19123310664E-01  0.23603278207E-01  0.00000000000E+00 0.  1.
     999901    1    3    3    0    0 -0.12802314495E-01 -0.10786552957E+00  0.59052923286E-01  0.88864285260E+00  0.88000000000E+00 0.  1.
        -11    1    4    4    0    0  0.11062917430E-01  0.59593961325E-01 -0.34731389538E-01  0.69859565621E-01  0.51100000000E-03 0.  1.
         11    1    4    4    0    0  0.13925415756E-01  0.41720638555E-01 -0.43444844411E-01  0.61824303573E-01  0.51100000000E-03 0. -1.
</event>
<event>
 8    1  0.1051655E+005  0.1043930E+01  0.7957747E-01            NaN
         13   -1    0    0    0    0  0.00000000000E+00  0.00000000000E+00  0.74505805969E-08  0.10566000000E+00  0.10566000000E+00 0. -1.
     999900   -1    0    0    0    0 -0.00000000000E+00 -0.00000000000E+00 -0.74505805969E-08  0.93827000000E+00  0.93827000000E+00 0. -1.
     999902    2    1    2    0    0  0.15941808636E-01 -0.70435528610E-02  0.17095095822E-01  0.10195169871E+01  0.10192246522E+01 0.  0.
     999903    2    3    3    0    0  0.28910301026E-01 -0.40853182760E-02 -0.12332404463E+00  0.12828499260E+00  0.19892813049E-01 0.  0.
         14    1    1    2    0    0 -0.15941808636E-01  0.70435528610E-02 -0.17095095822E-01  0.24413012936E-01  0.00000000000E+00 0. -1.
     999901    1    3    3    0    0 -0.12968492390E-01 -0.29582345850E-02  0.14041914046E+00  0.89123199446E+00  0.88000000000E+00 0.  1.
        -11    1    4    4    0    0  0.78783052465E-03  0.10643532544E-02 -0.42992851934E-01  0.43016275562E-01  0.51100000000E-03 0. -1.
         11    1    4    4    0    0  0.28122470501E-01 -0.51496715303E-02 -0.80331192700E-01  0.85268717039E-01  0.51100000000E-03 0.  1.
</event>
<event>
 8    1  0.1051655E+005  0.1043930E+01  0.7957747E-01            NaN
         13   -1    0    0    0    0  0.00000000000E+00  0.00000000000E+00  0.74505805969E-08  0.10566000000E+00  0.10566000000E+00 0.  1.
     999900   -1    0    0    0    0 -0.00000000000E+00 -0.00000000000E+00 -0.74505805969E-08  0.93827000000E+00  0.93827000000E+00 0. -1.
     999902    2    1    2    0    0 -0.14284067625E-01  0.13618120652E-01  0.13763641325E-01  0.10198691268E+01  0.10195852638E+01 0.  0.
     999903    2    3    3    0    0 -0.60860902365E-01  0.91019320133E-01 -0.69666819957E-01  0.13131919059E+00  0.20067335157E-01 0.  0.
         14    1    1    2    0    0  0.14284067625E-01 -0.13618120652E-01 -0.13763641325E-01  0.24060873229E-01  0.00000000000E+00 0. -1.
     999901    1    3    3    0    0  0.46576834740E-01 -0.77401199481E-01  0.83430461282E-01  0.88854993618E+00  0.88000000000E+00 0.  1.
        -11    1    4    4    0    0 -0.36942739115E-01  0.70689859508E-01 -0.53103949247E-01  0.95823341400E-01  0.51100000000E-03 0.  1.
         11    1    4    4    0    0 -0.23918163250E-01  0.20329460625E-01 -0.16562870710E-01  0.35495849191E-01  0.51100000000E-03 0. -1.
</event>
<event>
 7    1  0.1520311E+005  0.1043930E+01  0.7957747E-01            NaN
         13   -1    0    0    0    0  0.00000000000E+00  0.00000000000E+00  0.74505805969E-08  0.10566000000E+00  0.10566000000E+00 0. -1.
     999900   -1    0    0    0    0 -0.00000000000E+00 -0.00000000000E+00 -0.74505805969E-08  0.93827000000E+00  0.93827000000E+00 0.  1.
     999903    2    1    2    0    0 -0.20893509262E-01  0.59405535522E-01  0.55726062677E-01  0.86547162717E-01  0.20480745419E-01 0.  0.
         14    1    1    2    0    0 -0.13026386982E-01  0.64638493735E-01 -0.11531596465E-01  0.66938773122E-01  0.00000000000E+00 0.  1.
     999901    1    1    2    0    0  0.33919896243E-01 -0.12404402926E+00 -0.44194466212E-01  0.89044406416E+00  0.88000000000E+00 0.  1.
        -11    1    3    3    0    0 -0.16600292195E-01  0.53621774832E-01  0.39069390555E-01  0.68392564190E-01  0.51100000000E-03 0.  1.
         11    1    3    3    0    0 -0.42932170667E-02  0.57837606902E-02  0.16656672122E-01  0.18154598527E-01  0.51100000000E-03 0. -1.
</event>
<event>
 8    1  0.1051655E+005  0.1043930E+01  0.7957747E-01            NaN
         13   -1    0    0    0    0  0.00000000000E+00  0.00000000000E+00  0.74505805969E-08  0.10566000000E+00  0.10566000000E+00 0.  1.
     999900   -1    0    0    0    0 -0.00000000000E+00 -0.00000000000E+00 -0.74505805969E-08  0.93827000000E+00  0.93827000000E+00 0. -1.
     999902    2    1    2    0    0 -0.20855427756E-01 -0.52768829752E-02  0.93366854691E-02  0.10204786023E+01  0.10202091009E+01 0.  0.
     999903    2    3    3    0    0  0.10881979065E-01  0.80901011823E-01  0.10063132670E+00  0.13100201231E+00  0.19273612309E-01 0.  0.
         14    1    1    2    0    0  0.20855427756E-01  0.52768829752E-02 -0.93366854691E-02  0.23451397749E-01  0.00000000000E+00 0. -1.
     999901    1    3    3    0    0 -0.31737406821E-01 -0.86177894799E-01 -0.91294641235E-01  0.88947658995E+00  0.88000000000E+00 0. -1.
        -11    1    4    4    0    0  0.35410587021E-02  0.35833241138E-01  0.29878184322E-01  0.46792384921E-01  0.51100000000E-03 0. -1.
         11    1    4    4    0    0  0.73409203630E-02  0.45067770685E-01  0.70753142382E-01  0.84209627385E-01  0.51100000000E-03 0.  1.
</event>
<event>
 8    1  0.1051655E+005  0.1043930E+01  0.7957747E-01            NaN
         13   -1    0    0    0    0  0.00000000000E+00  0.00000000000E+00  0.74505805969E-08  0.10566000000E+00  0.10566000000E+00 0.  1.
     999900   -1    0    0    0    0 -0.00000000000E+00 -0.00000000000E+00 -0.74505805969E-08  0.93827000000E+00  0.93827000000E+00 0.  1.
     999902    2    1    2    0    0 -0.20909589840E-01 -0.19033785957E-02  0.12220390935E-01  0.10196365492E+01  0.10193471051E+01 0.  0.
     999903    2    3    3    0    0 -0.47196488284E-01 -0.29620351506E-01  0.11819694179E+00  0.13245547357E+00  0.21657832346E-01 0.  0.
         14    1    1    2    0    0  0.20909589840E-01  0.19033785957E-02 -0.12220390935E-01  0.24293450804E-01  0.00000000000E+00 0. -1.
     999901    1    3    3    0    0  0.26286898444E-01  0.27716972910E-01 -0.10597655085E+00  0.88718107563E+00  0.88000000000E+00 0.  1.
        -11    1    4    4    0    0 -0.29648593381E-01 -0.65115574476E-02  0.52746614237E-01  0.60859723170E-01  0.51100000000E-03 0.  1.
         11    1    4    4    0    0 -0.17547894903E-01 -0.23108794058E-01  0.65450327548E-01  0.71595750401E-01  0.51100000000E-03 0. -1.
</event>
<event>
 8    1  0.1126421E+005  0.1043930E+01  0.7957747E-01            NaN
         13   -1    0    0    0    0  0.00000000000E+00  0.00000000000E+00  0.74505805969E-08  0.10566000000E+00  0.10566000000E+00 0.  1.
     999900   -1    0    0    0    0 -0.00000000000E+00 -0.00000000000E+00 -0.74505805969E-08  0.93827000000E+00  0.93827000000E+00 0. -1.
     999902    2    1    2    0    0  0.21362498434E-01  0.52121284710E-02  0.49651908844E-02  0.10213872463E+01  0.10211384486E+01 0.  0.
     999903    2    3    3    0    0  0.11760648946E+00 -0.55575824732E-01  0.24472527713E-01  0.13384084346E+00  0.19862228132E-01 0.  0.
         14    1    1    2    0    0 -0.21362498434E-01 -0.52121284710E-02 -0.49651908844E-02  0.22542753670E-01  0.00000000000E+00 0. -1.
     999901    1    3    3    0    0 -0.96243991028E-01  0.60787953203E-01 -0.19507336829E-01  0.88754640287E+00  0.88000000000E+00 0.  1.
        -11    1    4    4    0    0  0.37911592701E-01 -0.80270755182E-02  0.60012412225E-02  0.39217328054E-01  0.51100000000E-03 0.  1.
         11    1    4    4    0    0  0.79694896760E-01 -0.47548749214E-01  0.18471286491E-01  0.94623515402E-01  0.51100000000E-03 0. -1.
</event>
<event>
 8    1  0.1051655E+005  0.1043930E+01  0.7957747E-01            NaN
         13   -1    0    0    0    0  0.00000000000E+00  0.00000000000E+00  0.74505805969E-08  0.10566000000E+00  0.10566000000E+00 0. -1.
     999900   -1    0    0    0    0 -0.00000000000E+00 -0.00000000000E+00 -0.74505805969E-08  0.93827000000E+00  0.93827000000E+00 0.  1.
     999902    2    1    2    0    0 -0.17315345855E-01 -0.11355279876E-01  0.74193087526E-02  0.10219343248E+01  0.10216975847E+01 0.  0.
     999903    2    3    3    0    0  0.36445030282E-01  0.80469723099E-01 -0.92144922831E-01  0.12995055514E+00  0.24348375894E-01 0.  0.
         14    1    1    2    0    0  0.17315345855E-01  0.11355279876E-01 -0.74193087526E-02  0.21995675155E-01  0.00000000000E+00 0.  1.
     999901    1    3    3    0    0 -0.53760376137E-01 -0.91825002975E-01  0.99564231584E-01  0.89198376971E+00  0.88000000000E+00 0.  1.
        -11    1    4    4    0    0  0.14300222308E-01  0.92342530019E-02 -0.16788315012E-01  0.23913937955E-01  0.51100000000E-03 0. -1.
         11    1    4    4    0    0  0.22144807973E-01  0.71235470097E-01 -0.75356607819E-01  0.10603661718E+00  0.51100000000E-03 0.  1.
</event>
<event>
 8    1  0.1051655E+005  0.1043930E+01  0.7957747E-01            NaN
         13   -1    0    0    0    0  0.00000000000E+00  0.00000000000E+00  0.74505805969E-08  0.10566000000E+00  0.10566000000E+00 0.  1.
     999900   -1    0    0    0    0 -0.00000000000E+00 -0.00000000000E+00 -0.74505805969E-08  0.93827000000E+00  0.93827000000E+00 0.  1.
     999902    2    1    2    0    0  0.62999835922E-02 -0.16070639162E-01 -0.16431651167E-01  0.10200982062E+01  0.10198197860E+01 0.  0.
     999903    2    3    3    0    0 -0.47857709522E-01  0.75274957337E-01  0.88422248776E-01  0.12753369084E+00  0.22128458090E-01 0.  0.
         14    1    1    2    0    0 -0.62999835922E-02  0.16070639162E-01  0.16431651167E-01  0.23831793815E-01  0.00000000000E+00 0.  1.
     999901    1    3    3    0    0  0.54157693114E-01 -0.91345596499E-01 -0.10485389994E+00  0.89256451535E+00  0.88000000000E+00 0.  1.
        -11    1    4    4    0    0 -0.28327544869E-01  0.61754894979E-01  0.61721606998E-01  0.91792890485E-01  0.51100000000E-03 0. -1.
         11    1    4    4    0    0 -0.19530164653E-01  0.13520062359E-01  0.26700641778E-01  0.35740800354E-01  0.51100000000E-03 0.  1.
</event>
<event>
 7    1  0.1051655E+005  0.1043930E+01  0.7957747E-01            NaN
         13   -1    0    0    0    0  0.00000000000E+00  0.00000000000E+00  0.74505805969E-08  0.10566000000E+00  0.10566000000E+00 0. -1.
     999900   -1    0    0    0    0 -0.00000000000E+00 -0.00000000000E+00 -0.74505805969E-08  0.93827000000E+00  0.93827000000E+00 0. -1.
     999903    2    1    2    0    0 -0.70083058417E-01 -0.71849470466E-01  0.50563749690E-01  0.11413816086E+00  0.19920981356E-01 0.  0.
         14    1    1    2    0    0 -0.26397613218E-01  0.26645766154E-01 -0.20748462487E-01  0.42864082087E-01  0.00000000000E+00 0.  1.
     999901    1    1    2    0    0  0.96480671635E-01  0.45203704312E-01 -0.29815287203E-01  0.88692775705E+00  0.88000000000E+00 0. -1.
        -11    1    3    3    0    0 -0.32060808045E-01 -0.21652970214E-01  0.13022856112E-01  0.40824042352E-01  0.51100000000E-03 0.  1.
         11    1    3    3    0    0 -0.38022250372E-01 -0.50196500252E-01  0.37540893578E-01  0.73314118507E-01  0.51100000000E-03 0. -1.
</event>
<event>
 8    1  0.1051655E+005  0.1043930E+01  0.7957747E-01            NaN
         13   -1    0    0    0    0  0.00000000000E+00  0.00000000000E+00  0.74505805969E-08  0.10566000000E+00  0.10566000000E+00 0.  1.
     999900   -1    0    0    0    0 -0.00000000000E+00 -0.00000000000E+00 -0.74505805969E-08  0.93827000000E+00  0.93827000000E+00 0. -1.
     999902    2    1    2    0    0 -0.74701625568E-02  0.74258712338E-02 -0.20830240200E-01  0.10205880678E+01  0.10203211055E+01 0.  0.
     999903    2    3    3    0    0  0.78962665472E-01 -0.91015281787E-01 -0.46052804701E-01  0.13053330986E+00  0.19979992606E-01 0.  0.
         14    1    1    2    0    0  0.74701625568E-02 -0.74258712338E-02  0.20830240200E-01  0.23341932203E-01  0.00000000000E+00 0.  1.
     999901    1    3    3    0    0 -0.86432828028E-01  0.98441153021E-01  0.25222564501E-01  0.89005475794E+00  0.88000000000E+00 0. -1.
        -11    1    4    4    0    0  0.58411049142E-01 -0.57634632851E-01 -0.23740500977E-01  0.85425254306E-01  0.51100000000E-03 0.  1.
         11    1    4    4    0    0  0.20551616329E-01 -0.33380648937E-01 -0.22312303724E-01  0.45108055552E-01  0.51100000000E-03 0. -1.
</event>
<event>
 8    1  0.1051655E+005  0.1043930E+01  0.7957747E-01            NaN
         13   -1    0    0    0    0  0.00000000000E+00  0.00000000000E+00  0.74505805969E-08  0.10566000000E+00  0.10566000000E+00 0. -1.
     999900   -1    0    0    0    0 -0.00000000000E+00 -0.00000000000E+00 -0.74505805969E-08  0.93827000000E+00  0.93827000000E+00 0.  1.
     999902    2    1    2    0    0 -0.66037725911E-02  0.17830148866E-01  0.13040085855E-01  0.10208742445E+01  0.10206138620E+01 0.  0.
     999903    2    3    3    0    0  0.33037230561E-01 -0.12158858618E+00 -0.15546325165E-01  0.12855917926E+00  0.20261575819E-01 0.  0.
         14    1    1    2    0    0  0.66037725911E-02 -0.17830148866E-01 -0.13040085855E-01  0.23055755466E-01  0.00000000000E+00 0.  1.
     999901    1    3    3    0    0 -0.39641003152E-01  0.13941873505E+00  0.28586411020E-01  0.89231506527E+00  0.88000000000E+00 0. -1.
        -11    1    4    4    0    0  0.12604736190E-01 -0.52348844776E-01 -0.16632380827E-01  0.56357591651E-01  0.51100000000E-03 0. -1.
         11    1    4    4    0    0  0.20432494371E-01 -0.69239741404E-01  0.10860556624E-02  0.72201587613E-01  0.51100000000E-03 0.  1.
</event>
<event>
 8    1  0.1051655E+005  0.1043930E+01  0.7957747E-01            NaN
         13   -1    0    0    0    0  0.00000000000E+00  0.00000000000E+00  0.74505805969E-08  0.10566000000E+00  0.10566000000E+00 0.  1.
     999900   -1    0    0    0    0 -0.00000000000E+00 -0.00000000000E+00 -0.74505805969E-08  0.93827000000E+00  0.93827000000E+00 0. -1.
     999902    2    1    2    0    0  0.21969939815E-01  0.56278152174E-02 -0.59448005981E-02  0.10204845055E+01  0.10202151414E+01 0.  0.
     999903    2    3    3    0    0 -0.46312212025E-01 -0.67968763833E-01  0.97080788168E-01  0.12880452888E+00  0.20033806168E-01 0.  0.
         14    1    1    2    0    0 -0.21969939815E-01 -0.56278152174E-02  0.59448005981E-02  0.23445494530E-01  0.00000000000E+00 0. -1.
     999901    1    3    3    0    0  0.68282151840E-01  0.73596579051E-01 -0.10302558877E+00  0.89167997659E+00  0.88000000000E+00 0. -1.
        -11    1    4    4    0    0 -0.37218227351E-01 -0.54656266302E-01  0.64124348374E-01  0.92112415388E-01  0.51100000000E-03 0.  1.
         11    1    4    4    0    0 -0.90939846742E-02 -0.13312497531E-01  0.32956439794E-01  0.36692113495E-01  0.51100000000E-03 0. -1.
</event>
<event>
 8    1  0.1051655E+005  0.1043930E+01  0.7957747E-01            NaN
         13   -1    0    0    0    0  0.00000000000E+00  0.00000000000E+00  0.74505805969E-08  0.10566000000E+00  0.10566000000E+00 0.  1.
     999900   -1    0    0    0    0 -0.00000000000E+00 -0.00000000000E+00 -0.74505805969E-08  0.93827000000E+00  0.93827000000E+00 0. -1.
     999902    2    1    2    0    0  0.12696331006E-01  0.28315258467E-02  0.20119697237E-01  0.10199713570E+01  0.10196899296E+01 0.  0.
     999903    2    3    3    0    0  0.11634098161E+00 -0.45715496053E-01  0.38105286094E-01  0.13237769523E+00  0.21135533702E-01 0.  0.
         14    1    1    2    0    0 -0.12696331006E-01 -0.28315258467E-02 -0.20119697237E-01  0.23958643045E-01  0.00000000000E+00 0. -1.
     999901    1    3    3    0    0 -0.10364465060E+00  0.48547021899E-01 -0.17985588856E-01  0.88759366173E+00  0.88000000000E+00 0. -1.
        -11    1    4    4    0    0  0.59176611460E-01 -0.21606515582E-01  0.82897430780E-02  0.63542850273E-01  0.51100000000E-03 0. -1.
         11    1    4    4    0    0  0.57164370146E-01 -0.24108980471E-01  0.29815543016E-01  0.68834844954E-01  0.51100000000E-03 0.  1.
</event>
<event>
 8    1  0.1051655E+005  0.1043930E+01  0.7957747E-01            NaN
         13   -1    0    0    0    0  0.00000000000E+00  0.00000000000E+00  0.74505805969E-08  0.10566000000E+00  0.10566000000E+00 0.  1.
     999900   -1    0    0    0    0 -0.00000000000E+00 -0.00000000000E+00 -0.74505805969E-08  0.93827000000E+00  0.93827000000E+00 0.  1.
     999902    2    1    2    0    0 -0.14011701165E-01 -0.16855457536E-01  0.74373100721E-02  0.10207837735E+01  0.10205213200E+01 0.  0.
     999903    2    3    3    0    0  0.31062368831E-01 -0.11178370896E-01 -0.12391003708E+00  0.12987635596E+00  0.20599607103E-01 0.  0.
         14    1    1    2    0    0  0.14011701165E-01  0.16855457536E-01 -0.74373100721E-02  0.23146226461E-01  0.00000000000E+00 0.  1.
     999901    1    3    3    0    0 -0.45074069996E-01 -0.56770866397E-02  0.13134734716E+00  0.89090741758E+00  0.88000000000E+00 0. -1.
        -11    1    4    4    0    0  0.20542174432E-01 -0.13118670292E-01 -0.55298450686E-01  0.60433932603E-01  0.51100000000E-03 0.  1.
         11    1    4    4    0    0  0.10520194399E-01  0.19402993964E-02 -0.68611586399E-01  0.69442423353E-01  0.51100000000E-03 0. -1.
</event>
<event>
 8    1  0.1179201E+005  0.1043930E+01  0.7957747E-01            NaN
         13   -1    0    0    0    0  0.00000000000E+00  0.00000000000E+00  0.74505805969E-08  0.10566000000E+00  0.10566000000E+00 0. -1.
     999900   -1    0    0    0    0 -0.00000000000E+00 -0.00000000000E+00 -0.74505805969E-08  0.93827000000E+00  0.93827000000E+00 0.  1.
     999902    2    1    2    0    0 -0.39097728759E-02  0.10135548633E-01 -0.21689298760E-01  0.10196721899E+01  0.10193836047E+01 0.  0.
     999903    2    3    3    0    0  0.47740985974E-01  0.76862906567E-01  0.89307053276E-01  0.12869489987E+00  0.19987979888E-01 0.  0.
         14    1    1    2    0    0  0.39097728759E-02 -0.10135548633E-01  0.21689298760E-01  0.24257810098E-01  0.00000000000E+00 0. -1.
     999901    1    3    3    0    0 -0.51650758850E-01 -0.66727357934E-01 -0.11099635204E+00  0.89097729003E+00  0.88000000000E+00 0.  1.
        -11    1    4    4    0    0  0.16906137938E-01  0.45881546097E-01  0.45031704591E-01  0.66475930318E-01  0.51100000000E-03 0.  1.
         11    1    4    4    0    0  0.30834848036E-01  0.30981360470E-01  0.44275348686E-01  0.62218969553E-01  0.51100000000E-03 0. -1.
</event>
<event>
 8    1  0.1051655E+005  0.1043930E+01  0.7957747E-01            NaN
         13   -1    0    0    0    0  0.00000000000E+00  0.00000000000E+00  0.74505805969E-08  0.10566000000E+00  0.10566000000E+00 0.  1.
     999900   -1    0    0    0    0 -0.00000000000E+00 -0.00000000000E+00 -0.74505805969E-08  0.93827000000E+00  0.93827000000E+00 0. -1.
     999902    2    1    2    0    0  0.18335762008E-01  0.10565295849E-02  0.15094311766E-01  0.10201570180E+01  0.10198799865E+01 0.  0.
     999903    2    3    3    0    0  0.66606821509E-01  0.87042423881E-01 -0.70169188921E-01  0.13055399773E+00  0.10381667683E-01 0.  0.
         14    1    1    2    0    0 -0.18335762008E-01 -0.10565295849E-02 -0.15094311766E-01  0.23772981952E-01  0.00000000000E+00 0. -1.
     999901    1    3    3    0    0 -0.48271059501E-01 -0.85985894296E-01  0.85263500687E-01  0.88960302031E+00  0.88000000000E+00 0.  1.
        -11    1    4    4    0    0  0.38904950171E-01  0.50889656000E-01 -0.34920142856E-01  0.72959096305E-01  0.51100000000E-03 0. -1.
         11    1    4    4    0    0  0.27701871338E-01  0.36152767881E-01 -0.35249046065E-01  0.57594901429E-01  0.51100000000E-03 0.  1.
</event>
<event>
 8    1  0.1051655E+005  0.1043930E+01  0.7957747E-01            NaN
         13   -1    0    0    0    0  0.00000000000E+00  0.00000000000E+00  0.74505805969E-08  0.10566000000E+00  0.10566000000E+00 0.  1.
     999900   -1    0    0    0    0 -0.00000000000E+00 -0.00000000000E+00 -0.74505805969E-08  0.93827000000E+00  0.93827000000E+00 0. -1.
     999902    2    1    2    0    0  0.20616532738E-01  0.92739031796E-02  0.45448107022E-02  0.10208713355E+01  0.10206108865E+01 0.  0.
     999903    2    3    3    0    0 -0.84716556722E-01 -0.42697609501E-02  0.96426558627E-01  0.12973680800E+00  0.18396529567E-01 0.  0.
         14    1    1    2    0    0 -0.20616532738E-01 -0.92739031796E-02 -0.45448107022E-02  0.23058664459E-01  0.00000000000E+00 0.  1.
     999901    1    3    3    0    0  0.10533308946E+00  0.13543664130E-01 -0.91881747925E-01  0.89113452754E+00  0.88000000000E+00 0. -1.
        -11    1    4    4    0    0 -0.77618012668E-01 -0.14917457006E-04  0.80772984596E-01  0.11202273106E+00  0.51100000000E-03 0.  1.
         11    1    4    4    0    0 -0.70985440539E-02 -0.42548434930E-02  0.15653574031E-01  0.17714076938E-01  0.51100000000E-03 0. -1.
</event>
<event>
 8    1  0.1051655E+005  0.1043930E+01  0.7957747E-01            NaN
         13   -1    0    0    0    0  0.00000000000E+00  0.00000000000E+00  0.74505805969E-08  0.10566000000E+00  0.10566000000E+00 0.  1.
     999900   -1    0    0    0    0 -0.00000000000E+00 -0.00000000000E+00 -0.74505805969E-08  0.93827000000E+00  0.93827000000E+00 0.  1.
     999902    2    1    2    0    0  0.10544921159E-01  0.14408869656E-01 -0.16308334183E-01  0.10197479271E+01  0.10194611626E+01 0.  0.
     999903    2    3    3    0    0 -0.12172468214E+00 -0.21161094328E-01  0.27395732982E-01  0.12808065966E+00  0.19734209827E-01 0.  0.
         14    1    1    2    0    0 -0.10544921159E-01 -0.14408869656E-01  0.16308334183E-01  0.24182072923E-01  0.00000000000E+00 0.  1.
     999901    1    3    3    0    0  0.13226960330E+00  0.35569963984E-01 -0.43704067165E-01  0.89166726742E+00  0.88000000000E+00 0.  1.
        -11    1    4    4    0    0 -0.44235873568E-01 -0.17359927993E-01  0.96313824507E-02  0.48489217968E-01  0.51100000000E-03 0. -1.
         11    1    4    4    0    0 -0.77488808575E-01 -0.38011663346E-02  0.17764350531E-01  0.79591441693E-01  0.51100000000E-03 0.  1.
</event>
<event>
 8    1  0.1051655E+005  0.1043930E+01  0.7957747E-01            NaN
         13   -1    0    0    0    0  0.00000000000E+00  0.00000000000E+00  0.74505805969E-08  0.10566000000E+00  0.10566000000E+00 0. -1.
     999900   -1    0    0    0    0 -0.00000000000E+00 -0.00000000000E+00 -0.74505805969E-08  0.93827000000E+00  0.93827000000E+00 0.  1.
     999902    2    1    2    0    0  0.16641375734E-01 -0.49466716736E-02  0.12465507057E-01  0.10225572647E+01  0.10223338818E+01 0.  0.
     999903    2    3    3    0    0 -0.56353182999E-01  0.11059026292E+00 -0.35687981559E-01  0.13070764325E+00  0.20123828885E-01 0.  0.
         14    1    1    2    0    0 -0.16641375734E-01  0.49466716736E-02 -0.12465507057E-01  0.21372735276E-01  0.00000000000E+00 0.  1.
     999901    1    3    3    0    0  0.72994558733E-01 -0.11553693459E+00  0.48153488616E-01  0.89184962148E+00  0.88000000000E+00 0.  1.
        -11    1    4    4    0    0 -0.94869981139E-02  0.38756907954E-01 -0.93756807738E-02  0.40991042416E-01  0.51100000000E-03 0. -1.
         11    1    4    4    0    0 -0.46866184885E-01  0.71833354966E-01 -0.26312300785E-01  0.89716600832E-01  0.51100000000E-03 0.  1.
</event>
<event>
 8    1  0.1051655E+005  0.1043930E+01  0.7957747E-01            NaN
         13   -1    0    0    0    0  0.00000000000E+00  0.00000000000E+00  0.74505805969E-08  0.10566000000E+00  0.10566000000E+00 0.  1.
     999900   -1    0    0    0    0 -0.00000000000E+00 -0.00000000000E+00 -0.74505805969E-08  0.93827000000E+00  0.93827000000E+00 0. -1.
     999902    2    1    2    0    0 -0.85083903454E-02 -0.14647885879E-01 -0.16561793228E-01  0.10202393634E+01  0.10199642702E+01 0.  0.
     999903    2    3    3    0    0 -0.33735977339E-01 -0.11473397443E+00  0.51572951077E-01  0.13159095170E+00  0.18825733207E-01 0.  0.
         14    1    1    2    0    0  0.85083903454E-02  0.14647885879E-01  0.16561793228E-01  0.23690636588E-01  0.00000000000E+00 0.  1.
     999901    1    3    3    0    0  0.25227586994E-01  0.10008608855E+00 -0.68134744305E-01  0.88864841172E+00  0.88000000000E+00 0. -1.
        -11    1    4    4    0    0 -0.51317013276E-02 -0.11342541891E-01 -0.22912501631E-03  0.12461991588E-01  0.51100000000E-03 0.  1.
         11    1    4    4    0    0 -0.28604276012E-01 -0.10339143253E+00  0.51802076094E-01  0.11912896011E+00  0.51100000000E-03 0. -1.
</event>
<event>
 8    1  0.1051655E+005  0.1043930E+01  0.7957747E-01            NaN
         13   -1    0    0    0    0  0.00000000000E+00  0.00000000000E+00  0.74505805969E-08  0.10566000000E+00  0.10566000000E+00 0.  1.
     999900   -1    0    0    0    0 -0.00000000000E+00 -0.00000000000E+00 -0.74505805969E-08  0.93827000000E+00  0.93827000000E+00 0.  1.
     999902    2    1    2    0    0 -0.17488412596E-01 -0.10414036526E-01  0.12296333019E-01  0.10201498289E+01  0.10198726278E+01 0.  0.
     999903    2    3    3    0    0 -0.49548839654E-01  0.11350489338E+00  0.36236784422E-01  0.13056738900E+00  0.19907038772E-01 0.  0.
         14    1    1    2    0    0  0.17488412596E-01  0.10414036526E-01 -0.12296333019E-01  0.23780171101E-01  0.00000000000E+00 0. -1.
     999901    1    3    3    0    0  0.32060427059E-01 -0.12391892990E+00 -0.23940451403E-01  0.88958243990E+00  0.88000000000E+00 0.  1.
        -11    1    4    4    0    0 -0.34871498725E-01  0.65393617059E-01  0.13359334004E-01  0.75306570108E-01  0.51100000000E-03 0. -1.
         11    1    4    4    0    0 -0.14677340930E-01  0.48111276316E-01  0.22877450417E-01  0.55260818887E-01  0.51100000000E-03 0.  1.
</event>
<event>
 8    1  0.1051655E+005  0.1043930E+01  0.7957747E-01            NaN
         13   -1    0    0    0    0  0.00000000000E+00  0.00000000000E+00  0.74505805969E-08  0.10566000000E+00  0.10566000000E+00 0.  1.
     999900   -1    0    0    0    0 -0.00000000000E+00 -0.00000000000E+00 -0.74505805969E-08  0.93827000000E+00  0.93827000000E+00 0.  1.
     999902    2    1    2    0    0 -0.12886745827E-01 -0.91650377306E-02 -0.18047979890E-01  0.10199342564E+01  0.10196519463E+01 0.  0.
     999903    2    3    3    0    0  0.12262641418E+00  0.31510659894E-01  0.32717303664E-02  0.12837783136E+00  0.20976277684E-01 0.  0.
         14    1    1    2    0    0  0.12886745827E-01  0.91650377306E-02  0.18047979890E-01  0.23995743638E-01  0.00000000000E+00 0.  1.
     999901    1    3    3    0    0 -0.13551316000E+00 -0.40675697625E-01 -0.21319710256E-01  0.89155642500E+00  0.88000000000E+00 0. -1.
        -11    1    4    4    0    0  0.10844638200E+00  0.27876703363E-01 -0.39589300090E-02  0.11204312833E+00  0.51100000000E-03 0. -1.
         11    1    4    4    0    0  0.14180032178E-01  0.36339565309E-02  0.72306603754E-02  0.16334703030E-01  0.51100000000E-03 0.  1.
</event>
<event>
 8    1  0.1051655E+005  0.1043930E+01  0.7957747E-01            NaN
         13   -1    0    0    0    0  0.00000000000E+00  0.00000000000E+00  0.74505805969E-08  0.10566000000E+00  0.10566000000E+00 0.  1.
     999900   -1    0    0    0    0 -0.00000000000E+00 -0.00000000000E+00 -0.74505805969E-08  0.93827000000E+00  0.93827000000E+00 0. -1.
     999902    2    1    2    0    0  0.15196761752E-01  0.10619846836E-03 -0.76455038719E-02  0.10269180461E+01  0.10267771262E+01 0.  0.
     999903    2    3    3    0    0 -0.34063053117E-01 -0.45399659155E-01 -0.12300008284E+00  0.13685962593E+00  0.19496568683E-01 0.  0.
         14    1    1    2    0    0 -0.15196761752E-01 -0.10619846836E-03  0.76455038719E-02  0.17011953895E-01  0.00000000000E+00 0.  1.
     999901    1    3    3    0    0  0.49259814869E-01  0.45505857624E-01  0.11535457897E+00  0.89005842018E+00  0.88000000000E+00 0.  1.
        -11    1    4    4    0    0 -0.19558122108E-01 -0.14805193879E-01 -0.36621951927E-01  0.44081088804E-01  0.51100000000E-03 0.  1.
         11    1    4    4    0    0 -0.14504931008E-01 -0.30594465276E-01 -0.86378130917E-01  0.92778537124E-01  0.51100000000E-03 0. -1.
</event>
<event>
 8    1  0.1051655E+005  0.1043930E+01  0.7957747E-01            NaN
         13   -1    0    0    0    0  0.00000000000E+00  0.00000000000E+00  0.74505805969E-08  0.10566000000E+00  0.10566000000E+00 0. -1.
     999900   -1    0    0    0    0 -0.00000000000E+00 -0.00000000000E+00 -0.74505805969E-08  0.93827000000E+00  0.93827000000E+00 0.  1.
     999902    2    1    2    0    0  0.12689138400E-01  0.17207385381E-01 -0.96744939698E-02  0.10204629129E+01  0.10201930466E+01 0.  0.
     999903    2    3    3    0    0  0.26678202911E-01 -0.99584039440E-01  0.74307319689E-01  0.12867320903E+00  0.20162081780E-01 0.  0.
         14    1    1    2    0    0 -0.12689138400E-01 -0.17207385381E-01  0.96744939698E-02  0.23467087134E-01  0.00000000000E+00 0. -1.
     999901    1    3    3    0    0 -0.13989064511E-01  0.11679142482E+00 -0.83981813659E-01  0.89178970383E+00  0.88000000000E+00 0.  1.
        -11    1    4    4    0    0  0.23775179540E-01 -0.93855397887E-01  0.62556471293E-01  0.11527214796E+00  0.51100000000E-03 0. -1.
         11    1    4    4    0    0  0.29030233710E-02 -0.57286415525E-02  0.11750848395E-01  0.13401061068E-01  0.51100000000E-03 0.  1.
</event>
<event>
 8    1  0.1051655E+005  0.1043930E+01  0.7957747E-01            NaN
         13   -1    0    0    0    0  0.00000000000E+00  0.00000000000E+00  0.74505805969E-08  0.10566000000E+00  0.10566000000E+00 0.  1.
     999900   -1    0    0    0    0 -0.00000000000E+00 -0.00000000000E+00 -0.74505805969E-08  0.93827000000E+00  0.93827000000E+00 0. -1.
     999902    2    1    2    0    0 -0.99292545208E-02  0.18593695980E-01 -0.10664380904E-01  0.10203070314E+01  0.10200335258E+01 0.  0.
     999903    2    3    3    0    0 -0.67165137657E-01  0.10712399034E+00 -0.38202594842E-01  0.13358728279E+00  0.19985465907E-01 0.  0.
         14    1    1    2    0    0  0.99292545208E-02 -0.18593695980E-01  0.10664380904E-01  0.23622968603E-01  0.00000000000E+00 0.  1.
     999901    1    3    3    0    0  0.57235883136E-01 -0.88530294364E-01  0.27538213938E-01  0.88671974860E+00  0.88000000000E+00 0.  1.
        -11    1    4    4    0    0 -0.95164356958E-02  0.31278654698E-01 -0.82895464672E-02  0.33732691706E-01  0.51100000000E-03 0. -1.
         11    1    4    4    0    0 -0.57648701961E-01  0.75845335646E-01 -0.29913048375E-01  0.99854591087E-01  0.51100000000E-03 0.  1.
</event>
<event>
 8    1  0.1051655E+005  0.1043930E+01  0.7957747E-01            NaN
         13   -1    0    0    0    0  0.00000000000E+00  0.00000000000E+00  0.74505805969E-08  0.10566000000E+00  0.10566000000E+00 0. -1.
     999900   -1    0    0    0    0 -0.00000000000E+00 -0.00000000000E+00 -0.74505805969E-08  0.93827000000E+00  0.93827000000E+00 0.  1.
     999902    2    1    2    0    0 -0.46156055198E-02 -0.70214401545E-02  0.21841748371E-01  0.10205277264E+01  0.10202593660E+01 0.  0.
     999903    2    3    3    0    0 -0.17796341007E-01 -0.72521992713E-01 -0.10322115621E+00  0.12917774788E+00  0.21357300288E-01 0.  0.
         14    1    1    2    0    0  0.46156055198E-02  0.70214401545E-02 -0.21841748371E-01  0.23402273566E-01  0.00000000000E+00 0.  1.
     999901    1    3    3    0    0  0.13180735487E-01  0.65500552559E-01  0.12506290459E+00  0.89134997856E+00  0.88000000000E+00 0. -1.
        -11    1    4    4    0    0 -0.16714814551E-01 -0.25118755316E-01 -0.37427824787E-01  0.48077438403E-01  0.51100000000E-03 0. -1.
         11    1    4    4    0    0 -0.10815264559E-02 -0.47403237397E-01 -0.65793331427E-01  0.81100309472E-01  0.51100000000E-03 0.  1.
</event>
<event>
 8    1  0.1051655E+005  0.1043930E+01  0.7957747E-01            NaN
         13   -1    0    0    0    0  0.00000000000E+00  0.00000000000E+00  0.74505805969E-08  0.10566000000E+00  0.10566000000E+00 0.  1.
     999900   -1    0    0    0    0 -0.00000000000E+00 -0.00000000000E+00 -0.74505805969E-08  0.93827000000E+00  0.93827000000E+00 0.  1.
     999902    2    1    2    0    0 -0.17968509713E-01  0.15668558345E-01 -0.14987409759E-02  0.10200424031E+01  0.10197626620E+01 0.  0.
     999903    2    3    3    0    0 -0.87452655624E-01  0.89371273724E-01  0.41455187827E-01  0.13319113213E+00  0.19650789769E-01 0.  0.
         14    1    1    2    0    0  0.17968509713E-01 -0.15668558345E-01  0.14987409759E-02  0.23887596916E-01  0.00000000000E+00 0.  1.
     999901    1    3    3    0    0  0.69484145911E-01 -0.73702715380E-01 -0.42953928803E-01  0.88685127095E+00  0.88000000000E+00 0.  1.
        -11    1    4    4    0    0 -0.51423224631E-01  0.61547270248E-01  0.33761809413E-01  0.87020316032E-01  0.51100000000E-03 0. -1.
         11    1    4    4    0    0 -0.36029430992E-01  0.27824003476E-01  0.76933784140E-02  0.46170816102E-01  0.51100000000E-03 0.  1.
</event>
<event>
 8    1  0.1051655E+005  0.1043930E+01  0.7957747E-01            NaN
         13   -1    0    0    0    0  0.00000000000E+00  0.00000000000E+00  0.74505805969E-08  0.10566000000E+00  0.10566000000E+00 0. -1.
     999900   -1    0    0    0    0 -0.00000000000E+00 -0.00000000000E+00 -0.74505805969E-08  0.93827000000E+00  0.93827000000E+00 0.  1.
     999902    2    1    2    0    0  0.19550420098E-01 -0.11849910706E-01 -0.38927273894E-02  0.10207396435E+01  0.10204761766E+01 0.  0.
     999903    2    3    3    0    0  0.12706431909E+00 -0.22582593626E-01  0.28018663823E-01  0.13355715612E+00  0.19928715692E-01 0.  0.
         14    1    1    2    0    0 -0.19550420098E-01  0.11849910706E-01  0.38927273894E-02  0.23190356537E-01  0.00000000000E+00 0. -1.
     999901    1    3    3    0    0 -0.10751389899E+00  0.10732682920E-01 -0.31911391212E-01  0.88718248734E+00  0.88000000000E+00 0.  1.
        -11    1    4    4    0    0  0.43563006716E-01 -0.10375755215E-01  0.19132679724E-01  0.48700230028E-01  0.51100000000E-03 0. -1.
         11    1    4    4    0    0  0.83501312370E-01 -0.12206838411E-01  0.88859840989E-02  0.84856926093E-01  0.51100000000E-03 0.  1.
</event>
<event>
 8    1  0.1124951E+005  0.1043930E+01  0.7957747E-01            NaN
         13   -1    0    0    0    0  0.00000000000E+00  0.00000000000E+00  0.74505805969E-08  0.10566000000E+00  0.10566000000E+00 0. -1.
     999900   -1    0    0    0    0 -0.00000000000E+00 -0.00000000000E+00 -0.74505805969E-08  0.93827000000E+00  0.93827000000E+00 0.  1.
     999902    2    1    2    0    0  0.18366746200E-02  0.22634478544E-01 -0.17632489410E-02  0.10211527737E+01  0.10208987144E+01 0.  0.
     999903    2    3    3    0    0  0.10562820621E+00  0.69716776131E-02 -0.76159291444E-01  0.13179751478E+00  0.19089918675E-01 0.  0.
         14    1    1    2    0    0 -0.18366746200E-02 -0.22634478544E-01  0.17632489410E-02  0.22777226333E-01  0.00000000000E+00 0.  1.
     999901    1    3    3    0    0 -0.10379153159E+00  0.15662800931E-01  0.74396042503E-01  0.88935525888E+00  0.88000000000E+00 0.  1.
        -11    1    4    4    0    0  0.35013176660E-01  0.10228775802E-01 -0.20674706570E-01  0.41931551450E-01  0.51100000000E-03 0. -1.
         11    1    4    4    0    0  0.70615029546E-01 -0.32570981890E-02 -0.55484584874E-01  0.89865963334E-01  0.51100000000E-03 0.  1.
</event>
<event>
 8    1  0.1051655E+005  0.1043930E+01  0.7957747E-01            NaN
         13   -1    0    0    0    0  0.00000000000E+00  0.00000000000E+00  0.74505805969E-08  0.10566000000E+00  0.10566000000E+00 0.  1.
     999900   -1    0    0    0    0 -0.00000000000E+00 -0.00000000000E+00 -0.74505805969E-08  0.93827000000E+00  0.93827000000E+00 0.  1.
     999902    2    1    2    0    0  0.10236468479E-01  0.17889459990E-01  0.11753316483E-02  0.10232854009E+01  0.10230771292E+01 0.  0.
     999903    2    3    3    0    0  0.67572286697E-01 -0.72058299737E-01 -0.86139641200E-01  0.13255429673E+00  0.19803820477E-01 0.  0.
         14    1    1    2    0    0 -0.10236468479E-01 -0.17889459990E-01 -0.11753316483E-02  0.20644599055E-01  0.00000000000E+00 0. -1.
     999901    1    3    3    0    0 -0.57335818218E-01  0.89947759727E-01  0.87314972848E-01  0.89073110421E+00  0.88000000000E+00 0. -1.
        -11    1    4    4    0    0  0.49010967449E-01 -0.43775556439E-01 -0.66213780056E-01  0.93289335201E-01  0.51100000000E-03 0.  1.
         11    1    4    4    0    0  0.18561319247E-01 -0.28282743299E-01 -0.19925861143E-01  0.39264961531E-01  0.51100000000E-03 0. -1.
</event>
<event>
 8    1  0.1051655E+005  0.1043930E+01  0.7957747E-01            NaN
         13   -1    0    0    0    0  0.00000000000E+00  0.00000000000E+00  0.74505805969E-08  0.10566000000E+00  0.10566000000E+00 0.  1.
     999900   -1    0    0    0    0 -0.00000000000E+00 -0.00000000000E+00 -0.74505805969E-08  0.93827000000E+00  0.93827000000E+00 0.  1.
     999902    2    1    2    0    0 -0.20869587156E-01  0.81295039667E-02  0.56234089672E-02  0.10208377669E+01  0.10205765503E+01 0.  0.
     999903    2    3    3    0    0  0.83188121315E-01  0.42372823410E-01  0.88622905400E-01  0.13016974340E+00  0.19350014023E-01 0.  0.
         14    1    1    2    0    0  0.20869587156E-01 -0.81295039667E-02 -0.56234089672E-02  0.23092233137E-01  0.00000000000E+00 0.  1.
     999901    1    3    3    0    0 -0.10405770847E+00 -0.34243319443E-01 -0.82999496433E-01  0.89066802347E+00  0.88000000000E+00 0.  1.
        -11    1    4    4    0    0  0.65379042658E-01  0.35805679227E-01  0.59381839035E-01  0.95304406047E-01  0.51100000000E-03 0.  1.
         11    1    4    4    0    0  0.17809078657E-01  0.65671441829E-02  0.29241066365E-01  0.34865337349E-01  0.51100000000E-03 0. -1.
</event>
<event>
 8    1  0.1051655E+005  0.1043930E+01  0.7957747E-01            NaN
         13   -1    0    0    0    0  0.00000000000E+00  0.00000000000E+00  0.74505805969E-08  0.10566000000E+00  0.10566000000E+00 0. -1.
     999900   -1    0    0    0    0 -0.00000000000E+00 -0.00000000000E+00 -0.74505805969E-08  0.93827000000E+00  0.93827000000E+00 0. -1.
     999902    2    1    2    0    0  0.22406547488E-01  0.49682284409E-02 -0.59628625811E-02  0.10202172947E+01  0.10199416826E+01 0.  0.
     999903    2    3    3    0    0 -0.45273497805E-01  0.56479230858E-01  0.10512147872E+00  0.12916527442E+00  0.19838087217E-01 0.  0.
         14    1    1    2    0    0 -0.22406547488E-01 -0.49682284409E-02  0.59628625811E-02  0.23712705336E-01  0.00000000000E+00 0. -1.
     999901    1    3    3    0    0  0.67680045294E-01 -0.51511002418E-01 -0.11108434131E+00  0.89105202025E+00  0.88000000000E+00 0. -1.
        -11    1    4    4    0    0 -0.24674778272E-01  0.18599578375E-01  0.54638650133E-01  0.62772862034E-01  0.51100000000E-03 0.  1.
         11    1    4    4    0    0 -0.20598719533E-01  0.37879652484E-01  0.50482828591E-01  0.66392412385E-01  0.51100000000E-03 0. -1.
</event>
<event>
 8    1  0.1051655E+005  0.1043930E+01  0.7957747E-01            NaN
         13   -1    0    0    0    0  0.00000000000E+00  0.00000000000E+00  0.74505805969E-08  0.10566000000E+00  0.10566000000E+00 0. -1.
     999900   -1    0    0    0    0 -0.00000000000E+00 -0.00000000000E+00 -0.74505805969E-08  0.93827000000E+00  0.93827000000E+00 0.  1.
     999902    2    1    2    0    0  0.25805065733E-02  0.21230602557E-01 -0.98832310395E-02  0.10203699543E+01  0.10200979207E+01 0.  0.
     999903    2    3    3    0    0  0.66940889399E-02  0.74950163446E-01 -0.10813763773E+00  0.13326418762E+00  0.20081264410E-01 0.  0.
         14    1    1    2    0    0 -0.25805065733E-02 -0.21230602557E-01  0.98832310395E-02  0.23560045732E-01  0.00000000000E+00 0.  1.
     999901    1    3    3    0    0 -0.41135823666E-02 -0.53719560888E-01  0.98254406695E-01  0.88710576665E+00  0.88000000000E+00 0. -1.
        -11    1    4    4    0    0  0.21033656699E-02  0.69241088268E-01 -0.89118867749E-01  0.11287686283E+00  0.51100000000E-03 0. -1.
         11    1    4    4    0    0  0.45907232700E-02  0.57090751775E-02 -0.19018769986E-01  0.20387324795E-01  0.51100000000E-03 0.  1.
</event>
<event>
 8    1  0.1051655E+005  0.1043930E+01  0.7957747E-01            NaN
         13   -1    0    0    0    0  0.00000000000E+00  0.00000000000E+00  0.74505805969E-08  0.10566000000E+00  0.10566000000E+00 0.  1.
     999900   -1    0    0    0    0 -0.00000000000E+00 -0.00000000000E+00 -0.74505805969E-08  0.93827000000E+00  0.93827000000E+00 0. -1.
     999902    2    1    2    0    0 -0.19530793611E-01  0.71523305304E-02  0.25483123178E-02  0.10229752481E+01  0.10227606057E+01 0.  0.
     999903    2    3    3    0    0 -0.10749284291E+00  0.35922586517E-01  0.71588893500E-01  0.13543276935E+00  0.19285275334E-01 0.  0.
         14    1    1    2    0    0  0.19530793611E-01 -0.71523305304E-02 -0.25483123178E-02  0.20954751889E-01  0.00000000000E+00 0. -1.
     999901    1    3    3    0    0  0.87962049294E-01 -0.28770255987E-01 -0.69040581182E-01  0.88754247876E+00  0.88000000000E+00 0. -1.
        -11    1    4    4    0    0 -0.71046740320E-01  0.33078310636E-01  0.50333726304E-01  0.93142681244E-01  0.51100000000E-03 0. -1.
         11    1    4    4    0    0 -0.36446102585E-01  0.28442758812E-02  0.21255167196E-01  0.42290088111E-01  0.51100000000E-03 0.  1.
</event>
<event>
 8    1  0.1051655E+005  0.1043930E+01  0.7957747E-01            NaN
         13   -1    0    0    0    0  0.00000000000E+00  0.00000000000E+00  0.74505805969E-08  0.10566000000E+00  0.10566000000E+00 0.  1.
     999900   -1    0    0    0    0 -0.00000000000E+00 -0.00000000000E+00 -0.74505805969E-08  0.93827000000E+00  0.93827000000E+00 0. -1.
     999902    2    1    2    0    0 -0.14365513448E-01 -0.18308843994E-01  0.16396399280E-03  0.10206575135E+01  0.10203921556E+01 0.  0.
     999903    2    3    3    0    0 -0.35575018034E-01 -0.11004160414E+00  0.63134672883E-01  0.13339765720E+00  0.20837741659E-01 0.  0.
         14    1    1    2    0    0  0.14365513448E-01  0.18308843994E-01 -0.16396399280E-03  0.23272486528E-01  0.00000000000E+00 0. -1.
     999901    1    3    3    0    0  0.21209504587E-01  0.91732760145E-01 -0.62970708890E-01  0.88725985627E+00  0.88000000000E+00 0. -1.
        -11    1    4    4    0    0 -0.34991144327E-01 -0.10199958243E+00  0.63792059148E-01  0.12529159161E+00  0.51100000000E-03 0. -1.
         11    1    4    4    0    0 -0.58387370780E-03 -0.80420217058E-02 -0.65738626511E-03  0.81060655885E-02  0.51100000000E-03 0.  1.
</event>
<event>
 8    1  0.1051655E+005  0.1043930E+01  0.7957747E-01            NaN
         13   -1    0    0    0    0  0.00000000000E+00  0.00000000000E+00  0.74505805969E-08  0.10566000000E+00  0.10566000000E+00 0. -1.
     999900   -1    0    0    0    0 -0.00000000000E+00 -0.00000000000E+00 -0.74505805969E-08  0.93827000000E+00  0.93827000000E+00 0. -1.
     999902    2    1    2    0    0  0.10425789106E-01  0.21580682116E-01 -0.38621680066E-02  0.10196536893E+01  0.10193646584E+01 0.  0.
     999903    2    3    3    0    0 -0.59134457353E-01  0.92902818795E-01  0.68319098331E-01  0.13109552561E+00  0.19766634795E-01 0.  0.
         14    1    1    2    0    0 -0.10425789106E-01 -0.21580682116E-01  0.38621680066E-02  0.24276310692E-01  0.00000000000E+00 0.  1.
     999901    1    3    3    0    0  0.69560246460E-01 -0.71322136679E-01 -0.72181266338E-01  0.88855816370E+00  0.88000000000E+00 0. -1.
        -11    1    4    4    0    0 -0.36397178388E-01  0.39210228220E-01  0.30317170469E-01  0.61494622024E-01  0.51100000000E-03 0. -1.
         11    1    4    4    0    0 -0.22737278965E-01  0.53692590576E-01  0.38001927862E-01  0.69600903584E-01  0.51100000000E-03 0.  1.
</event>
<event>
 8    1  0.1051655E+005  0.1043930E+01  0.7957747E-01            NaN
         13   -1    0    0    0    0  0.00000000000E+00  0.00000000000E+00  0.74505805969E-08  0.10566000000E+00  0.10566000000E+00 0.  1.
     999900   -1    0    0    0    0 -0.00000000000E+00 -0.00000000000E+00 -0.74505805969E-08  0.93827000000E+00  0.93827000000E+00 0.  1.
     999902    2    1    2    0    0 -0.16536552048E-01 -0.13305047271E-01 -0.10823707704E-01  0.10201049190E+01  0.10198266575E+01 0.  0.
     999903    2    3    3    0    0 -0.11864091953E+00 -0.31619586210E-01  0.44983463642E-01  0.13225630320E+00  0.19817964465E-01 0.  0.
         14    1    1    2    0    0  0.16536552048E-01  0.13305047271E-01  0.10823707704E-01  0.23825081007E-01  0.00000000000E+00 0. -1.
     999901    1    3    3    0    0  0.10210436748E+00  0.18314538939E-01 -0.55807171347E-01  0.88784861579E+00  0.88000000000E+00 0. -1.
        -11    1    4    4    0    0 -0.11557411733E-01 -0.59545520471E-02 -0.72005734695E-03  0.13031118894E-01  0.51100000000E-03 0. -1.
         11    1    4    4    0    0 -0.10708350780E+00 -0.25665034163E-01  0.45703520989E-01  0.11922518430E+00  0.51100000000E-03 0.  1.
</event>
<event>
 8    1  0.1051655E+005  0.1043930E+01  0.7957747E-01            NaN
         13   -1    0    0    0    0  0.00000000000E+00  0.00000000000E+00  0.74505805969E-08  0.10566000000E+00  0.10566000000E+00 0. -1.
     999900   -1    0    0    0    0 -0.00000000000E+00 -0.00000000000E+00 -0.74505805969E-08  0.93827000000E+00  0.93827000000E+00 0.  1.
     999902    2    1    2    0    0  0.27404006224E-02 -0.24348587840E-01  0.14423634898E-02  0.10193852666E+01  0.10190897300E+01 0.  0.
     999903    2    3    3    0    0  0.41921702735E-01 -0.64849508270E-01  0.10579654599E+00  0.13142958392E+00  0.10859949540E-01 0.  0.
         14    1    1    2    0    0 -0.27404006224E-02  0.24348587840E-01 -0.14423634898E-02  0.24544733402E-01  0.00000000000E+00 0.  1.
     999901    1    3    3    0    0 -0.39181302113E-01  0.40500920431E-01 -0.10435418250E+00  0.88795568268E+00  0.88000000000E+00 0.  1.
        -11    1    4    4    0    0  0.29727768727E-02 -0.36780953346E-02  0.11698727147E-01  0.12628821223E-01  0.51100000000E-03 0.  1.
         11    1    4    4    0    0  0.38948925862E-01 -0.61171412936E-01  0.94097818841E-01  0.11880076270E+00  0.51100000000E-03 0. -1.
</event>
<event>
 8    1  0.1051655E+005  0.1043930E+01  0.7957747E-01            NaN
         13   -1    0    0    0    0  0.00000000000E+00  0.00000000000E+00  0.74505805969E-08  0.10566000000E+00  0.10566000000E+00 0. -1.
     999900   -1    0    0    0    0 -0.00000000000E+00 -0.00000000000E+00 -0.74505805969E-08  0.93827000000E+00  0.93827000000E+00 0. -1.
     999902    2    1    2    0    0 -0.11868179422E-01  0.20626634938E-01  0.17376453363E-02  0.10200693386E+01  0.10197902355E+01 0.  0.
     999903    2    3    3    0    0  0.39891438572E-01  0.87824591175E-01 -0.87169547977E-01  0.13153171282E+00  0.19939300323E-01 0.  0.
         14    1    1    2    0    0  0.11868179422E-01 -0.20626634938E-01 -0.17376453363E-02  0.23860661411E-01  0.00000000000E+00 0.  1.
     999901    1    3    3    0    0 -0.51759617994E-01 -0.67197956237E-01  0.88907193314E-01  0.88853762577E+00  0.88000000000E+00 0. -1.
        -11    1    4    4    0    0  0.31437947136E-01  0.45385712094E-01 -0.49817863764E-01  0.74365906526E-01  0.51100000000E-03 0. -1.
         11    1    4    4    0    0  0.84534914357E-02  0.42438879081E-01 -0.37351684214E-01  0.57165806298E-01  0.51100000000E-03 0.  1.
</event>
<event>
 8    1  0.1051655E+005  0.1043930E+01  0.7957747E-01            NaN
         13   -1    0    0    0    0  0.00000000000E+00  0.00000000000E+00  0.74505805969E-08  0.10566000000E+00  0.10566000000E+00 0. -1.
     999900   -1    0    0    0    0 -0.00000000000E+00 -0.00000000000E+00 -0.74505805969E-08  0.93827000000E+00  0.93827000000E+00 0.  1.
     999902    2    1    2    0    0  0.82317385328E-02  0.14979544663E-01  0.16169134967E-01  0.10204015236E+01  0.10201302270E+01 0.  0.
     999903    2    3    3    0    0  0.10054723401E+00 -0.80111143294E-01  0.97074730884E-02  0.13045425394E+00  0.19913206451E-01 0.  0.
         14    1    1    2    0    0 -0.82317385328E-02 -0.14979544663E-01 -0.16169134967E-01  0.23528476431E-01  0.00000000000E+00 0.  1.
     999901    1    3    3    0    0 -0.92315495477E-01  0.95090687957E-01  0.64616618781E-02  0.88994726963E+00  0.88000000000E+00 0. -1.
        -11    1    4    4    0    0  0.32604745116E-01 -0.35835180076E-01 -0.21282516005E-02  0.48497629953E-01  0.51100000000E-03 0.  1.
         11    1    4    4    0    0  0.67942488894E-01 -0.44275963218E-01  0.11835724689E-01  0.81956623990E-01  0.51100000000E-03 0. -1.
</event>
<event>
 8    1  0.1051655E+005  0.1043930E+01  0.7957747E-01            NaN
         13   -1    0    0    0    0  0.00000000000E+00  0.00000000000E+00  0.74505805969E-08  0.10566000000E+00  0.10566000000E+00 0. -1.
     999900   -1    0    0    0    0 -0.00000000000E+00 -0.00000000000E+00 -0.74505805969E-08  0.93827000000E+00  0.93827000000E+00 0.  1.
     999902    2    1    2    0    0  0.11279431802E-01  0.18774929172E-01 -0.92587047789E-02  0.10201508671E+01  0.10198736905E+01 0.  0.
     999903    2    3    3    0    0  0.12485677597E+00  0.33230024137E-01  0.19994934856E-01  0.13225192110E+00  0.19932992875E-01 0.  0.
         14    1    1    2    0    0 -0.11279431802E-01 -0.18774929172E-01  0.92587047789E-02  0.23779132898E-01  0.00000000000E+00 0. -1.
     999901    1    3    3    0    0 -0.11357734417E+00 -0.14455094965E-01 -0.29253639635E-01  0.88789894600E+00  0.88000000000E+00 0.  1.
        -11    1    4    4    0    0  0.75839260990E-01  0.24694424261E-01  0.21020786838E-01  0.82483590474E-01  0.51100000000E-03 0. -1.
         11    1    4    4    0    0  0.49017514981E-01  0.85355998756E-02 -0.10258519823E-02  0.49768330627E-01  0.51100000000E-03 0.  1.
</event>
<event>
 8    1  0.1051655E+005  0.1043930E+01  0.7957747E-01            NaN
         13   -1    0    0    0    0  0.00000000000E+00  0.00000000000E+00  0.74505805969E-08  0.10566000000E+00  0.10566000000E+00 0.  1.
     999900   -1    0    0    0    0 -0.00000000000E+00 -0.00000000000E+00 -0.74505805969E-08  0.93827000000E+00  0.93827000000E+00 0. -1.
     999902    2    1    2    0    0  0.20454095383E-01  0.80778178431E-02  0.88968442701E-02  0.10202071208E+01  0.10199312694E+01 0.  0.
     999903    2    3    3    0    0  0.52017220347E-01  0.12007941224E+00 -0.53006202802E-02  0.13243341316E+00  0.19638123345E-01 0.  0.
         14    1    1    2    0    0 -0.20454095383E-01 -0.80778178431E-02 -0.88968442701E-02  0.23722879189E-01  0.00000000000E+00 0. -1.
     999901    1    3    3    0    0 -0.31563124964E-01 -0.11200159440E+00  0.14197464550E-01  0.88777370766E+00  0.88000000000E+00 0.  1.
        -11    1    4    4    0    0  0.18752227353E-01  0.34147394336E-01 -0.98060562520E-02  0.40175993216E-01  0.51100000000E-03 0. -1.
         11    1    4    4    0    0  0.33264992994E-01  0.85932017903E-01  0.45054359718E-02  0.92257419940E-01  0.51100000000E-03 0.  1.
</event>
<event>
 8    1  0.1051655E+005  0.1043930E+01  0.7957747E-01            NaN
         13   -1    0    0    0    0  0.00000000000E+00  0.00000000000E+00  0.74505805969E-08  0.10566000000E+00  0.10566000000E+00 0.  1.
     999900   -1    0    0    0    0 -0.00000000000E+00 -0.00000000000E+00 -0.74505805969E-08  0.93827000000E+00  0.93827000000E+00 0.  1.
     999902    2    1    2    0    0 -0.16507483394E-01 -0.13193053044E-01  0.14645134612E-02  0.10227474965E+01  0.10225281136E+01 0.  0.
     999903    2    3    3    0    0  0.30127660314E-01  0.82146731129E-02  0.12694243174E+00  0.13236677152E+00  0.20770759620E-01 0.  0.
         14    1    1    2    0    0  0.16507483394E-01  0.13193053044E-01 -0.14645134612E-02  0.21182503542E-01  0.00000000000E+00 0. -1.
     999901    1    3    3    0    0 -0.46635143708E-01 -0.21407726156E-01 -0.12547791828E+00  0.89038072494E+00  0.88000000000E+00 0.  1.
        -11    1    4    4    0    0  0.17930375365E-01  0.11436018816E-02  0.10316412848E+00  0.10471821576E+00  0.51100000000E-03 0. -1.
         11    1    4    4    0    0  0.12197284949E-01  0.70710712313E-02  0.23778303264E-01  0.27648555760E-01  0.51100000000E-03 0.  1.
</event>
<event>
 8    1  0.1051655E+005  0.1043930E+01  0.7957747E-01            NaN
         13   -1    0    0    0    0  0.00000000000E+00  0.00000000000E+00  0.74505805969E-08  0.10566000000E+00  0.10566000000E+00 0.  1.
     999900   -1    0    0    0    0 -0.00000000000E+00 -0.00000000000E+00 -0.74505805969E-08  0.93827000000E+00  0.93827000000E+00 0.  1.
     999902    2    1    2    0    0  0.11662202663E-01  0.38602391684E-02  0.19845759855E-01  0.10205898500E+01  0.10203229289E+01 0.  0.
     999903    2    3    3    0    0 -0.76123871536E-01  0.49837089705E-01  0.93489387337E-01  0.13197089372E+00  0.19936697732E-01 0.  0.
         14    1    1    2    0    0 -0.11662202663E-01 -0.38602391684E-02 -0.19845759855E-01  0.23340149992E-01  0.00000000000E+00 0. -1.
     999901    1    3    3    0    0  0.87786074199E-01 -0.45976850537E-01 -0.73643627482E-01  0.88861895629E+00  0.88000000000E+00 0.  1.
        -11    1    4    4    0    0 -0.17724402014E-01  0.34288555338E-02  0.23891605266E-01  0.29949647748E-01  0.51100000000E-03 0. -1.
         11    1    4    4    0    0 -0.58399469521E-01  0.46408234171E-01  0.69597782071E-01  0.10202124597E+00  0.51100000000E-03 0.  1.
</event>
<event>
 8    1  0.1252611E+005  0.1043930E+01  0.7957747E-01            NaN
         13   -1    0    0    0    0  0.00000000000E+00  0.00000000000E+00  0.74505805969E-08  0.10566000000E+00  0.10566000000E+00 0. -1.
     999900   -1    0    0    0    0 -0.00000000000E+00 -0.00000000000E+00 -0.74505805969E-08  0.93827000000E+00  0.93827000000E+00 0.  1.
     999902    2    1    2    0    0  0.51678565059E-02 -0.21438512114E-01  0.50604041212E-02  0.10213042573E+01  0.10210536038E+01 0.  0.
     999903    2    3    3    0    0 -0.39704385861E-01  0.11595732432E+00 -0.33715325406E-01  0.12867068680E+00  0.19921926460E-01 0.  0.
         14    1    1    2    0    0 -0.51678565059E-02  0.21438512114E-01 -0.50604041212E-02  0.22625742692E-01  0.00000000000E+00 0. -1.
     999901    1    3    3    0    0  0.44872242367E-01 -0.13739583643E+00  0.38775729528E-01  0.89263357051E+00  0.88000000000E+00 0.  1.
        -11    1    4    4    0    0 -0.17520427246E-01  0.67117094269E-01 -0.10261586427E-01  0.70122970495E-01  0.51100000000E-03 0.  1.
         11    1    4    4    0    0 -0.22183958615E-01  0.48840230048E-01 -0.23453738979E-01  0.58547716301E-01  0.51100000000E-03 0. -1.
</event>
<event>
 8    1  0.1051655E+005  0.1043930E+01  0.7957747E-01            NaN
         13   -1    0    0    0    0  0.00000000000E+00  0.00000000000E+00  0.74505805969E-08  0.10566000000E+00  0.10566000000E+00 0. -1.
     999900   -1    0    0    0    0 -0.00000000000E+00 -0.00000000000E+00 -0.74505805969E-08  0.93827000000E+00  0.93827000000E+00 0.  1.
     999902    2    1    2    0    0  0.22331372771E-01 -0.97398089639E-02 -0.10009276538E-02  0.10195464821E+01  0.10192548618E+01 0.  0.
     999903    2    3    3    0    0  0.11635639011E+00 -0.29039758977E-01 -0.50356579896E-01  0.13295234026E+00  0.27539472068E-01 0.  0.
         14    1    1    2    0    0 -0.22331372771E-01  0.97398089639E-02  0.10009276538E-02  0.24383517889E-01  0.00000000000E+00 0. -1.
     999901    1    3    3    0    0 -0.94025017336E-01  0.19299950013E-01  0.49355652242E-01  0.88659414185E+00  0.88000000000E+00 0. -1.
        -11    1    4    4    0    0  0.62234802971E-01 -0.58348239487E-02 -0.15069305474E-01  0.64300551785E-01  0.51100000000E-03 0.  1.
         11    1    4    4    0    0  0.54121587136E-01 -0.23204935028E-01 -0.35287274423E-01  0.68651788476E-01  0.51100000000E-03 0. -1.
</event>
<event>
 8    1  0.1051655E+005  0.1043930E+01  0.7957747E-01            NaN
         13   -1    0    0    0    0  0.00000000000E+00  0.00000000000E+00  0.74505805969E-08  0.10566000000E+00  0.10566000000E+00 0.  1.
     999900   -1    0    0    0    0 -0.00000000000E+00 -0.00000000000E+00 -0.74505805969E-08  0.93827000000E+00  0.93827000000E+00 0.  1.
     999902    2    1    2    0    0  0.76520531281E-03 -0.21809999937E-01 -0.79914174152E-02  0.10206894237E+01  0.10204248013E+01 0.  0.
     999903    2    3    3    0    0  0.10821398035E+00 -0.69273138343E-01  0.26116581007E-01  0.13222932646E+00  0.17131425285E-01 0.  0.
         14    1    1    2    0    0 -0.76520531281E-03  0.21809999937E-01  0.79914174152E-02  0.23240576343E-01  0.00000000000E+00 0.  1.
     999901    1    3    3    0    0 -0.10744877504E+00  0.47463138406E-01 -0.34107998422E-01  0.88846009720E+00  0.88000000000E+00 0.  1.
        -11    1    4    4    0    0  0.98024291035E-01 -0.67435998716E-01  0.21622035335E-01  0.12093034809E+00  0.51100000000E-03 0. -1.
         11    1    4    4    0    0  0.10189689314E-01 -0.18371396273E-02  0.44945456723E-02  0.11298978367E-01  0.51100000000E-03 0.  1.
</event>
<event>
 8    1  0.1051655E+005  0.1043930E+01  0.7957747E-01            NaN
         13   -1    0    0    0    0  0.00000000000E+00  0.00000000000E+00  0.74505805969E-08  0.10566000000E+00  0.10566000000E+00 0. -1.
     999900   -1    0    0    0    0 -0.00000000000E+00 -0.00000000000E+00 -0.74505805969E-08  0.93827000000E+00  0.93827000000E+00 0.  1.
     999902    2    1    2    0    0 -0.45181352869E-02 -0.82650885000E-03 -0.23553627108E-01  0.10199327082E+01  0.10196503613E+01 0.  0.
     999903    2    3    3    0    0  0.64164620684E-01  0.63523171474E-01 -0.94337445525E-01  0.13208781676E+00  0.19883305717E-01 0.  0.
         14    1    1    2    0    0  0.45181352869E-02  0.82650885000E-03  0.23553627108E-01  0.23997291791E-01  0.00000000000E+00 0. -1.
     999901    1    3    3    0    0 -0.68682755971E-01 -0.64349680324E-01  0.70783818416E-01  0.88784489145E+00  0.88000000000E+00 0. -1.
        -11    1    4    4    0    0  0.24334685182E-01  0.11649737361E-01 -0.29855060305E-01  0.40242751276E-01  0.51100000000E-03 0. -1.
         11    1    4    4    0    0  0.39829935502E-01  0.51873434113E-01 -0.64482385220E-01  0.91845065482E-01  0.51100000000E-03 0.  1.
</event>
<event>
 8    1  0.1051655E+005  0.1043930E+01  0.7957747E-01            NaN
         13   -1    0    0    0    0  0.00000000000E+00  0.00000000000E+00  0.74505805969E-08  0.10566000000E+00  0.10566000000E+00 0. -1.
     999900   -1    0    0    0    0 -0.00000000000E+00 -0.00000000000E+00 -0.74505805969E-08  0.93827000000E+00  0.93827000000E+00 0.  1.
     999902    2    1    2    0    0  0.67580953797E-02 -0.23386809919E-01  0.25480117281E-02  0.10194533357E+01  0.10191594559E+01 0.  0.
     999903    2    3    3    0    0 -0.10529858695E-01  0.64708414233E-01 -0.10789638719E+00  0.12801763576E+00  0.21185558777E-01 0.  0.
         14    1    1    2    0    0 -0.67580953797E-02  0.23386809919E-01 -0.25480117281E-02  0.24476664297E-01  0.00000000000E+00 0.  1.
     999901    1    3    3    0    0  0.17287954075E-01 -0.88095224152E-01  0.11044439892E+00  0.89143569994E+00  0.88000000000E+00 0. -1.
        -11    1    4    4    0    0 -0.10878380689E-01  0.33392618430E-01 -0.73718152927E-01  0.81658026697E-01  0.51100000000E-03 0.  1.
         11    1    4    4    0    0  0.34852199371E-03  0.31315795803E-01 -0.34178234265E-01  0.46359609066E-01  0.51100000000E-03 0. -1.
</event>
<event>
 8    1  0.1051655E+005  0.1043930E+01  0.7957747E-01            NaN
         13   -1    0    0    0    0  0.00000000000E+00  0.00000000000E+00  0.74505805969E-08  0.10566000000E+00  0.10566000000E+00 0.  1.
     999900   -1    0    0    0    0 -0.00000000000E+00 -0.00000000000E+00 -0.74505805969E-08  0.93827000000E+00  0.93827000000E+00 0.  1.
     999902    2    1    2    0    0  0.23710802081E-02  0.73219084055E-02  0.20288291416E-01  0.10222309877E+01  0.10220006581E+01 0.  0.
     999903    2    3    3    0    0  0.14974304953E-01  0.91334871024E-01  0.96222872428E-01  0.13488489983E+00  0.19204336719E-01 0.  0.
         14    1    1    2    0    0 -0.23710802081E-02 -0.73219084055E-02 -0.20288291416E-01  0.21699012250E-01  0.00000000000E+00 0. -1.
     999901    1    3    3    0    0 -0.12603224745E-01 -0.84012962619E-01 -0.75934581012E-01  0.88734608792E+00  0.88000000000E+00 0. -1.
        -11    1    4    4    0    0  0.12944980821E-01  0.54558461592E-01  0.45585793070E-01  0.72267031976E-01  0.51100000000E-03 0. -1.
         11    1    4    4    0    0  0.20293241325E-02  0.36776409432E-01  0.50637079358E-01  0.62617867850E-01  0.51100000000E-03 0.  1.
</event>
<event>
 8    1  0.1051655E+005  0.1043930E+01  0.7957747E-01            NaN
         13   -1    0    0    0    0  0.00000000000E+00  0.00000000000E+00  0.74505805969E-08  0.10566000000E+00  0.10566000000E+00 0. -1.
     999900   -1    0    0    0    0 -0.00000000000E+00 -0.00000000000E+00 -0.74505805969E-08  0.93827000000E+00  0.93827000000E+00 0. -1.
     999902    2    1    2    0    0 -0.16742517505E-01 -0.93329457473E-02 -0.13384959057E-01  0.10205511014E+01  0.10202832831E+01 0.  0.
     999903    2    3    3    0    0 -0.42520649174E-01 -0.11664392815E+00  0.40181853957E-01  0.13204135897E+00  0.20162527404E-01 0.  0.
         14    1    1    2    0    0  0.16742517505E-01  0.93329457473E-02  0.13384959057E-01  0.23378898556E-01  0.00000000000E+00 0. -1.
     999901    1    3    3    0    0  0.25778131670E-01  0.10731098240E+00 -0.53566813015E-01  0.88850974247E+00  0.88000000000E+00 0. -1.
        -11    1    4    4    0    0 -0.32965506275E-01 -0.63094555584E-01  0.19154204155E-01  0.73721043171E-01  0.51100000000E-03 0. -1.
         11    1    4    4    0    0 -0.95551428993E-02 -0.53549372563E-01  0.21027649802E-01  0.58320315799E-01  0.51100000000E-03 0.  1.
</event>
<event>
 8    1  0.1051655E+005  0.1043930E+01  0.7957747E-01            NaN
         13   -1    0    0    0    0  0.00000000000E+00  0.00000000000E+00  0.74505805969E-08  0.10566000000E+00  0.10566000000E+00 0.  1.
     999900   -1    0    0    0    0 -0.00000000000E+00 -0.00000000000E+00 -0.74505805969E-08  0.93827000000E+00  0.93827000000E+00 0.  1.
     999902    2    1    2    0    0  0.19679963429E-01 -0.12006479646E-01  0.56386846411E-02  0.10201970845E+01  0.10199209969E+01 0.  0.
     999903    2    3    3    0    0 -0.35298375700E-01  0.41090756552E-03 -0.12299723751E+00  0.12906072582E+00  0.16798998266E-01 0.  0.
         14    1    1    2    0    0 -0.19679963429E-01  0.12006479646E-01 -0.56386846411E-02  0.23732915509E-01  0.00000000000E+00 0. -1.
     999901    1    3    3    0    0  0.54978339129E-01 -0.12417387212E-01  0.12863592215E+00  0.89113635867E+00  0.88000000000E+00 0. -1.
        -11    1    4    4    0    0 -0.25479559501E-01  0.73187975975E-02 -0.94112777345E-01  0.97776524438E-01  0.51100000000E-03 0. -1.
         11    1    4    4    0    0 -0.98188161987E-02 -0.69078900320E-02 -0.28884460162E-01  0.31284201382E-01  0.51100000000E-03 0.  1.
</event>
<event>
 8    1  0.1051655E+005  0.1043930E+01  0.7957747E-01            NaN
         13   -1    0    0    0    0  0.00000000000E+00  0.00000000000E+00  0.74505805969E-08  0.10566000000E+00  0.10566000000E+00 0. -1.
     999900   -1    0    0    0    0 -0.00000000000E+00 -0.00000000000E+00 -0.74505805969E-08  0.93827000000E+00  0.93827000000E+00 0.  1.
     999902    2    1    2    0    0 -0.56892891803E-02  0.12928429822E-01  0.19065876413E-01  0.10202019585E+01  0.10199259857E+01 0.  0.
     999903    2    3    3    0    0 -0.12778980779E+00 -0.12143901366E-01 -0.14487521747E-01  0.13078473980E+00  0.20421815826E-01 0.  0.
         14    1    1    2    0    0  0.56892891803E-02 -0.12928429822E-01 -0.19065876413E-01  0.23728041479E-01  0.00000000000E+00 0.  1.
     999901    1    3    3    0    0  0.12210051861E+00  0.25072331189E-01  0.33553398160E-01  0.88941721872E+00  0.88000000000E+00 0. -1.
        -11    1    4    4    0    0 -0.76855834447E-01  0.18866847769E-02 -0.44752688757E-02  0.77010830541E-01  0.51100000000E-03 0.  1.
         11    1    4    4    0    0 -0.50933973343E-01 -0.14030586143E-01 -0.10012252872E-01  0.53773909256E-01  0.51100000000E-03 0. -1.
</event>
<event>
 8    1  0.1051655E+005  0.1043930E+01  0.7957747E-01            NaN
         13   -1    0    0    0    0  0.00000000000E+00  0.00000000000E+00  0.74505805969E-08  0.10566000000E+00  0.10566000000E+00 0. -1.
     999900   -1    0    0    0    0 -0.00000000000E+00 -0.00000000000E+00 -0.74505805969E-08  0.93827000000E+00  0.93827000000E+00 0.  1.
     999902    2    1    2    0    0  0.10640582311E-01 -0.20786691261E-01  0.21049198312E-02  0.10204834819E+01  0.10202140940E+01 0.  0.
     999903    2    3    3    0    0 -0.42616957441E-01 -0.14847137740E-01 -0.12038845544E+00  0.13038445882E+00  0.21681428410E-01 0.  0.
         14    1    1    2    0    0 -0.10640582311E-01  0.20786691261E-01 -0.21049198312E-02  0.23446518142E-01  0.00000000000E+00 0.  1.
     999901    1    3    3    0    0  0.53257539753E-01 -0.59395535209E-02  0.12249337527E+00  0.89009902304E+00  0.88000000000E+00 0. -1.
        -11    1    4    4    0    0 -0.12190755683E-01  0.37879471590E-02 -0.48112721469E-01  0.49780097990E-01  0.51100000000E-03 0.  1.
         11    1    4    4    0    0 -0.30426201758E-01 -0.18635084899E-01 -0.72275733967E-01  0.80604360825E-01  0.51100000000E-03 0. -1.
</event>
<event>
 8    1  0.1051655E+005  0.1043930E+01  0.7957747E-01            NaN
         13   -1    0    0    0    0  0.00000000000E+00  0.00000000000E+00  0.74505805969E-08  0.10566000000E+00  0.10566000000E+00 0.  1.
     999900   -1    0    0    0    0 -0.00000000000E+00 -0.00000000000E+00 -0.74505805969E-08  0.93827000000E+00  0.93827000000E+00 0.  1.
     999902    2    1    2    0    0  0.59093005839E-03 -0.15512062510E-01 -0.17057116227E-01  0.10208666417E+01  0.10206060855E+01 0.  0.
     999903    2    3    3    0    0  0.58008378368E-01  0.10202772277E+00  0.49194488223E-01  0.12873344561E+00  0.19431267873E-01 0.  0.
         14    1    1    2    0    0 -0.59093005839E-03  0.15512062510E-01  0.17057116227E-01  0.23063358290E-01  0.00000000000E+00 0.  1.
     999901    1    3    3    0    0 -0.57417448310E-01 -0.11753978528E+00 -0.66251604450E-01  0.89213319610E+00  0.88000000000E+00 0. -1.
        -11    1    4    4    0    0  0.34747447834E-01  0.55802636656E-01  0.37484858020E-01  0.75674930396E-01  0.51100000000E-03 0. -1.
         11    1    4    4    0    0  0.23260930535E-01  0.46225086118E-01  0.11709630203E-01  0.53058515211E-01  0.51100000000E-03 0.  1.
</event>
<event>
 8    1  0.1051655E+005  0.1043930E+01  0.7957747E-01            NaN
         13   -1    0    0    0    0  0.00000000000E+00  0.00000000000E+00  0.74505805969E-08  0.10566000000E+00  0.10566000000E+00 0. -1.
     999900   -1    0    0    0    0 -0.00000000000E+00 -0.00000000000E+00 -0.74505805969E-08  0.93827000000E+00  0.93827000000E+00 0. -1.
     999902    2    1    2    0    0 -0.59310819490E-03 -0.22278775003E-01 -0.89144327509E-02  0.10199266106E+01  0.10196441184E+01 0.  0.
     999903    2    3    3    0    0 -0.11845630934E+00 -0.49303882172E-01 -0.17141516504E-01  0.13161935769E+00  0.23812889628E-01 0.  0.
         14    1    1    2    0    0  0.59310819490E-03  0.22278775003E-01  0.89144327509E-02  0.24003389433E-01  0.00000000000E+00 0.  1.
     999901    1    3    3    0    0  0.11786320114E+00  0.27025107168E-01  0.82270837530E-02  0.88830725287E+00  0.88000000000E+00 0. -1.
        -11    1    4    4    0    0 -0.92550137358E-01 -0.35271685715E-01 -0.22748832434E-01  0.10162376807E+00  0.51100000000E-03 0.  1.
         11    1    4    4    0    0 -0.25906171980E-01 -0.14032196457E-01  0.56073159305E-02  0.29995589626E-01  0.51100000000E-03 0. -1.
</event>
<event>
 8    1  0.1051655E+005  0.1043930E+01  0.7957747E-01            NaN
         13   -1    0    0    0    0  0.00000000000E+00  0.00000000000E+00  0.74505805969E-08  0.10566000000E+00  0.10566000000E+00 0. -1.
     999900   -1    0    0    0    0 -0.00000000000E+00 -0.00000000000E+00 -0.74505805969E-08  0.93827000000E+00  0.93827000000E+00 0. -1.
     999902    2    1    2    0    0 -0.11213682427E-01 -0.19666253515E-01 -0.88061527103E-02  0.10196389208E+01  0.10193495340E+01 0.  0.
     999903    2    3    3    0    0 -0.62561050784E-01  0.10814294009E+00  0.21828246904E-01  0.12839809557E+00  0.20020439920E-01 0.  0.
         14    1    1    2    0    0  0.11213682427E-01  0.19666253515E-01  0.88061527103E-02  0.24291079153E-01  0.00000000000E+00 0.  1.
     999901    1    3    3    0    0  0.51347368357E-01 -0.12780919361E+00 -0.30634399615E-01  0.89124082528E+00  0.88000000000E+00 0. -1.
        -11    1    4    4    0    0 -0.17411055078E-01  0.38087585781E-01  0.16051669459E-01  0.44852271324E-01  0.51100000000E-03 0. -1.
         11    1    4    4    0    0 -0.45149995705E-01  0.70055354313E-01  0.57765774456E-02  0.83545824241E-01  0.51100000000E-03 0.  1.
</event>
<event>
 8    1  0.1051655E+005  0.1043930E+01  0.7957747E-01            NaN
         13   -1    0    0    0    0  0.00000000000E+00  0.00000000000E+00  0.74505805969E-08  0.10566000000E+00  0.10566000000E+00 0.  1.
     999900   -1    0    0    0    0 -0.00000000000E+00 -0.00000000000E+00 -0.74505805969E-08  0.93827000000E+00  0.93827000000E+00 0.  1.
     999902    2    1    2    0    0 -0.68619186733E-02  0.24335741928E-01 -0.45072218339E-02  0.10182467504E+01  0.10179227944E+01 0.  0.
     999903    2    3    3    0    0  0.59017411534E-01  0.20333344923E-01 -0.11190137550E+00  0.12926440545E+00  0.17054878982E-01 0.  0.
         14    1    1    2    0    0  0.68619186733E-02 -0.24335741928E-01  0.45072218339E-02  0.25683249633E-01  0.00000000000E+00 0.  1.
     999901    1    3    3    0    0 -0.65879330207E-01  0.40023970045E-02  0.10739415367E+00  0.88898234492E+00  0.88000000000E+00 0. -1.
        -11    1    4    4    0    0  0.23202996647E-01 -0.61235559113E-03 -0.39947361928E-01  0.46203970379E-01  0.51100000000E-03 0.  1.
         11    1    4    4    0    0  0.35814414887E-01  0.20945700514E-01 -0.71954013576E-01  0.83060435072E-01  0.51100000000E-03 0. -1.
</event>
<event>
 8    1  0.1051655E+005  0.1043930E+01  0.7957747E-01            NaN
         13   -1    0    0    0    0  0.00000000000E+00  0.00000000000E+00  0.74505805969E-08  0.10566000000E+00  0.10566000000E+00 0.  1.
     999900   -1    0    0    0    0 -0.00000000000E+00 -0.00000000000E+00 -0.74505805969E-08  0.93827000000E+00  0.93827000000E+00 0.  1.
     999902    2    1    2    0    0  0.14084616340E-01  0.10711887779E-01 -0.15843227210E-01  0.10201786041E+01  0.10199020813E+01 0.  0.
     999903    2    3    3    0    0 -0.11509815121E+00 -0.21650136665E-01  0.47354575009E-01  0.12791773966E+00  0.20104216372E-01 0.  0.
         14    1    1    2    0    0 -0.14084616340E-01 -0.10711887779E-01  0.15843227210E-01  0.23751395867E-01  0.00000000000E+00 0.  1.
     999901    1    3    3    0    0  0.12918276755E+00  0.32362024444E-01 -0.63197802218E-01  0.89226086447E+00  0.88000000000E+00 0.  1.
        -11    1    4    4    0    0 -0.62156500364E-01 -0.20156217784E-02  0.21392370544E-01  0.65767681327E-01  0.51100000000E-03 0.  1.
         11    1    4    4    0    0 -0.52941650849E-01 -0.19634514887E-01  0.25962204465E-01  0.62150058336E-01  0.51100000000E-03 0. -1.
</event>
<event>
 8    1  0.1051655E+005  0.1043930E+01  0.7957747E-01            NaN
         13   -1    0    0    0    0  0.00000000000E+00  0.00000000000E+00  0.74505805969E-08  0.10566000000E+00  0.10566000000E+00 0. -1.
     999900   -1    0    0    0    0 -0.00000000000E+00 -0.00000000000E+00 -0.74505805969E-08  0.93827000000E+00  0.93827000000E+00 0.  1.
     999902    2    1    2    0    0 -0.16558866350E-01 -0.11332775232E-01 -0.57170918994E-02  0.10230658444E+01  0.10228530730E+01 0.  0.
     999903    2    3    3    0    0 -0.23449052724E-01 -0.12944320387E+00  0.23230465642E-01  0.13467656648E+00  0.17109118169E-01 0.  0.
         14    1    1    2    0    0  0.16558866350E-01  0.11332775232E-01  0.57170918994E-02  0.20864155603E-01  0.00000000000E+00 0.  1.
     999901    1    3    3    0    0  0.68901863748E-02  0.11811042864E+00 -0.28947557541E-01  0.88838927791E+00  0.88000000000E+00 0.  1.
        -11    1    4    4    0    0 -0.24378431017E-01 -0.94287469795E-01  0.14787515668E-01  0.98505667857E-01  0.51100000000E-03 0.  1.
         11    1    4    4    0    0  0.92937829280E-03 -0.35155734074E-01  0.84429499738E-02  0.36170898628E-01  0.51100000000E-03 0. -1.
</event>
<event>
 8    1  0.1051655E+005  0.1043930E+01  0.7957747E-01            NaN
         13   -1    0    0    0    0  0.00000000000E+00  0.00000000000E+00  0.74505805969E-08  0.10566000000E+00  0.10566000000E+00 0.  1.
     999900   -1    0    0    0    0 -0.00000000000E+00 -0.00000000000E+00 -0.74505805969E-08  0.93827000000E+00  0.93827000000E+00 0.  1.
     999902    2    1    2    0    0  0.12939924520E-01  0.15270607909E-01 -0.13323860069E-01  0.10198850762E+01  0.10196015939E+01 0.  0.
     999903    2    3    3    0    0  0.23974643148E-01 -0.12349227842E+00 -0.20834631177E-01  0.12891183570E+00  0.18948698720E-01 0.  0.
         14    1    1    2    0    0 -0.12939924520E-01 -0.15270607909E-01  0.13323860069E-01  0.24044923780E-01  0.00000000000E+00 0.  1.
     999901    1    3    3    0    0 -0.11034718628E-01  0.13876288633E+00  0.75107711087E-02  0.89097324052E+00  0.88000000000E+00 0.  1.
        -11    1    4    4    0    0  0.27114194601E-01 -0.10852510470E+00 -0.17104408080E-01  0.11316227196E+00  0.51100000000E-03 0. -1.
         11    1    4    4    0    0 -0.31395514525E-02 -0.14967173727E-01 -0.37302230975E-02  0.15749563742E-01  0.51100000000E-03 0.  1.
</event>
<event>
 8    1  0.1051655E+005  0.1043930E+01  0.7957747E-01            NaN
         13   -1    0    0    0    0  0.00000000000E+00  0.00000000000E+00  0.74505805969E-08  0.10566000000E+00  0.10566000000E+00 0.  1.
     999900   -1    0    0    0    0 -0.00000000000E+00 -0.00000000000E+00 -0.74505805969E-08  0.93827000000E+00  0.93827000000E+00 0.  1.
     999902    2    1    2    0    0 -0.22404743861E-01 -0.73275645304E-02 -0.58336783892E-02  0.10196463110E+01  0.10193571023E+01 0.  0.
     999903    2    3    3    0    0  0.86874030143E-01  0.56709552049E-01  0.70925144070E-01  0.12727053834E+00  0.20108293347E-01 0.  0.
         14    1    1    2    0    0  0.22404743861E-01  0.73275645304E-02  0.58336783892E-02  0.24283689031E-01  0.00000000000E+00 0. -1.
     999901    1    3    3    0    0 -0.10927877400E+00 -0.64037116579E-01 -0.76758822460E-01  0.89237577263E+00  0.88000000000E+00 0.  1.
        -11    1    4    4    0    0  0.34615299911E-01  0.33434091283E-01  0.27359084693E-01  0.55360979796E-01  0.51100000000E-03 0. -1.
         11    1    4    4    0    0  0.52258730232E-01  0.23275460766E-01  0.43566059377E-01  0.71909558544E-01  0.51100000000E-03 0.  1.
</event>
<event>
 8    1  0.1051655E+005  0.1043930E+01  0.7957747E-01            NaN
         13   -1    0    0    0    0  0.00000000000E+00  0.00000000000E+00  0.74505805969E-08  0.10566000000E+00  0.10566000000E+00 0. -1.
     999900   -1    0    0    0    0 -0.00000000000E+00 -0.00000000000E+00 -0.74505805969E-08  0.93827000000E+00  0.93827000000E+00 0.  1.
     999902    2    1    2    0    0 -0.39630175624E-02 -0.73301573918E-02 -0.21672407070E-01  0.10207108281E+01  0.10204466986E+01 0.  0.
     999903    2    3    3    0    0 -0.11678730692E+00 -0.50782174464E-01 -0.26930142359E-01  0.13242875475E+00  0.24372899174E-01 0.  0.
         14    1    1    2    0    0  0.39630175624E-02  0.73301573918E-02  0.21672407070E-01  0.23219171902E-01  0.00000000000E+00 0. -1.
     999901    1    3    3    0    0  0.11282428936E+00  0.43452017073E-01  0.52577352891E-02  0.88828207335E+00  0.88000000000E+00 0. -1.
        -11    1    4    4    0    0 -0.42533516685E-01 -0.95527111629E-02 -0.17483708232E-01  0.46971219983E-01  0.51100000000E-03 0.  1.
         11    1    4    4    0    0 -0.74253790240E-01 -0.41229463301E-01 -0.94464341268E-02  0.85457534763E-01  0.51100000000E-03 0. -1.
</event>
<event>
 8    1  0.1051655E+005  0.1043930E+01  0.7957747E-01            NaN
         13   -1    0    0    0    0  0.00000000000E+00  0.00000000000E+00  0.74505805969E-08  0.10566000000E+00  0.10566000000E+00 0.  1.
     999900   -1    0    0    0    0 -0.00000000000E+00 -0.00000000000E+00 -0.74505805969E-08  0.93827000000E+00  0.93827000000E+00 0.  1.
     999902    2    1    2    0    0 -0.53478449861E-02 -0.57224761311E-02  0.24221388953E-01  0.10184737265E+01  0.10181555430E+01 0.  0.
     999903    2    3    3    0    0  0.77458863684E-01  0.55837923000E-01 -0.80316647877E-01  0.12629950869E+00  0.19571733695E-01 0.  0.
         14    1    1    2    0    0  0.53478449861E-02  0.57224761311E-02 -0.24221388953E-01  0.25456273527E-01  0.00000000000E+00 0. -1.
     999901    1    3    3    0    0 -0.82806708670E-01 -0.61560399131E-01  0.10453803683E+00  0.89217421779E+00  0.88000000000E+00 0.  1.
        -11    1    4    4    0    0  0.86526739794E-02  0.15351256718E-01 -0.15121930722E-01  0.23226359155E-01  0.51100000000E-03 0. -1.
         11    1    4    4    0    0  0.68806189705E-01  0.40486666281E-01 -0.65194717155E-01  0.10307314953E+00  0.51100000000E-03 0.  1.
</event>
<event>
 8    1  0.1051655E+005  0.1043930E+01  0.7957747E-01            NaN
         13   -1    0    0    0    0  0.00000000000E+00  0.00000000000E+00  0.74505805969E-08  0.10566000000E+00  0.10566000000E+00 0. -1.
     999900   -1    0    0    0    0 -0.00000000000E+00 -0.00000000000E+00 -0.74505805969E-08  0.93827000000E+00  0.93827000000E+00 0. -1.
     999902    2    1    2    0    0  0.11711134079E-01 -0.20049086371E-01 -0.35446051457E-02  0.10204421148E+01  0.10201717644E+01 0.  0.
     999903    2    3    3    0    0  0.20444130932E-01 -0.11056884890E+00 -0.69040226492E-01  0.13333458520E+00  0.19186607319E-01 0.  0.
         14    1    1    2    0    0 -0.11711134079E-01  0.20049086371E-01  0.35446051457E-02  0.23487885204E-01  0.00000000000E+00 0.  1.
     999901    1    3    3    0    0 -0.87329968528E-02  0.90519762531E-01  0.65495621346E-01  0.88710752959E+00  0.88000000000E+00 0. -1.
        -11    1    4    4    0    0 -0.20227100193E-02 -0.36565042049E-01 -0.19563392938E-01  0.41522055827E-01  0.51100000000E-03 0. -1.
         11    1    4    4    0    0  0.22466840951E-01 -0.74003806853E-01 -0.49476833553E-01  0.91812529377E-01  0.51100000000E-03 0.  1.
</event>
<event>
 8    1  0.1051655E+005  0.1043930E+01  0.7957747E-01            NaN
         13   -1    0    0    0    0  0.00000000000E+00  0.00000000000E+00  0.74505805969E-08  0.10566000000E+00  0.10566000000E+00 0. -1.
     999900   -1    0    0    0    0 -0.00000000000E+00 -0.00000000000E+00 -0.74505805969E-08  0.93827000000E+00  0.93827000000E+00 0. -1.
     999902    2    1    2    0    0 -0.23038457524E-01  0.38509780871E-02  0.39275675277E-02  0.10202440053E+01  0.10199690211E+01 0.  0.
     999903    2    3    3    0    0  0.82778965346E-01  0.84669444637E-01  0.48000257779E-01  0.12913719155E+00  0.18738130539E-01 0.  0.
         14    1    1    2    0    0  0.23038457524E-01 -0.38509780871E-02 -0.39275675277E-02  0.23685994680E-01  0.00000000000E+00 0.  1.
     999901    1    3    3    0    0 -0.10581742287E+00 -0.80818466550E-01 -0.44072690251E-01  0.89110681377E+00  0.88000000000E+00 0.  1.
        -11    1    4    4    0    0  0.25955533375E-01  0.36290476348E-01  0.11601004573E-01  0.46103501109E-01  0.51100000000E-03 0. -1.
         11    1    4    4    0    0  0.56823431971E-01  0.48378968289E-01  0.36399253206E-01  0.83033690443E-01  0.51100000000E-03 0.  1.
</event>
<event>
 8    1  0.1051655E+005  0.1043930E+01  0.7957747E-01            NaN
         13   -1    0    0    0    0  0.00000000000E+00  0.00000000000E+00  0.74505805969E-08  0.10566000000E+00  0.10566000000E+00 0. -1.
     999900   -1    0    0    0    0 -0.00000000000E+00 -0.00000000000E+00 -0.74505805969E-08  0.93827000000E+00  0.93827000000E+00 0.  1.
     999902    2    1    2    0    0 -0.22001689931E-01  0.13382934372E-02  0.95998892896E-02  0.10198878856E+01  0.10196044704E+01 0.  0.
     999903    2    3    3    0    0 -0.12453136287E+00  0.20417255247E-01  0.38182191747E-01  0.13326886450E+00  0.19436713361E-01 0.  0.
         14    1    1    2    0    0  0.22001689931E-01 -0.13382934372E-02 -0.95998892896E-02  0.24042114373E-01  0.00000000000E+00 0. -1.
     999901    1    3    3    0    0  0.10252967294E+00 -0.19078961809E-01 -0.28582302457E-01  0.88661902113E+00  0.88000000000E+00 0.  1.
        -11    1    4    4    0    0 -0.10355052104E+00  0.13130261526E-01  0.24636880601E-01  0.10724901483E+00  0.51100000000E-03 0.  1.
         11    1    4    4    0    0 -0.20980841834E-01  0.72869937204E-02  0.13545311146E-01  0.26019849665E-01  0.51100000000E-03 0. -1.
</event>
<event>
 8    1  0.1051655E+005  0.1043930E+01  0.7957747E-01            NaN
         13   -1    0    0    0    0  0.00000000000E+00  0.00000000000E+00  0.74505805969E-08  0.10566000000E+00  0.10566000000E+00 0.  1.
     999900   -1    0    0    0    0 -0.00000000000E+00 -0.00000000000E+00 -0.74505805969E-08  0.93827000000E+00  0.93827000000E+00 0.  1.
     999902    2    1    2    0    0 -0.28721105417E-02 -0.13470887210E-01  0.18321435105E-01  0.10210086387E+01  0.10207513171E+01 0.  0.
     999903    2    3    3    0    0  0.32331794158E-01  0.66908566931E-01  0.10755975232E+00  0.13215339240E+00  0.19321427519E-01 0.  0.
         14    1    1    2    0    0  0.28721105417E-02  0.13470887210E-01 -0.18321435105E-01  0.22921361336E-01  0.00000000000E+00 0. -1.
     999901    1    3    3    0    0 -0.35203904699E-01 -0.80379454141E-01 -0.89238317214E-01  0.88885524627E+00  0.88000000000E+00 0.  1.
        -11    1    4    4    0    0  0.13793501687E-01  0.33064865273E-01  0.68149703035E-01  0.76994734554E-01  0.51100000000E-03 0.  1.
         11    1    4    4    0    0  0.18538292471E-01  0.33843701658E-01  0.39410049284E-01  0.55158657844E-01  0.51100000000E-03 0. -1.
</event>
<event>
 8    1  0.1051655E+005  0.1043930E+01  0.7957747E-01            NaN
         13   -1    0    0    0    0  0.00000000000E+00  0.00000000000E+00  0.74505805969E-08  0.10566000000E+00  0.10566000000E+00 0. -1.
     999900   -1    0    0    0    0 -0.00000000000E+00 -0.00000000000E+00 -0.74505805969E-08  0.93827000000E+00  0.93827000000E+00 0. -1.
     999902    2    1    2    0    0  0.19646983558E-01  0.11129821800E-01 -0.48816305634E-02  0.10208278959E+01  0.10205664534E+01 0.  0.
     999903    2    3    3    0    0  0.77936619895E-02  0.12921443642E+00  0.19717938436E-01  0.13252073269E+00  0.20392051110E-01 0.  0.
         14    1    1    2    0    0 -0.19646983558E-01 -0.11129821800E-01  0.48816305634E-02  0.23102104085E-01  0.00000000000E+00 0.  1.
     999901    1    3    3    0    0  0.11853321568E-01 -0.11808461462E+00 -0.24599568999E-01  0.88830716323E+00  0.88000000000E+00 0. -1.
        -11    1    4    4    0    0 -0.64243883543E-02  0.41931144829E-01  0.30902731352E-02  0.42535921072E-01  0.51100000000E-03 0.  1.
         11    1    4    4    0    0  0.14218050344E-01  0.87283291596E-01  0.16627665300E-01  0.89984811617E-01  0.51100000000E-03 0. -1.
</event>
<event>
 8    1  0.1051655E+005  0.1043930E+01  0.7957747E-01            NaN
         13   -1    0    0    0    0  0.00000000000E+00  0.00000000000E+00  0.74505805969E-08  0.10566000000E+00  0.10566000000E+00 0.  1.
     999900   -1    0    0    0    0 -0.00000000000E+00 -0.00000000000E+00 -0.74505805969E-08  0.93827000000E+00  0.93827000000E+00 0. -1.
     999902    2    1    2    0    0  0.14997624410E-01 -0.16602057688E-01 -0.67994595195E-02  0.10205464650E+01  0.10202785392E+01 0.  0.
     999903    2    3    3    0    0  0.85082561621E-01  0.17455109914E-01 -0.98222457178E-01  0.13238546973E+00  0.18290389494E-01 0.  0.
         14    1    1    2    0    0 -0.14997624410E-01  0.16602057688E-01  0.67994595195E-02  0.23383534959E-01  0.00000000000E+00 0. -1.
     999901    1    3    3    0    0 -0.70084937211E-01 -0.34057167602E-01  0.91422997658E-01  0.88816099531E+00  0.88000000000E+00 0.  1.
        -11    1    4    4    0    0  0.31000110336E-01 -0.22900213340E-02 -0.37383748884E-01  0.48621567644E-01  0.51100000000E-03 0. -1.
         11    1    4    4    0    0  0.54082451285E-01  0.19745131248E-01 -0.60838708294E-01  0.83763902087E-01  0.51100000000E-03 0.  1.
</event>
<event>
 8    1  0.1051655E+005  0.1043930E+01  0.7957747E-01            NaN
         13   -1    0    0    0    0  0.00000000000E+00  0.00000000000E+00  0.74505805969E-08  0.10566000000E+00  0.10566000000E+00 0.  1.
     999900   -1    0    0    0    0 -0.00000000000E+00 -0.00000000000E+00 -0.74505805969E-08  0.93827000000E+00  0.93827000000E+00 0.  1.
     999902    2    1    2    0    0  0.14001829928E-01 -0.23102538949E-02 -0.30588042807E-02  0.10294129480E+01  0.10293105813E+01 0.  0.
     999903    2    3    3    0    0 -0.95795718161E-01  0.94509907376E-01  0.15037760786E-01  0.13713657220E+00  0.21710895298E-01 0.  0.
         14    1    1    2    0    0 -0.14001829928E-01  0.23102538949E-02  0.30588042807E-02  0.14517051974E-01  0.00000000000E+00 0.  1.
     999901    1    3    3    0    0  0.10979754809E+00 -0.96820161270E-01 -0.18096565067E-01  0.89227637583E+00  0.88000000000E+00 0.  1.
        -11    1    4    4    0    0 -0.17897070961E-01  0.26396513054E-01 -0.32248811250E-02  0.32058415895E-01  0.51100000000E-03 0. -1.
         11    1    4    4    0    0 -0.77898647199E-01  0.68113394322E-01  0.18262641911E-01  0.10507815630E+00  0.51100000000E-03 0.  1.
</event>
<event>
 8    1  0.1051655E+005  0.1043930E+01  0.7957747E-01            NaN
         13   -1    0    0    0    0  0.00000000000E+00  0.00000000000E+00  0.74505805969E-08  0.10566000000E+00  0.10566000000E+00 0. -1.
     999900   -1    0    0    0    0 -0.00000000000E+00 -0.00000000000E+00 -0.74505805969E-08  0.93827000000E+00  0.93827000000E+00 0. -1.
     999902    2    1    2    0    0  0.67065481101E-02 -0.19305854420E-02 -0.24039042065E-01  0.10188984101E+01  0.10185908844E+01 0.  0.
     999903    2    3    3    0    0  0.93143054940E-01 -0.50904220282E-01  0.69483037860E-01  0.12838391500E+00  0.19689305556E-01 0.  0.
         14    1    1    2    0    0 -0.67065481101E-02  0.19305854420E-02  0.24039042065E-01  0.25031589864E-01  0.00000000000E+00 0. -1.
     999901    1    3    3    0    0 -0.86436506830E-01  0.48973634840E-01 -0.93522079925E-01  0.89051449514E+00  0.88000000000E+00 0. -1.
        -11    1    4    4    0    0  0.27991073295E-01 -0.24303211248E-01  0.29992081841E-01  0.47685766800E-01  0.51100000000E-03 0. -1.
         11    1    4    4    0    0  0.65151981644E-01 -0.26601009034E-01  0.39490956019E-01  0.80698148195E-01  0.51100000000E-03 0.  1.
</event>
<event>
 8    1  0.1051655E+005  0.1043930E+01  0.7957747E-01            NaN
         13   -1    0    0    0    0  0.00000000000E+00  0.00000000000E+00  0.74505805969E-08  0.10566000000E+00  0.10566000000E+00 0.  1.
     999900   -1    0    0    0    0 -0.00000000000E+00 -0.00000000000E+00 -0.74505805969E-08  0.93827000000E+00  0.93827000000E+00 0. -1.
     999902    2    1    2    0    0  0.11979891311E-01 -0.15636874098E-01  0.13716424104E-01  0.10199264603E+01  0.10196439646E+01 0.  0.
     999903    2    3    3    0    0 -0.12169816064E+00 -0.39249999408E-01  0.21360572965E-02  0.12944259962E+00  0.19995476923E-01 0.  0.
         14    1    1    2    0    0 -0.11979891311E-01  0.15636874098E-01 -0.13716424104E-01  0.24003539689E-01  0.00000000000E+00 0. -1.
     999901    1    3    3    0    0  0.13367805195E+00  0.23613125310E-01  0.11580366808E-01  0.89048386069E+00  0.88000000000E+00 0.  1.
        -11    1    4    4    0    0 -0.82340948786E-01 -0.31929036310E-01  0.91800907342E-02  0.88792062672E-01  0.51100000000E-03 0. -1.
         11    1    4    4    0    0 -0.39357211857E-01 -0.73209630985E-02 -0.70440334378E-02  0.40650536945E-01  0.51100000000E-03 0.  1.
</event>
<event>
 8    1  0.1191418E+005  0.1043930E+01  0.7957747E-01            NaN
         13   -1    0    0    0    0  0.00000000000E+00  0.00000000000E+00  0.74505805969E-08  0.10566000000E+00  0.10566000000E+00 0.  1.
     999900   -1    0    0    0    0 -0.00000000000E+00 -0.00000000000E+00 -0.74505805969E-08  0.93827000000E+00  0.93827000000E+00 0.  1.
     999902    2    1    2    0    0  0.31917610860E-02 -0.12685686360E-01 -0.20775875985E-01  0.10193790122E+01  0.10190833232E+01 0.  0.
     999903    2    3    3    0    0 -0.67435641372E-01  0.32546961895E-01  0.10078768081E+00  0.12707193461E+00  0.19551202150E-01 0.  0.
         14    1    1    2    0    0 -0.31917610860E-02  0.12685686360E-01  0.20775875985E-01  0.24550987764E-01  0.00000000000E+00 0.  1.
     999901    1    3    3    0    0  0.70627402458E-01 -0.45232648255E-01 -0.12156355680E+00  0.89230707763E+00  0.88000000000E+00 0.  1.
        -11    1    4    4    0    0 -0.38231785376E-01  0.76795170075E-02  0.52586235160E-01  0.65469211419E-01  0.51100000000E-03 0. -1.
         11    1    4    4    0    0 -0.29203855996E-01  0.24867444887E-01  0.48201445651E-01  0.61602723188E-01  0.51100000000E-03 0.  1.
</event>
<event>
 8    1  0.1051655E+005  0.1043930E+01  0.7957747E-01            NaN
         13   -1    0    0    0    0  0.00000000000E+00  0.00000000000E+00  0.74505805969E-08  0.10566000000E+00  0.10566000000E+00 0.  1.
     999900   -1    0    0    0    0 -0.00000000000E+00 -0.00000000000E+00 -0.74505805969E-08  0.93827000000E+00  0.93827000000E+00 0. -1.
     999902    2    1    2    0    0 -0.17944927937E-01  0.89726252380E-02 -0.12097111459E-01  0.10205020563E+01  0.10202331000E+01 0.  0.
     999903    2    3    3    0    0 -0.92340587588E-01 -0.20808388468E-01  0.88507093560E-01  0.13115238992E+00  0.20190854959E-01 0.  0.
         14    1    1    2    0    0  0.17944927937E-01 -0.89726252380E-02  0.12097111459E-01  0.23427943742E-01  0.00000000000E+00 0.  1.
     999901    1    3    3    0    0  0.74395659650E-01  0.29781013706E-01 -0.10060420502E+00  0.88934966634E+00  0.88000000000E+00 0. -1.
        -11    1    4    4    0    0 -0.10829729976E-01 -0.34999588610E-02  0.30530380439E-02  0.11794699050E-01  0.51100000000E-03 0. -1.
         11    1    4    4    0    0 -0.81510857611E-01 -0.17308429607E-01  0.85454055516E-01  0.11935769087E+00  0.51100000000E-03 0.  1.
</event>
<event>
 8    1  0.1051655E+005  0.1043930E+01  0.7957747E-01            NaN
         13   -1    0    0    0    0  0.00000000000E+00  0.00000000000E+00  0.74505805969E-08  0.10566000000E+00  0.10566000000E+00 0. -1.
     999900   -1    0    0    0    0 -0.00000000000E+00 -0.00000000000E+00 -0.74505805969E-08  0.93827000000E+00  0.93827000000E+00 0. -1.
     999902    2    1    2    0    0  0.18279431690E-01 -0.26309952471E-02  0.14264310714E-01  0.10205948266E+01  0.10203280206E+01 0.  0.
     999903    2    3    3    0    0  0.17167125376E-01  0.12838691196E+00  0.22286625401E-02  0.13081295102E+00  0.18142542876E-01 0.  0.
         14    1    1    2    0    0 -0.18279431690E-01  0.26309952471E-02 -0.14264310714E-01  0.23335173431E-01  0.00000000000E+00 0. -1.
     999901    1    3    3    0    0  0.11123063142E-02 -0.13101790720E+00  0.12035648174E-01  0.88978187555E+00  0.88000000000E+00 0. -1.
        -11    1    4    4    0    0  0.16009284947E-01  0.97240033362E-01 -0.54756943217E-02  0.98702409505E-01  0.51100000000E-03 0.  1.
         11    1    4    4    0    0  0.11578404292E-02  0.31146878594E-01  0.77043568618E-02  0.32110541513E-01  0.51100000000E-03 0. -1.
</event>
<event>
 8    1  0.1051655E+005  0.1043930E+01  0.7957747E-01            NaN
         13   -1    0    0    0    0  0.00000000000E+00  0.00000000000E+00  0.74505805969E-08  0.10566000000E+00  0.10566000000E+00 0. -1.
     999900   -1    0    0    0    0 -0.00000000000E+00 -0.00000000000E+00 -0.74505805969E-08  0.93827000000E+00  0.93827000000E+00 0.  1.
     999902    2    1    2    0    0  0.86047461844E-02 -0.38483682801E-02 -0.20078266840E-01  0.10217491886E+01  0.10215084023E+01 0.  0.
     999903    2    3    3    0    0 -0.65080689305E-01  0.11019582893E+00  0.17291268604E-01  0.13055218203E+00  0.19138114564E-01 0.  0.
         14    1    1    2    0    0 -0.86047461844E-02  0.38483682801E-02  0.20078266840E-01  0.22180811406E-01  0.00000000000E+00 0. -1.
     999901    1    3    3    0    0  0.73685435489E-01 -0.11404419721E+00 -0.37369535444E-01  0.89119700656E+00  0.88000000000E+00 0. -1.
        -11    1    4    4    0    0 -0.44604595081E-01  0.57306017036E-01  0.76765963882E-02  0.73025617039E-01  0.51100000000E-03 0.  1.
         11    1    4    4    0    0 -0.20476094224E-01  0.52889811899E-01  0.96146722162E-02  0.57526564995E-01  0.51100000000E-03 0. -1.
</event>
<event>
 8    1  0.1051655E+005  0.1043930E+01  0.7957747E-01            NaN
         13   -1    0    0    0    0  0.00000000000E+00  0.00000000000E+00  0.74505805969E-08  0.10566000000E+00  0.10566000000E+00 0.  1.
     999900   -1    0    0    0    0 -0.00000000000E+00 -0.00000000000E+00 -0.74505805969E-08  0.93827000000E+00  0.93827000000E+00 0. -1.
     999902    2    1    2    0    0 -0.10008262619E-01 -0.12261660303E-01  0.17832027654E-01  0.10200868701E+01  0.10198081818E+01 0.  0.
     999903    2    3    3    0    0 -0.49558990493E-01  0.42764154751E-01  0.11326233170E+00  0.13233744410E+00  0.19999421470E-01 0.  0.
         14    1    1    2    0    0  0.10008262619E-01  0.12261660303E-01 -0.17832027654E-01  0.23843129918E-01  0.00000000000E+00 0. -1.
     999901    1    3    3    0    0  0.39550727874E-01 -0.55025815054E-01 -0.95430304045E-01  0.88774942598E+00  0.88000000000E+00 0. -1.
        -11    1    4    4    0    0 -0.43597192540E-01  0.44413126291E-01  0.10271814194E+00  0.12010211817E+00  0.51100000000E-03 0. -1.
         11    1    4    4    0    0 -0.59617979527E-02 -0.16489715402E-02  0.10544189755E-01  0.12235325928E-01  0.51100000000E-03 0.  1.
</event>
<event>
 8    1  0.1051655E+005  0.1043930E+01  0.7957747E-01            NaN
         13   -1    0    0    0    0  0.00000000000E+00  0.00000000000E+00  0.74505805969E-08  0.10566000000E+00  0.10566000000E+00 0. -1.
     999900   -1    0    0    0    0 -0.00000000000E+00 -0.00000000000E+00 -0.74505805969E-08  0.93827000000E+00  0.93827000000E+00 0. -1.
     999902    2    1    2    0    0  0.19305549927E-01  0.11443772686E-01 -0.40222119952E-02  0.10211299478E+01  0.10208753733E+01 0.  0.
     999903    2    3    3    0    0 -0.10198531864E+00  0.78529939752E-01 -0.41405495796E-02  0.13028089065E+00  0.19697960875E-01 0.  0.
         14    1    1    2    0    0 -0.19305549927E-01 -0.11443772686E-01  0.40222119952E-02  0.22800052206E-01  0.00000000000E+00 0. -1.
     999901    1    3    3    0    0  0.12129086857E+00 -0.67086167066E-01  0.11833758446E-03  0.89084905714E+00  0.88000000000E+00 0.  1.
        -11    1    4    4    0    0 -0.45555207382E-01  0.38808085403E-01 -0.11286333192E-01  0.60901451955E-01  0.51100000000E-03 0. -1.
         11    1    4    4    0    0 -0.56430111256E-01  0.39721854349E-01  0.71457836120E-02  0.69379438696E-01  0.51100000000E-03 0.  1.
</event>
<event>
 8    1  0.1051655E+005  0.1043930E+01  0.7957747E-01            NaN
         13   -1    0    0    0    0  0.00000000000E+00  0.00000000000E+00  0.74505805969E-08  0.10566000000E+00  0.10566000000E+00 0.  1.
     999900   -1    0    0    0    0 -0.00000000000E+00 -0.00000000000E+00 -0.74505805969E-08  0.93827000000E+00  0.93827000000E+00 0. -1.
     999902    2    1    2    0    0  0.15473354705E-01 -0.16818801478E-01 -0.40284500659E-02  0.10207238543E+01  0.10204600245E+01 0.  0.
     999903    2    3    3    0    0 -0.52189307808E-01 -0.13950435358E-01 -0.11716033408E+00  0.13090067713E+00  0.22138312821E-01 0.  0.
         14    1    1    2    0    0 -0.15473354705E-01  0.16818801478E-01  0.40284500659E-02  0.23206145714E-01  0.00000000000E+00 0.  1.
     999901    1    3    3    0    0  0.67662662512E-01 -0.28683661195E-02  0.11313188402E+00  0.88982317716E+00  0.88000000000E+00 0.  1.
        -11    1    4    4    0    0 -0.24213751543E-01  0.27672898110E-02 -0.64694521494E-01  0.69134693816E-01  0.51100000000E-03 0. -1.
         11    1    4    4    0    0 -0.27975556265E-01 -0.16717725169E-01 -0.52465812589E-01  0.61765983314E-01  0.51100000000E-03 0.  1.
</event>
<event>
 8    1  0.1051655E+005  0.1043930E+01  0.7957747E-01            NaN
         13   -1    0    0    0    0  0.00000000000E+00  0.00000000000E+00  0.74505805969E-08  0.10566000000E+00  0.10566000000E+00 0. -1.
     999900   -1    0    0    0    0 -0.00000000000E+00 -0.00000000000E+00 -0.74505805969E-08  0.93827000000E+00  0.93827000000E+00 0. -1.
     999902    2    1    2    0    0  0.68235972513E-02  0.93521123045E-02  0.21087079322E-01  0.10198740569E+01  0.10195903116E+01 0.  0.
     999903    2    3    3    0    0  0.12826563341E-01  0.12321208818E+00  0.42017436798E-01  0.13227155039E+00  0.19610166913E-01 0.  0.
         14    1    1    2    0    0 -0.68235972513E-02 -0.93521123045E-02 -0.21087079322E-01  0.24055943098E-01  0.00000000000E+00 0.  1.
     999901    1    3    3    0    0 -0.60029660901E-02 -0.11385997587E+00 -0.20930357476E-01  0.88760250652E+00  0.88000000000E+00 0. -1.
        -11    1    4    4    0    0  0.13752664026E-01  0.43793682037E-01  0.17810141101E-01  0.49239055649E-01  0.51100000000E-03 0. -1.
         11    1    4    4    0    0 -0.92610068466E-03  0.79418406140E-01  0.24207295698E-01  0.83032494737E-01  0.51100000000E-03 0.  1.
</event>
<event>
 8    1  0.1051655E+005  0.1043930E+01  0.7957747E-01            NaN
         13   -1    0    0    0    0  0.00000000000E+00  0.00000000000E+00  0.74505805969E-08  0.10566000000E+00  0.10566000000E+00 0.  1.
     999900   -1    0    0    0    0 -0.00000000000E+00 -0.00000000000E+00 -0.74505805969E-08  0.93827000000E+00  0.93827000000E+00 0.  1.
     999902    2    1    2    0    0  0.12764493513E-01  0.58614222593E-02  0.22450487536E-01  0.10174476860E+01  0.10171029843E+01 0.  0.
     999903    2    3    3    0    0 -0.47078509563E-01 -0.83100182761E-01  0.84116521773E-01  0.12879811952E+00  0.19782313279E-01 0.  0.
         14    1    1    2    0    0 -0.12764493513E-01 -0.58614222593E-02 -0.22450487536E-01  0.26482314025E-01  0.00000000000E+00 0. -1.
     999901    1    3    3    0    0  0.59843003076E-01  0.88961605020E-01 -0.61666034237E-01  0.88864956646E+00  0.88000000000E+00 0.  1.
        -11    1    4    4    0    0 -0.11769751030E-01 -0.38776171424E-01  0.29827698856E-01  0.50319690477E-01  0.51100000000E-03 0. -1.
         11    1    4    4    0    0 -0.35308758533E-01 -0.44324011337E-01  0.54288822917E-01  0.78478429042E-01  0.51100000000E-03 0.  1.
</event>
<event>
 8    1  0.1051655E+005  0.1043930E+01  0.7957747E-01            NaN
         13   -1    0    0    0    0  0.00000000000E+00  0.00000000000E+00  0.74505805969E-08  0.10566000000E+00  0.10566000000E+00 0.  1.
     999900   -1    0    0    0    0 -0.00000000000E+00 -0.00000000000E+00 -0.74505805969E-08  0.93827000000E+00  0.93827000000E+00 0. -1.
     999902    2    1    2    0    0  0.17072522127E-01  0.17968231060E-01  0.16469193656E-01  0.10141715948E+01  0.10137349067E+01 0.  0.
     999903    2    3    3    0    0  0.14541734408E-02  0.86351982431E-01 -0.88402832323E-01  0.12517305033E+00  0.19860822654E-01 0.  0.
         14    1    1    2    0    0 -0.17072522127E-01 -0.17968231060E-01 -0.16469193656E-01  0.29758405180E-01  0.00000000000E+00 0. -1.
     999901    1    3    3    0    0  0.15618348686E-01 -0.68383751372E-01  0.10487202598E+00  0.88899854449E+00  0.88000000000E+00 0.  1.
        -11    1    4    4    0    0  0.15650926930E-02  0.75723663630E-01 -0.66374984176E-01  0.10070959435E+00  0.51100000000E-03 0.  1.
         11    1    4    4    0    0 -0.11091925223E-03  0.10628318802E-01 -0.22027848148E-01  0.24463455983E-01  0.51100000000E-03 0. -1.
</event>
<event>
 8    1  0.1051655E+005  0.1043930E+01  0.7957747E-01            NaN
         13   -1    0    0    0    0  0.00000000000E+00  0.00000000000E+00  0.74505805969E-08  0.10566000000E+00  0.10566000000E+00 0. -1.
     999900   -1    0    0    0    0 -0.00000000000E+00 -0.00000000000E+00 -0.74505805969E-08  0.93827000000E+00  0.93827000000E+00 0. -1.
     999902    2    1    2    0    0  0.13640128015E-01 -0.38911216923E-03 -0.19198648110E-01  0.10203759645E+01  0.10201040713E+01 0.  0.
     999903    2    3    3    0    0 -0.59462805769E-01 -0.44939223062E-01 -0.10689058909E+00  0.13188363033E+00  0.20306030503E-01 0.  0.
         14    1    1    2    0    0 -0.13640128015E-01  0.38911216923E-03  0.19198648110E-01  0.23554035531E-01  0.00000000000E+00 0. -1.
     999901    1    3    3    0    0  0.73102933783E-01  0.44550110893E-01  0.87691940976E-01  0.88849233414E+00  0.88000000000E+00 0.  1.
        -11    1    4    4    0    0 -0.15227510251E-01 -0.32162440828E-02 -0.30495989807E-01  0.34241609333E-01  0.51100000000E-03 0.  1.
         11    1    4    4    0    0 -0.44235295518E-01 -0.41722978980E-01 -0.76394599280E-01  0.97642020999E-01  0.51100000000E-03 0. -1.
</event>
<event>
 8    1  0.1051655E+005  0.1043930E+01  0.7957747E-01            NaN
         13   -1    0    0    0    0  0.00000000000E+00  0.00000000000E+00  0.74505805969E-08  0.10566000000E+00  0.10566000000E+00 0. -1.
     999900   -1    0    0    0    0 -0.00000000000E+00 -0.00000000000E+00 -0.74505805969E-08  0.93827000000E+00  0.93827000000E+00 0. -1.
     999902    2    1    2    0    0  0.98556641399E-02  0.17056881247E-01 -0.13199657026E-01  0.10202170867E+01  0.10199414697E+01 0.  0.
     999903    2    3    3    0    0 -0.77697615660E-01  0.75456630222E-01  0.69372301014E-01  0.13010797215E+00  0.19620034263E-01 0.  0.
         14    1    1    2    0    0 -0.98556641399E-02 -0.17056881247E-01  0.13199657026E-01  0.23712913341E-01  0.00000000000E+00 0. -1.
     999901    1    3    3    0    0  0.87553279799E-01 -0.58399748975E-01 -0.82571958040E-01  0.89010911451E+00  0.88000000000E+00 0. -1.
        -11    1    4    4    0    0 -0.34268757963E-01  0.36368592308E-01  0.20816279013E-01  0.54135024446E-01  0.51100000000E-03 0.  1.
         11    1    4    4    0    0 -0.43428857697E-01  0.39088037913E-01  0.48556022001E-01  0.75972947701E-01  0.51100000000E-03 0. -1.
</event>
<event>
 7    1  0.1051655E+005  0.1043930E+01  0.7957747E-01            NaN
         13   -1    0    0    0    0  0.00000000000E+00  0.00000000000E+00  0.74505805969E-08  0.10566000000E+00  0.10566000000E+00 0. -1.
     999900   -1    0    0    0    0 -0.00000000000E+00 -0.00000000000E+00 -0.74505805969E-08  0.93827000000E+00  0.93827000000E+00 0.  1.
     999903    2    1    2    0    0  0.32038072825E-01  0.10105906521E+00 -0.29601205078E-01  0.11211728502E+00  0.21323261612E-01 0.  0.
         14    1    1    2    0    0  0.24273431383E-01  0.29468761809E-01  0.12729712892E-01  0.40244912523E-01  0.00000000000E+00 0. -1.
     999901    1    1    2    0    0 -0.56311504208E-01 -0.13052782702E+00  0.16871492185E-01  0.89156780246E+00  0.88000000000E+00 0.  1.
        -11    1    3    3    0    0 -0.11736514145E-02  0.82595094641E-03  0.13980685473E-02  0.20676966102E-02  0.51100000000E-03 0. -1.
         11    1    3    3    0    0  0.33211724239E-01  0.10023311427E+00 -0.30999273625E-01  0.11004958841E+00  0.51100000000E-03 0.  1.
</event>
<event>
 7    1  0.1663852E+005  0.1043930E+01  0.7957747E-01            NaN
         13   -1    0    0    0    0  0.00000000000E+00  0.00000000000E+00  0.74505805969E-08  0.10566000000E+00  0.10566000000E+00 0.  1.
     999900   -1    0    0    0    0 -0.00000000000E+00 -0.00000000000E+00 -0.74505805969E-08  0.93827000000E+00  0.93827000000E+00 0. -1.
     999903    2    1    2    0    0 -0.38108943951E-01 -0.56386523639E-01  0.71118417108E-01  0.10034846721E+00  0.19500101604E-01 0.  0.
         14    1    1    2    0    0  0.50018703910E-02  0.58248304217E-01  0.96779030494E-02  0.59258294432E-01  0.00000000000E+00 0.  1.
     999901    1    1    2    0    0  0.33107073560E-01 -0.18617805783E-02 -0.80796320157E-01  0.88432323836E+00  0.88000000000E+00 0. -1.
        -11    1    3    3    0    0 -0.90999642915E-02 -0.20214039643E-01  0.35587798942E-01  0.41930529490E-01  0.51100000000E-03 0. -1.
         11    1    3    3    0    0 -0.29008979660E-01 -0.36172483996E-01  0.35530618166E-01  0.58417937721E-01  0.51100000000E-03 0.  1.
</event>
<event>
 8    1  0.1051655E+005  0.1043930E+01  0.7957747E-01            NaN
         13   -1    0    0    0    0  0.00000000000E+00  0.00000000000E+00  0.74505805969E-08  0.10566000000E+00  0.10566000000E+00 0. -1.
     999900   -1    0    0    0    0 -0.00000000000E+00 -0.00000000000E+00 -0.74505805969E-08  0.93827000000E+00  0.93827000000E+00 0.  1.
     999902    2    1    2    0    0  0.90816730787E-02  0.32461941472E-03  0.21697353530E-01  0.10204064519E+01  0.10201352704E+01 0.  0.
     999903    2    3    3    0    0  0.87966882217E-02  0.12868565092E+00  0.10668225442E-01  0.13102561264E+00  0.20408862252E-01 0.  0.
         14    1    1    2    0    0 -0.90816730787E-02 -0.32461941472E-03 -0.21697353530E-01  0.23523548072E-01  0.00000000000E+00 0.  1.
     999901    1    3    3    0    0  0.28498485696E-03 -0.12836103150E+00  0.11029128088E-01  0.88938083929E+00  0.88000000000E+00 0. -1.
        -11    1    4    4    0    0  0.67265198528E-02  0.66652207836E-01 -0.44518434511E-02  0.67140471475E-01  0.51100000000E-03 0.  1.
         11    1    4    4    0    0  0.20701683690E-02  0.62033443081E-01  0.15120068893E-01  0.63885141166E-01  0.51100000000E-03 0. -1.
</event>
<event>
 8    1  0.1051655E+005  0.1043930E+01  0.7957747E-01            NaN
         13   -1    0    0    0    0  0.00000000000E+00  0.00000000000E+00  0.74505805969E-08  0.10566000000E+00  0.10566000000E+00 0.  1.
     999900   -1    0    0    0    0 -0.00000000000E+00 -0.00000000000E+00 -0.74505805969E-08  0.93827000000E+00  0.93827000000E+00 0.  1.
     999902    2    1    2    0    0 -0.15183876299E-01  0.16541104826E-01 -0.61556031639E-02  0.10206480392E+01  0.10203824627E+01 0.  0.
     999903    2    3    3    0    0 -0.57198000512E-01 -0.61633087688E-01  0.97268276170E-01  0.13015778669E+00  0.20240630551E-01 0.  0.
         14    1    1    2    0    0  0.15183876299E-01 -0.16541104826E-01  0.61556031639E-02  0.23281960799E-01  0.00000000000E+00 0.  1.
     999901    1    3    3    0    0  0.42014124213E-01  0.78174192515E-01 -0.10342387933E+00  0.89049025252E+00  0.88000000000E+00 0.  1.
        -11    1    4    4    0    0 -0.16779645653E-01 -0.32695902782E-01  0.39931095254E-01  0.54270913537E-01  0.51100000000E-03 0. -1.
         11    1    4    4    0    0 -0.40418354859E-01 -0.28937184907E-01  0.57337180916E-01  0.75886873148E-01  0.51100000000E-03 0.  1.
</event>
<event>
 8    1  0.1051655E+005  0.1043930E+01  0.7957747E-01            NaN
         13   -1    0    0    0    0  0.00000000000E+00  0.00000000000E+00  0.74505805969E-08  0.10566000000E+00  0.10566000000E+00 0.  1.
     999900   -1    0    0    0    0 -0.00000000000E+00 -0.00000000000E+00 -0.74505805969E-08  0.93827000000E+00  0.93827000000E+00 0. -1.
     999902    2    1    2    0    0 -0.10782554235E-02 -0.19585156583E-02 -0.23529051025E-01  0.10202949696E+01  0.10200211813E+01 0.  0.
     999903    2    3    3    0    0 -0.11118193367E+00  0.55217964715E-01  0.30455394374E-01  0.12995442230E+00  0.23455805868E-01 0.  0.
         14    1    1    2    0    0  0.10782554235E-02  0.19585156583E-02  0.23529051025E-01  0.23635030368E-01  0.00000000000E+00 0.  1.
     999901    1    3    3    0    0  0.11010367824E+00 -0.57176480373E-01 -0.53984445399E-01  0.89034054733E+00  0.88000000000E+00 0. -1.
        -11    1    4    4    0    0 -0.37915679307E-01  0.29085669680E-01  0.47339842775E-02  0.48023396862E-01  0.51100000000E-03 0. -1.
         11    1    4    4    0    0 -0.73266254360E-01  0.26132295035E-01  0.25721410096E-01  0.81931025442E-01  0.51100000000E-03 0.  1.
</event>
<event>
 8    1  0.1051655E+005  0.1043930E+01  0.7957747E-01            NaN
         13   -1    0    0    0    0  0.00000000000E+00  0.00000000000E+00  0.74505805969E-08  0.10566000000E+00  0.10566000000E+00 0.  1.
     999900   -1    0    0    0    0 -0.00000000000E+00 -0.00000000000E+00 -0.74505805969E-08  0.93827000000E+00  0.93827000000E+00 0.  1.
     999902    2    1    2    0    0 -0.21956629393E-01 -0.72724145699E-02  0.56425578078E-02  0.10201220172E+01  0.10198441596E+01 0.  0.
     999903    2    3    3    0    0  0.74776485188E-01 -0.94293276668E-01  0.43823186677E-01  0.12973576036E+00  0.20691811489E-01 0.  0.
         14    1    1    2    0    0  0.21956629393E-01  0.72724145699E-02 -0.56425578078E-02  0.23807982833E-01  0.00000000000E+00 0. -1.
     999901    1    3    3    0    0 -0.96733114581E-01  0.87020862098E-01 -0.38180628870E-01  0.89038625681E+00  0.88000000000E+00 0.  1.
        -11    1    4    4    0    0  0.56838388494E-01 -0.55914551354E-01  0.27806358630E-01  0.84442253410E-01  0.51100000000E-03 0.  1.
         11    1    4    4    0    0  0.17938096694E-01 -0.38378725314E-01  0.16016828048E-01  0.45293506946E-01  0.51100000000E-03 0. -1.
</event>
<event>
 8    1  0.1051655E+005  0.1043930E+01  0.7957747E-01            NaN
         13   -1    0    0    0    0  0.00000000000E+00  0.00000000000E+00  0.74505805969E-08  0.10566000000E+00  0.10566000000E+00 0.  1.
     999900   -1    0    0    0    0 -0.00000000000E+00 -0.00000000000E+00 -0.74505805969E-08  0.93827000000E+00  0.93827000000E+00 0. -1.
     999902    2    1    2    0    0 -0.27193692403E-02  0.34533222543E-02 -0.27775727938E-01  0.10158086297E+01  0.10154193029E+01 0.  0.
     999903    2    3    3    0    0  0.10773491613E+00  0.51609502607E-01  0.32580724110E-01  0.12554907871E+00  0.20753666430E-01 0.  0.
         14    1    1    2    0    0  0.27193692403E-02 -0.34533222543E-02  0.27775727938E-01  0.28121370275E-01  0.00000000000E+00 0.  1.
     999901    1    3    3    0    0 -0.11045428537E+00 -0.48156180352E-01 -0.60356452048E-01  0.89025955101E+00  0.88000000000E+00 0. -1.
        -11    1    4    4    0    0  0.61007574949E-01  0.39137174424E-01  0.24501912504E-01  0.76513054183E-01  0.51100000000E-03 0.  1.
         11    1    4    4    0    0  0.46727341178E-01  0.12472328182E-01  0.80788116056E-02  0.49036024531E-01  0.51100000000E-03 0. -1.
</event>
<event>
 8    1  0.1051655E+005  0.1043930E+01  0.7957747E-01            NaN
         13   -1    0    0    0    0  0.00000000000E+00  0.00000000000E+00  0.74505805969E-08  0.10566000000E+00  0.10566000000E+00 0.  1.
     999900   -1    0    0    0    0 -0.00000000000E+00 -0.00000000000E+00 -0.74505805969E-08  0.93827000000E+00  0.93827000000E+00 0.  1.
     999902    2    1    2    0    0 -0.24183948875E-01  0.11224520431E-01  0.21683671342E-02  0.10171801391E+01  0.10168283436E+01 0.  0.
     999903    2    3    3    0    0  0.76720373672E-01  0.75866061415E-01  0.61807343554E-01  0.12705822687E+00  0.26114560814E-01 0.  0.
         14    1    1    2    0    0  0.24183948875E-01 -0.11224520431E-01 -0.21683671342E-02  0.26749860900E-01  0.00000000000E+00 0. -1.
     999901    1    3    3    0    0 -0.10090432255E+00 -0.64641540984E-01 -0.59638976420E-01  0.89012191223E+00  0.88000000000E+00 0.  1.
        -11    1    4    4    0    0  0.24719605983E-01  0.91508193456E-02  0.16469440659E-01  0.31085366514E-01  0.51100000000E-03 0. -1.
         11    1    4    4    0    0  0.52000767688E-01  0.66715242069E-01  0.45337902895E-01  0.95972860353E-01  0.51100000000E-03 0.  1.
</event>
<event>
 8    1  0.1051655E+005  0.1043930E+01  0.7957747E-01            NaN
         13   -1    0    0    0    0  0.00000000000E+00  0.00000000000E+00  0.74505805969E-08  0.10566000000E+00  0.10566000000E+00 0. -1.
     999900   -1    0    0    0    0 -0.00000000000E+00 -0.00000000000E+00 -0.74505805969E-08  0.93827000000E+00  0.93827000000E+00 0.  1.
     999902    2    1    2    0    0  0.10113112937E-01 -0.14292714989E-01 -0.15602461512E-01  0.10204780585E+01  0.10202085445E+01 0.  0.
     999903    2    3    3    0    0  0.12751489853E+00 -0.41194295878E-02  0.25378223873E-01  0.13167769195E+00  0.20443611798E-01 0.  0.
         14    1    1    2    0    0 -0.10113112937E-01  0.14292714989E-01  0.15602461512E-01  0.23451941503E-01  0.00000000000E+00 0.  1.
     999901    1    3    3    0    0 -0.11740178559E+00 -0.10173285401E-01 -0.40980685385E-01  0.88880036655E+00  0.88000000000E+00 0. -1.
        -11    1    4    4    0    0  0.30124365596E-01  0.19929319725E-02  0.14481555941E-01  0.33487695709E-01  0.51100000000E-03 0.  1.
         11    1    4    4    0    0  0.97390532935E-01 -0.61123615603E-02  0.10896667931E-01  0.98189996243E-01  0.51100000000E-03 0. -1.
</event>
<event>
 8    1  0.1051655E+005  0.1043930E+01  0.7957747E-01            NaN
         13   -1    0    0    0    0  0.00000000000E+00  0.00000000000E+00  0.74505805969E-08  0.10566000000E+00  0.10566000000E+00 0.  1.
     999900   -1    0    0    0    0 -0.00000000000E+00 -0.00000000000E+00 -0.74505805969E-08  0.93827000000E+00  0.93827000000E+00 0. -1.
     999902    2    1    2    0    0  0.12453516105E-01 -0.19099434494E-01 -0.53985756930E-02  0.10204987584E+01  0.10202297256E+01 0.  0.
     999903    2    3    3    0    0 -0.45578719106E-01  0.11557972695E+00 -0.24489143040E-01  0.12815876348E+00  0.19719472947E-01 0.  0.
         14    1    1    2    0    0 -0.12453516105E-01  0.19099434494E-01  0.53985756930E-02  0.23431241557E-01  0.00000000000E+00 0. -1.
     999901    1    3    3    0    0  0.58032235211E-01 -0.13467916144E+00  0.19090567347E-01  0.89233999496E+00  0.88000000000E+00 0. -1.
        -11    1    4    4    0    0 -0.73899503567E-02  0.44307843938E-01 -0.78127909803E-02  0.45597118599E-01  0.51100000000E-03 0.  1.
         11    1    4    4    0    0 -0.38188768749E-01  0.71271883010E-01 -0.16676352060E-01  0.82561644880E-01  0.51100000000E-03 0. -1.
</event>
<event>
 8    1  0.1051655E+005  0.1043930E+01  0.7957747E-01            NaN
         13   -1    0    0    0    0  0.00000000000E+00  0.00000000000E+00  0.74505805969E-08  0.10566000000E+00  0.10566000000E+00 0.  1.
     999900   -1    0    0    0    0 -0.00000000000E+00 -0.00000000000E+00 -0.74505805969E-08  0.93827000000E+00  0.93827000000E+00 0.  1.
     999902    2    1    2    0    0 -0.11708419762E-01 -0.86786886033E-02 -0.17198657049E-01  0.10213866965E+01  0.10211378865E+01 0.  0.
     999903    2    3    3    0    0  0.13493759815E-01 -0.45288358620E-01  0.11915212594E+00  0.12977750305E+00  0.20294191321E-01 0.  0.
         14    1    1    2    0    0  0.11708419762E-01  0.86786886033E-02  0.17198657049E-01  0.22543303517E-01  0.00000000000E+00 0.  1.
     999901    1    3    3    0    0 -0.25202179577E-01  0.36609670017E-01 -0.13635078299E+00  0.89160919343E+00  0.88000000000E+00 0.  1.
        -11    1    4    4    0    0  0.22003234072E-02 -0.33193268954E-01  0.93538276359E-01  0.99278924209E-01  0.51100000000E-03 0.  1.
         11    1    4    4    0    0  0.11293436408E-01 -0.12095089666E-01  0.25613849581E-01  0.30498578840E-01  0.51100000000E-03 0. -1.
</event>
<event>
 8    1  0.1051655E+005  0.1043930E+01  0.7957747E-01            NaN
         13   -1    0    0    0    0  0.00000000000E+00  0.00000000000E+00  0.74505805969E-08  0.10566000000E+00  0.10566000000E+00 0.  1.
     999900   -1    0    0    0    0 -0.00000000000E+00 -0.00000000000E+00 -0.74505805969E-08  0.93827000000E+00  0.93827000000E+00 0. -1.
     999902    2    1    2    0    0  0.12297164653E-01  0.20961120776E-01  0.10266786734E-01  0.10175482686E+01  0.10172062147E+01 0.  0.
     999903    2    3    3    0    0  0.52896841987E-01  0.74196621999E-02 -0.11428752302E+00  0.12774745886E+00  0.20115865578E-01 0.  0.
         14    1    1    2    0    0 -0.12297164653E-01 -0.20961120776E-01 -0.10266786734E-01  0.26381731416E-01  0.00000000000E+00 0.  1.
     999901    1    3    3    0    0 -0.40599677334E-01  0.13541458576E-01  0.12455430976E+00  0.88980080972E+00  0.88000000000E+00 0.  1.
        -11    1    4    4    0    0  0.26740268703E-01 -0.36875881290E-02 -0.40485868942E-01  0.48662171977E-01  0.51100000000E-03 0. -1.
         11    1    4    4    0    0  0.26156573285E-01  0.11107250329E-01 -0.73801654081E-01  0.79085286887E-01  0.51100000000E-03 0.  1.
</event>
<event>
 8    1  0.1051655E+005  0.1043930E+01  0.7957747E-01            NaN
         13   -1    0    0    0    0  0.00000000000E+00  0.00000000000E+00  0.74505805969E-08  0.10566000000E+00  0.10566000000E+00 0.  1.
     999900   -1    0    0    0    0 -0.00000000000E+00 -0.00000000000E+00 -0.74505805969E-08  0.93827000000E+00  0.93827000000E+00 0.  1.
     999902    2    1    2    0    0  0.50761515931E-02 -0.22141664451E-01 -0.77576027269E-03  0.10212006704E+01  0.10209476905E+01 0.  0.
     999903    2    3    3    0    0 -0.45764119574E-01 -0.26277334204E-01  0.11894209163E+00  0.13163099860E+00  0.19865691470E-01 0.  0.
         14    1    1    2    0    0 -0.50761515931E-02  0.22141664451E-01  0.77576027269E-03  0.22729329591E-01  0.00000000000E+00 0.  1.
     999901    1    3    3    0    0  0.50840271167E-01  0.41356697530E-02 -0.11971785190E+00  0.88956967181E+00  0.88000000000E+00 0.  1.
        -11    1    4    4    0    0  0.19587793808E-02 -0.17513937607E-02  0.45482237520E-02  0.52774669175E-02  0.51100000000E-03 0. -1.
         11    1    4    4    0    0 -0.47722898955E-01 -0.24525940443E-01  0.11439386788E+00  0.12635353168E+00  0.51100000000E-03 0.  1.
</event>
<event>
 8    1  0.1051655E+005  0.1043930E+01  0.7957747E-01            NaN
         13   -1    0    0    0    0  0.00000000000E+00  0.00000000000E+00  0.74505805969E-08  0.10566000000E+00  0.10566000000E+00 0. -1.
     999900   -1    0    0    0    0 -0.00000000000E+00 -0.00000000000E+00 -0.74505805969E-08  0.93827000000E+00  0.93827000000E+00 0.  1.
     999902    2    1    2    0    0  0.36079147918E-02 -0.52175865434E-02 -0.27134258835E-01  0.10160641022E+01  0.10156819145E+01 0.  0.
     999903    2    3    3    0    0 -0.25399454228E-01 -0.49821554587E-01  0.10885764991E+00  0.12403005538E+00  0.20153092007E-01 0.  0.
         14    1    1    2    0    0 -0.36079147918E-02  0.52175865434E-02  0.27134258835E-01  0.27865897814E-01  0.00000000000E+00 0. -1.
     999901    1    3    3    0    0  0.29007369020E-01  0.44603968044E-01 -0.13599190874E+00  0.89203404681E+00  0.88000000000E+00 0.  1.
        -11    1    4    4    0    0 -0.12535184418E-01 -0.41408663911E-01  0.70689203581E-01  0.82879629097E-01  0.51100000000E-03 0. -1.
         11    1    4    4    0    0 -0.12864269810E-01 -0.84128906763E-02  0.38168446324E-01  0.41150426280E-01  0.51100000000E-03 0.  1.
</event>
<event>
 8    1  0.1051655E+005  0.1043930E+01  0.7957747E-01            NaN
         13   -1    0    0    0    0  0.00000000000E+00  0.00000000000E+00  0.74505805969E-08  0.10566000000E+00  0.10566000000E+00 0. -1.
     999900   -1    0    0    0    0 -0.00000000000E+00 -0.00000000000E+00 -0.74505805969E-08  0.93827000000E+00  0.93827000000E+00 0.  1.
     999902    2    1    2    0    0  0.19407597269E-01 -0.17956637845E-01  0.61561031906E-02  0.10167823798E+01  0.10164199008E+01 0.  0.
     999903    2    3    3    0    0 -0.65262570438E-01 -0.17437212037E-01  0.10580432761E+00  0.12712004178E+00  0.20042200917E-01 0.  0.
         14    1    1    2    0    0 -0.19407597269E-01  0.17956637845E-01 -0.61561031906E-02  0.27147620171E-01  0.00000000000E+00 0. -1.
     999901    1    3    3    0    0  0.84670167707E-01 -0.51942580811E-03 -0.99648224424E-01  0.88966233804E+00  0.88000000000E+00 0. -1.
        -11    1    4    4    0    0 -0.36702918968E-01 -0.33718487188E-02  0.70666992938E-01  0.79702939949E-01  0.51100000000E-03 0. -1.
         11    1    4    4    0    0 -0.28559651470E-01 -0.14065363319E-01  0.35137334676E-01  0.47417101836E-01  0.51100000000E-03 0.  1.
</event>
<event>
 8    1  0.1051655E+005  0.1043930E+01  0.7957747E-01            NaN
         13   -1    0    0    0    0  0.00000000000E+00  0.00000000000E+00  0.74505805969E-08  0.10566000000E+00  0.10566000000E+00 0. -1.
     999900   -1    0    0    0    0 -0.00000000000E+00 -0.00000000000E+00 -0.74505805969E-08  0.93827000000E+00  0.93827000000E+00 0. -1.
     999902    2    1    2    0    0  0.19507632851E-01  0.85362218972E-02  0.15460439454E-01  0.10176157451E+01  0.10172754615E+01 0.  0.
     999903    2    3    3    0    0  0.96249836820E-01  0.65342041912E-01  0.57660805200E-01  0.13144581898E+00  0.20484661150E-01 0.  0.
         14    1    1    2    0    0 -0.19507632851E-01 -0.85362218972E-02 -0.15460439454E-01  0.26314254917E-01  0.00000000000E+00 0.  1.
     999901    1    3    3    0    0 -0.76742203968E-01 -0.56805820014E-01 -0.42200365745E-01  0.88616992610E+00  0.88000000000E+00 0.  1.
        -11    1    4    4    0    0  0.17967354745E-01  0.81414202495E-02  0.17943375701E-01  0.26670853244E-01  0.51100000000E-03 0. -1.
         11    1    4    4    0    0  0.78282482075E-01  0.57200621662E-01  0.39717429499E-01  0.10477496574E+00  0.51100000000E-03 0.  1.
</event>
<event>
 8    1  0.1051655E+005  0.1043930E+01  0.7957747E-01            NaN
         13   -1    0    0    0    0  0.00000000000E+00  0.00000000000E+00  0.74505805969E-08  0.10566000000E+00  0.10566000000E+00 0. -1.
     999900   -1    0    0    0    0 -0.00000000000E+00 -0.00000000000E+00 -0.74505805969E-08  0.93827000000E+00  0.93827000000E+00 0. -1.
     999902    2    1    2    0    0 -0.10506306801E-02  0.17482218513E-01 -0.14517773724E-01  0.10211814277E+01  0.10209280144E+01 0.  0.
     999903    2    3    3    0    0  0.30977001848E-01 -0.12042562565E+00  0.27634420072E-01  0.12886917842E+00  0.19537093404E-01 0.  0.
         14    1    1    2    0    0  0.10506306801E-02 -0.17482218513E-01  0.14517773724E-01  0.22748572326E-01  0.00000000000E+00 0. -1.
     999901    1    3    3    0    0 -0.32027632528E-01  0.13790784416E+00 -0.42152193796E-01  0.89231224925E+00  0.88000000000E+00 0. -1.
        -11    1    4    4    0    0  0.67614731092E-02 -0.57049921812E-01  0.18804273292E-01  0.60450582399E-01  0.51100000000E-03 0. -1.
         11    1    4    4    0    0  0.24215528739E-01 -0.63375703833E-01  0.88301467801E-02  0.68418596022E-01  0.51100000000E-03 0.  1.
</event>
<event>
 8    1  0.1051655E+005  0.1043930E+01  0.7957747E-01            NaN
         13   -1    0    0    0    0  0.00000000000E+00  0.00000000000E+00  0.74505805969E-08  0.10566000000E+00  0.10566000000E+00 0. -1.
     999900   -1    0    0    0    0 -0.00000000000E+00 -0.00000000000E+00 -0.74505805969E-08  0.93827000000E+00  0.93827000000E+00 0. -1.
     999902    2    1    2    0    0 -0.23044501219E-01  0.88851206753E-02 -0.67964070246E-03  0.10192225858E+01  0.10189230702E+01 0.  0.
     999903    2    3    3    0    0 -0.10317661109E+00  0.51464798737E-01 -0.61870321019E-01  0.13244274649E+00  0.20472075864E-01 0.  0.
         14    1    1    2    0    0  0.23044501219E-01 -0.88851206753E-02  0.67964070246E-03  0.24707414218E-01  0.00000000000E+00 0. -1.
     999901    1    3    3    0    0  0.80132109870E-01 -0.42579678061E-01  0.61190680317E-01  0.88677983929E+00  0.88000000000E+00 0. -1.
        -11    1    4    4    0    0 -0.92464577325E-01  0.52208797797E-01 -0.54068791346E-01  0.11916019447E+00  0.51100000000E-03 0.  1.
         11    1    4    4    0    0 -0.10712033764E-01 -0.74399906034E-03 -0.78015296737E-02  0.13282552022E-01  0.51100000000E-03 0. -1.
</event>
<event>
 8    1  0.1051655E+005  0.1043930E+01  0.7957747E-01            NaN
         13   -1    0    0    0    0  0.00000000000E+00  0.00000000000E+00  0.74505805969E-08  0.10566000000E+00  0.10566000000E+00 0. -1.
     999900   -1    0    0    0    0 -0.00000000000E+00 -0.00000000000E+00 -0.74505805969E-08  0.93827000000E+00  0.93827000000E+00 0. -1.
     999902    2    1    2    0    0 -0.23234438745E-01 -0.67606279201E-03 -0.31441069023E-03  0.10206836012E+01  0.10204188447E+01 0.  0.
     999903    2    3    3    0    0  0.11195162804E+00 -0.57494518606E-01 -0.15017214289E-01  0.12842815455E+00  0.20724079414E-01 0.  0.
         14    1    1    2    0    0  0.23234438745E-01  0.67606279201E-03  0.31441069023E-03  0.23246398835E-01  0.00000000000E+00 0. -1.
     999901    1    3    3    0    0 -0.13518606678E+00  0.56818455814E-01  0.14702803599E-01  0.89225544661E+00  0.88000000000E+00 0.  1.
        -11    1    4    4    0    0  0.51730002063E-01 -0.23209393402E-01 -0.16700029054E-01  0.59108553923E-01  0.51100000000E-03 0. -1.
         11    1    4    4    0    0  0.60221625974E-01 -0.34285125204E-01  0.16828147646E-02  0.69319600632E-01  0.51100000000E-03 0.  1.
</event>
<event>
 8    1  0.1051655E+005  0.1043930E+01  0.7957747E-01            NaN
         13   -1    0    0    0    0  0.00000000000E+00  0.00000000000E+00  0.74505805969E-08  0.10566000000E+00  0.10566000000E+00 0. -1.
     999900   -1    0    0    0    0 -0.00000000000E+00 -0.00000000000E+00 -0.74505805969E-08  0.93827000000E+00  0.93827000000E+00 0.  1.
     999902    2    1    2    0    0 -0.22188889143E-01 -0.78462196402E-02 -0.86575968094E-02  0.10188528401E+01  0.10185441797E+01 0.  0.
     999903    2    3    3    0    0 -0.23503697621E-02 -0.12706411866E+00  0.20197276659E-01  0.13012392871E+00  0.19325950155E-01 0.  0.
         14    1    1    2    0    0  0.22188889143E-01  0.78462196402E-02  0.86575968094E-02  0.25077159858E-01  0.00000000000E+00 0.  1.
     999901    1    3    3    0    0 -0.19838519381E-01  0.11921789902E+00 -0.28854873468E-01  0.88872891143E+00  0.88000000000E+00 0.  1.
        -11    1    4    4    0    0 -0.95816107299E-02 -0.39569528687E-01  0.78384472456E-02  0.41463926983E-01  0.51100000000E-03 0.  1.
         11    1    4    4    0    0  0.72312409678E-02 -0.87494589971E-01  0.12358829413E-01  0.88660001724E-01  0.51100000000E-03 0. -1.
</event>
<event>
 8    1  0.1051655E+005  0.1043930E+01  0.7957747E-01            NaN
         13   -1    0    0    0    0  0.00000000000E+00  0.00000000000E+00  0.74505805969E-08  0.10566000000E+00  0.10566000000E+00 0. -1.
     999900   -1    0    0    0    0 -0.00000000000E+00 -0.00000000000E+00 -0.74505805969E-08  0.93827000000E+00  0.93827000000E+00 0.  1.
     999902    2    1    2    0    0 -0.19072916583E-01 -0.13805467651E-01 -0.79917013596E-02  0.10190656807E+01  0.10187623016E+01 0.  0.
     999903    2    3    3    0    0  0.12008089737E+00 -0.35212856774E-01  0.14741354001E-01  0.12758441221E+00  0.20027669027E-01 0.  0.
         14    1    1    2    0    0  0.19072916583E-01  0.13805467651E-01  0.79917013596E-02  0.24864319309E-01  0.00000000000E+00 0.  1.
     999901    1    3    3    0    0 -0.13915381395E+00  0.21407389123E-01 -0.22733055361E-01  0.89148126848E+00  0.88000000000E+00 0. -1.
        -11    1    4    4    0    0  0.80041060280E-01 -0.25835581663E-01  0.19030381498E-01  0.86234941593E-01  0.51100000000E-03 0.  1.
         11    1    4    4    0    0  0.40039837087E-01 -0.93772751113E-02 -0.42890274969E-02  0.41349470618E-01  0.51100000000E-03 0. -1.
</event>
<event>
 7    1  0.1051655E+005  0.1043930E+01  0.7957747E-01            NaN
         13   -1    0    0    0    0  0.00000000000E+00  0.00000000000E+00  0.74505805969E-08  0.10566000000E+00  0.10566000000E+00 0. -1.
     999900   -1    0    0    0    0 -0.00000000000E+00 -0.00000000000E+00 -0.74505805969E-08  0.93827000000E+00  0.93827000000E+00 0.  1.
     999903    2    1    2    0    0 -0.18569114412E-01  0.91336117204E-01  0.37656272263E-02  0.95426822628E-01  0.20124617075E-01 0.  0.
         14    1    1    2    0    0 -0.60442475816E-01 -0.28890987422E-02  0.15506067152E-02  0.60531348535E-01  0.00000000000E+00 0. -1.
     999901    1    1    2    0    0  0.79011590228E-01 -0.88447018462E-01 -0.53162339414E-02  0.88797182884E+00  0.88000000000E+00 0. -1.
        -11    1    3    3    0    0 -0.16040833685E-01  0.49648300899E-01 -0.60326406407E-02  0.52525384354E-01  0.51100000000E-03 0. -1.
         11    1    3    3    0    0 -0.25282807269E-02  0.41687816306E-01  0.97982678669E-02  0.42901438274E-01  0.51100000000E-03 0.  1.
</event>
<event>
 8    1  0.1051655E+005  0.1043930E+01  0.7957747E-01            NaN
         13   -1    0    0    0    0  0.00000000000E+00  0.00000000000E+00  0.74505805969E-08  0.10566000000E+00  0.10566000000E+00 0.  1.
     999900   -1    0    0    0    0 -0.00000000000E+00 -0.00000000000E+00 -0.74505805969E-08  0.93827000000E+00  0.93827000000E+00 0.  1.
     999902    2    1    2    0    0  0.11486287244E-01 -0.19618907332E-01  0.59570123684E-02  0.10204284614E+01  0.10201577930E+01 0.  0.
     999903    2    3    3    0    0  0.10991719163E+00  0.42858830353E-01  0.54406831086E-01  0.13141805901E+00  0.19797338450E-01 0.  0.
         14    1    1    2    0    0 -0.11486287244E-01  0.19618907332E-01 -0.59570123684E-02  0.23501538586E-01  0.00000000000E+00 0. -1.
     999901    1    3    3    0    0 -0.98430904390E-01 -0.62477737684E-01 -0.48449818718E-01  0.88901040240E+00  0.88000000000E+00 0. -1.
        -11    1    4    4    0    0  0.18087677812E-01  0.93536757702E-02  0.17751680106E-01  0.27019226611E-01  0.51100000000E-03 0.  1.
         11    1    4    4    0    0  0.91829513822E-01  0.33505154582E-01  0.36655150980E-01  0.10439883240E+00  0.51100000000E-03 0. -1.
</event>
<event>
 8    1  0.1051655E+005  0.1043930E+01  0.7957747E-01            NaN
         13   -1    0    0    0    0  0.00000000000E+00  0.00000000000E+00  0.74505805969E-08  0.10566000000E+00  0.10566000000E+00 0. -1.
     999900   -1    0    0    0    0 -0.00000000000E+00 -0.00000000000E+00 -0.74505805969E-08  0.93827000000E+00  0.93827000000E+00 0. -1.
     999902    2    1    2    0    0 -0.55325775213E-02  0.15524689872E-01 -0.16653596539E-01  0.10204999405E+01  0.10202309351E+01 0.  0.
     999903    2    3    3    0    0 -0.51990149787E-02 -0.12728409228E+00 -0.47189444859E-02  0.12890760349E+00  0.19147634200E-01 0.  0.
         14    1    1    2    0    0  0.55325775213E-02 -0.15524689872E-01  0.16653596539E-01  0.23430059481E-01  0.00000000000E+00 0. -1.
     999901    1    3    3    0    0 -0.33356254254E-03  0.14280878216E+00 -0.11934652053E-01  0.89159233703E+00  0.88000000000E+00 0. -1.
        -11    1    4    4    0    0  0.56874243956E-02 -0.44740803142E-01  0.35223424764E-02  0.45241068506E-01  0.51100000000E-03 0.  1.
         11    1    4    4    0    0 -0.10886439374E-01 -0.82543289143E-01 -0.82412869623E-02  0.83666534986E-01  0.51100000000E-03 0. -1.
</event>
<event>
 8    1  0.1051655E+005  0.1043930E+01  0.7957747E-01            NaN
         13   -1    0    0    0    0  0.00000000000E+00  0.00000000000E+00  0.74505805969E-08  0.10566000000E+00  0.10566000000E+00 0.  1.
     999900   -1    0    0    0    0 -0.00000000000E+00 -0.00000000000E+00 -0.74505805969E-08  0.93827000000E+00  0.93827000000E+00 0.  1.
     999902    2    1    2    0    0 -0.87570200883E-02  0.96333117628E-02  0.19819532311E-01  0.10202171352E+01  0.10199415194E+01 0.  0.
     999903    2    3    3    0    0  0.43122503723E-02  0.12170968435E+00 -0.43299799930E-01  0.13077013327E+00  0.19852262204E-01 0.  0.
         14    1    1    2    0    0  0.87570200883E-02 -0.96333117628E-02 -0.19819532311E-01  0.23712864808E-01  0.00000000000E+00 0. -1.
     999901    1    3    3    0    0 -0.13069270461E-01 -0.11207637259E+00  0.63119332241E-01  0.88944700192E+00  0.88000000000E+00 0.  1.
        -11    1    4    4    0    0 -0.46708374183E-02  0.76406903665E-01 -0.20429816291E-01  0.79230487595E-01  0.51100000000E-03 0. -1.
         11    1    4    4    0    0  0.89830877906E-02  0.45302780683E-01 -0.22869983639E-01  0.51539645677E-01  0.51100000000E-03 0.  1.
</event>
<event>
 8    1  0.1051655E+005  0.1043930E+01  0.7957747E-01            NaN
         13   -1    0    0    0    0  0.00000000000E+00  0.00000000000E+00  0.74505805969E-08  0.10566000000E+00  0.10566000000E+00 0. -1.
     999900   -1    0    0    0    0 -0.00000000000E+00 -0.00000000000E+00 -0.74505805969E-08  0.93827000000E+00  0.93827000000E+00 0.  1.
     999902    2    1    2    0    0  0.58401667794E-02  0.23050632797E-01  0.77250568609E-02  0.10189276856E+01  0.10186208877E+01 0.  0.
     999903    2    3    3    0    0  0.72761815486E-01 -0.84672765194E-01 -0.57956628582E-01  0.12741384875E+00  0.20286919409E-01 0.  0.
         14    1    1    2    0    0 -0.58401667794E-02 -0.23050632797E-01 -0.77250568609E-02  0.25002314370E-01  0.00000000000E+00 0.  1.
     999901    1    3    3    0    0 -0.66921648706E-01  0.10772339799E+00  0.65681685443E-01  0.89151383688E+00  0.88000000000E+00 0.  1.
        -11    1    4    4    0    0  0.19498166588E-01 -0.30266270473E-01 -0.97772980798E-02  0.37310619230E-01  0.51100000000E-03 0. -1.
         11    1    4    4    0    0  0.53263648898E-01 -0.54406494721E-01 -0.48179330502E-01  0.90103229523E-01  0.51100000000E-03 0.  1.
</event>
<event>
 8    1  0.1051655E+005  0.1043930E+01  0.7957747E-01            NaN
         13   -1    0    0    0    0  0.00000000000E+00  0.00000000000E+00  0.74505805969E-08  0.10566000000E+00  0.10566000000E+00 0. -1.
     999900   -1    0    0    0    0 -0.00000000000E+00 -0.00000000000E+00 -0.74505805969E-08  0.93827000000E+00  0.93827000000E+00 0.  1.
     999902    2    1    2    0    0  0.28741556698E-02  0.23367053270E-01  0.15195823473E-02  0.10203378598E+01  0.10200650759E+01 0.  0.
     999903    2    3    3    0    0 -0.44568095054E-01 -0.83298950871E-01  0.85078012740E-01  0.12870429442E+00  0.20037386009E-01 0.  0.
         14    1    1    2    0    0 -0.28741556698E-02 -0.23367053270E-01 -0.15195823473E-02  0.23592140213E-01  0.00000000000E+00 0.  1.
     999901    1    3    3    0    0  0.47442250724E-01  0.10666600414E+00 -0.83558430393E-01  0.89163356536E+00  0.88000000000E+00 0. -1.
        -11    1    4    4    0    0 -0.30519803761E-01 -0.67902398562E-01  0.57157605037E-01  0.93858654830E-01  0.51100000000E-03 0. -1.
         11    1    4    4    0    0 -0.14048291293E-01 -0.15396552310E-01  0.27920407704E-01  0.34845639593E-01  0.51100000000E-03 0.  1.
</event>
<event>
 8    1  0.1051655E+005  0.1043930E+01  0.7957747E-01            NaN
         13   -1    0    0    0    0  0.00000000000E+00  0.00000000000E+00  0.74505805969E-08  0.10566000000E+00  0.10566000000E+00 0.  1.
     999900   -1    0    0    0    0 -0.00000000000E+00 -0.00000000000E+00 -0.74505805969E-08  0.93827000000E+00  0.93827000000E+00 0.  1.
     999902    2    1    2    0    0 -0.28987243274E-02  0.15491024605E-01 -0.18085447696E-01  0.10199412972E+01  0.10196591547E+01 0.  0.
     999903    2    3    3    0    0  0.26923667863E-01  0.10310334502E+00  0.72500512631E-01  0.13046329856E+00  0.20227809918E-01 0.  0.
         14    1    1    2    0    0  0.28987243274E-02 -0.15491024605E-01  0.18085447696E-01  0.23988702849E-01  0.00000000000E+00 0.  1.
     999901    1    3    3    0    0 -0.29822392190E-01 -0.87612320417E-01 -0.90585960326E-01  0.88947799859E+00  0.88000000000E+00 0.  1.
        -11    1    4    4    0    0  0.84331313163E-02  0.18310084716E-01  0.57322680207E-02  0.20964181925E-01  0.51100000000E-03 0. -1.
         11    1    4    4    0    0  0.18490536546E-01  0.84793260306E-01  0.66768244610E-01  0.10949911664E+00  0.51100000000E-03 0.  1.
</event>
<event>
 8    1  0.1051655E+005  0.1043930E+01  0.7957747E-01            NaN
         13   -1    0    0    0    0  0.00000000000E+00  0.00000000000E+00  0.74505805969E-08  0.10566000000E+00  0.10566000000E+00 0.  1.
     999900   -1    0    0    0    0 -0.00000000000E+00 -0.00000000000E+00 -0.74505805969E-08  0.93827000000E+00  0.93827000000E+00 0.  1.
     999902    2    1    2    0    0  0.19977346309E-01 -0.40829447662E-02 -0.16795174789E-01  0.10175132875E+01  0.10171703139E+01 0.  0.
     999903    2    3    3    0    0 -0.12367353518E+00 -0.13245692338E-03  0.62021682100E-02  0.12556034036E+00  0.20779108100E-01 0.  0.
         14    1    1    2    0    0 -0.19977346309E-01  0.40829447662E-02  0.16795174789E-01  0.26416712508E-01  0.00000000000E+00 0.  1.
     999901    1    3    3    0    0  0.14365088149E+00 -0.39504878429E-02 -0.22997342999E-01  0.89195294713E+00  0.88000000000E+00 0.  1.
        -11    1    4    4    0    0 -0.69643261119E-01  0.16657357878E-02  0.13642079699E-01  0.70988209968E-01  0.51100000000E-03 0. -1.
         11    1    4    4    0    0 -0.54030274060E-01 -0.17981927112E-02 -0.74399114886E-02  0.54572130396E-01  0.51100000000E-03 0.  1.
</event>
<event>
 8    1  0.1051655E+005  0.1043930E+01  0.7957747E-01            NaN
         13   -1    0    0    0    0  0.00000000000E+00  0.00000000000E+00  0.74505805969E-08  0.10566000000E+00  0.10566000000E+00 0. -1.
     999900   -1    0    0    0    0 -0.00000000000E+00 -0.00000000000E+00 -0.74505805969E-08  0.93827000000E+00  0.93827000000E+00 0.  1.
     999902    2    1    2    0    0  0.20602252555E-01 -0.11340641999E-01  0.44989606272E-02  0.10199862405E+01  0.10197051668E+01 0.  0.
     999903    2    3    3    0    0  0.39159761481E-01 -0.12440392197E-01  0.12376203097E+00  0.13174681867E+00  0.18759894472E-01 0.  0.
         14    1    1    2    0    0 -0.20602252555E-01  0.11340641999E-01 -0.44989606272E-02  0.23943759480E-01  0.00000000000E+00 0.  1.
     999901    1    3    3    0    0 -0.18557508926E-01  0.10997501981E-02 -0.11926307035E+00  0.88823942185E+00  0.88000000000E+00 0.  1.
        -11    1    4    4    0    0  0.23325294772E-01 -0.16706392469E-01  0.82113107218E-01  0.86982736353E-01  0.51100000000E-03 0.  1.
         11    1    4    4    0    0  0.15834466709E-01  0.42660002719E-02  0.41648923756E-01  0.44764082313E-01  0.51100000000E-03 0. -1.
</event>
<event>
 8    1  0.1051655E+005  0.1043930E+01  0.7957747E-01            NaN
         13   -1    0    0    0    0  0.00000000000E+00  0.00000000000E+00  0.74505805969E-08  0.10566000000E+00  0.10566000000E+00 0.  1.
     999900   -1    0    0    0    0 -0.00000000000E+00 -0.00000000000E+00 -0.74505805969E-08  0.93827000000E+00  0.93827000000E+00 0. -1.
     999902    2    1    2    0    0 -0.12975861787E-01  0.18132293496E-01 -0.28843272707E-03  0.10216312052E+01  0.10213878221E+01 0.  0.
     999903    2    3    3    0    0  0.63886064950E-01  0.21455784888E-01 -0.11095332768E+00  0.13136971532E+00  0.20139046157E-01 0.  0.
         14    1    1    2    0    0  0.12975861787E-01 -0.18132293496E-01  0.28843272707E-03  0.22298794810E-01  0.00000000000E+00 0. -1.
     999901    1    3    3    0    0 -0.76861926737E-01 -0.33234913921E-02  0.11066489495E+00  0.89026148987E+00  0.88000000000E+00 0.  1.
        -11    1    4    4    0    0  0.49133900863E-01  0.86993403662E-02 -0.88718757182E-01  0.10178947752E+00  0.51100000000E-03 0. -1.
         11    1    4    4    0    0  0.14752164087E-01  0.12756444522E-01 -0.22234570494E-01  0.29580237797E-01  0.51100000000E-03 0.  1.
</event>
<event>
 8    1  0.1051655E+005  0.1043930E+01  0.7957747E-01            NaN
         13   -1    0    0    0    0  0.00000000000E+00  0.00000000000E+00  0.74505805969E-08  0.10566000000E+00  0.10566000000E+00 0.  1.
     999900   -1    0    0    0    0 -0.00000000000E+00 -0.00000000000E+00 -0.74505805969E-08  0.93827000000E+00  0.93827000000E+00 0. -1.
     999902    2    1    2    0    0  0.37081141782E-02  0.22387484894E-01  0.39864550321E-02  0.10208900040E+01  0.10206299814E+01 0.  0.
     999903    2    3    3    0    0  0.11681133648E-01  0.32967991427E-01  0.12588213385E+00  0.13238897833E+00  0.21382062963E-01 0.  0.
         14    1    1    2    0    0 -0.37081141782E-02 -0.22387484894E-01 -0.39864550321E-02  0.23039995972E-01  0.00000000000E+00 0. -1.
     999901    1    3    3    0    0 -0.79730194702E-02 -0.10580506533E-01 -0.12189567882E+00  0.88850102570E+00  0.88000000000E+00 0. -1.
        -11    1    4    4    0    0  0.14093409117E-01  0.27154831519E-01  0.73316712451E-01  0.79445644946E-01  0.51100000000E-03 0.  1.
         11    1    4    4    0    0 -0.24122754688E-02  0.58131599079E-02  0.52565421403E-01  0.52943333380E-01  0.51100000000E-03 0. -1.
</event>
<event>
 8    1  0.1051655E+005  0.1043930E+01  0.7957747E-01            NaN
         13   -1    0    0    0    0  0.00000000000E+00  0.00000000000E+00  0.74505805969E-08  0.10566000000E+00  0.10566000000E+00 0. -1.
     999900   -1    0    0    0    0 -0.00000000000E+00 -0.00000000000E+00 -0.74505805969E-08  0.93827000000E+00  0.93827000000E+00 0. -1.
     999902    2    1    2    0    0 -0.17083621004E-01 -0.14425231634E-01  0.79137197843E-02  0.10202115604E+01  0.10199358135E+01 0.  0.
     999903    2    3    3    0    0  0.52846156820E-01  0.10616397610E+00 -0.43133485670E-01  0.12777795057E+00  0.20079864335E-01 0.  0.
         14    1    1    2    0    0  0.17083621004E-01  0.14425231634E-01 -0.79137197843E-02  0.23718439559E-01  0.00000000000E+00 0.  1.
     999901    1    3    3    0    0 -0.69929777824E-01 -0.12058920774E+00  0.51047205454E-01  0.89243360987E+00  0.88000000000E+00 0.  1.
        -11    1    4    4    0    0  0.46001485465E-02  0.24139390182E-01 -0.40901280596E-02  0.24917098418E-01  0.51100000000E-03 0.  1.
         11    1    4    4    0    0  0.48246008274E-01  0.82024585923E-01 -0.39043357610E-01  0.10286085215E+00  0.51100000000E-03 0. -1.
</event>
<event>
 8    1  0.1051655E+005  0.1043930E+01  0.7957747E-01            NaN
         13   -1    0    0    0    0  0.00000000000E+00  0.00000000000E+00  0.74505805969E-08  0.10566000000E+00  0.10566000000E+00 0. -1.
     999900   -1    0    0    0    0 -0.00000000000E+00 -0.00000000000E+00 -0.74505805969E-08  0.93827000000E+00  0.93827000000E+00 0.  1.
     999902    2    1    2    0    0 -0.19944502460E-01 -0.25170470963E-02  0.84870929109E-05  0.10238272943E+01  0.10236299184E+01 0.  0.
     999903    2    3    3    0    0  0.96773023508E-02  0.10913802207E+00 -0.74689109530E-01  0.13313989867E+00  0.11958741298E-01 0.  0.
         14    1    1    2    0    0  0.19944502460E-01  0.25170470963E-02 -0.84870929109E-05  0.20102705701E-01  0.00000000000E+00 0. -1.
     999901    1    3    3    0    0 -0.29621804811E-01 -0.11165506917E+00  0.74697596623E-01  0.89068739563E+00  0.88000000000E+00 0. -1.
        -11    1    4    4    0    0  0.65032836235E-02  0.10169353507E+00 -0.66931918296E-01  0.12191804863E+00  0.51100000000E-03 0.  1.
         11    1    4    4    0    0  0.31740187273E-02  0.74444869975E-02 -0.77571912340E-02  0.11221850043E-01  0.51100000000E-03 0. -1.
</event>
<event>
 8    1  0.1051655E+005  0.1043930E+01  0.7957747E-01            NaN
         13   -1    0    0    0    0  0.00000000000E+00  0.00000000000E+00  0.74505805969E-08  0.10566000000E+00  0.10566000000E+00 0.  1.
     999900   -1    0    0    0    0 -0.00000000000E+00 -0.00000000000E+00 -0.74505805969E-08  0.93827000000E+00  0.93827000000E+00 0. -1.
     999902    2    1    2    0    0  0.21847042720E-01  0.10003543894E-01 -0.53113735608E-02  0.10193215694E+01  0.10190244781E+01 0.  0.
     999903    2    3    3    0    0  0.68975856360E-01 -0.10588984579E+00  0.24165673794E-01  0.12998400744E+00  0.18480643841E-01 0.  0.
         14    1    1    2    0    0 -0.21847042720E-01 -0.10003543894E-01  0.53113735608E-02  0.24608430571E-01  0.00000000000E+00 0.  1.
     999901    1    3    3    0    0 -0.47128813639E-01  0.11589338969E+00 -0.29477047354E-01  0.88933756199E+00  0.88000000000E+00 0. -1.
        -11    1    4    4    0    0  0.13509777121E-01 -0.30253689977E-01  0.45951620575E-04  0.33137034684E-01  0.51100000000E-03 0. -1.
         11    1    4    4    0    0  0.55466079238E-01 -0.75636155818E-01  0.24119722173E-01  0.96846972754E-01  0.51100000000E-03 0.  1.
</event>
<event>
 8    1  0.1051655E+005  0.1043930E+01  0.7957747E-01            NaN
         13   -1    0    0    0    0  0.00000000000E+00  0.00000000000E+00  0.74505805969E-08  0.10566000000E+00  0.10566000000E+00 0. -1.
     999900   -1    0    0    0    0 -0.00000000000E+00 -0.00000000000E+00 -0.74505805969E-08  0.93827000000E+00  0.93827000000E+00 0.  1.
     999902    2    1    2    0    0  0.14912193886E-01  0.18056813428E-01 -0.33288704839E-02  0.10202761754E+01  0.10200019464E+01 0.  0.
     999903    2    3    3    0    0  0.20162654441E-01 -0.86017536679E-01  0.91604856934E-01  0.12905709447E+00  0.21418089740E-01 0.  0.
         14    1    1    2    0    0 -0.14912193886E-01 -0.18056813428E-01  0.33288704839E-02  0.23653824561E-01  0.00000000000E+00 0.  1.
     999901    1    3    3    0    0 -0.52504605549E-02  0.10407435011E+00 -0.94933727418E-01  0.89121908097E+00  0.88000000000E+00 0.  1.
        -11    1    4    4    0    0  0.13883189511E-01 -0.29253416549E-01  0.44434052715E-01  0.54983192818E-01  0.51100000000E-03 0.  1.
         11    1    4    4    0    0  0.62794649297E-02 -0.56764120130E-01  0.47170804219E-01  0.74073901649E-01  0.51100000000E-03 0. -1.
</event>
<event>
 8    1  0.1051655E+005  0.1043930E+01  0.7957747E-01            NaN
         13   -1    0    0    0    0  0.00000000000E+00  0.00000000000E+00  0.74505805969E-08  0.10566000000E+00  0.10566000000E+00 0. -1.
     999900   -1    0    0    0    0 -0.00000000000E+00 -0.00000000000E+00 -0.74505805969E-08  0.93827000000E+00  0.93827000000E+00 0. -1.
     999902    2    1    2    0    0  0.10757699113E-01 -0.12929491931E-01  0.17009753046E-01  0.10200086382E+01  0.10197280963E+01 0.  0.
     999903    2    3    3    0    0 -0.11836609470E+00 -0.34315350564E-01 -0.32598277392E-01  0.12894676281E+00  0.19404749195E-01 0.  0.
         14    1    1    2    0    0 -0.10757699113E-01  0.12929491931E-01 -0.17009753046E-01  0.23921361803E-01  0.00000000000E+00 0.  1.
     999901    1    3    3    0    0  0.12912379382E+00  0.21385858633E-01  0.49608030439E-01  0.89106187538E+00  0.88000000000E+00 0.  1.
        -11    1    4    4    0    0 -0.72148015360E-01 -0.27286876209E-01 -0.27607499393E-01  0.81928901356E-01  0.51100000000E-03 0. -1.
         11    1    4    4    0    0 -0.46218079344E-01 -0.70284743543E-02 -0.49907779993E-02  0.47017861457E-01  0.51100000000E-03 0.  1.
</event>
<event>
 8    1  0.1051655E+005  0.1043930E+01  0.7957747E-01            NaN
         13   -1    0    0    0    0  0.00000000000E+00  0.00000000000E+00  0.74505805969E-08  0.10566000000E+00  0.10566000000E+00 0. -1.
     999900   -1    0    0    0    0 -0.00000000000E+00 -0.00000000000E+00 -0.74505805969E-08  0.93827000000E+00  0.93827000000E+00 0. -1.
     999902    2    1    2    0    0  0.24064321067E-01  0.31379626947E-03  0.10161052541E-02  0.10198421922E+01  0.10195576857E+01 0.  0.
     999903    2    3    3    0    0 -0.57352863107E-01  0.10522662005E+00  0.43037383978E-01  0.12888694843E+00  0.19940826978E-01 0.  0.
         14    1    1    2    0    0 -0.24064321067E-01 -0.31379626947E-03 -0.10161052541E-02  0.24087807837E-01  0.00000000000E+00 0. -1.
     999901    1    3    3    0    0  0.81417184174E-01 -0.10491282379E+00 -0.42021278724E-01  0.89095524374E+00  0.88000000000E+00 0. -1.
        -11    1    4    4    0    0 -0.11555021120E-01  0.40671736950E-01  0.13180565123E-01  0.44291050084E-01  0.51100000000E-03 0. -1.
         11    1    4    4    0    0 -0.45797841987E-01  0.64554883105E-01  0.29856818856E-01  0.84595898343E-01  0.51100000000E-03 0.  1.
</event>
<event>
 8    1  0.1051655E+005  0.1043930E+01  0.7957747E-01            NaN
         13   -1    0    0    0    0  0.00000000000E+00  0.00000000000E+00  0.74505805969E-08  0.10566000000E+00  0.10566000000E+00 0.  1.
     999900   -1    0    0    0    0 -0.00000000000E+00 -0.00000000000E+00 -0.74505805969E-08  0.93827000000E+00  0.93827000000E+00 0.  1.
     999902    2    1    2    0    0 -0.22548203124E-01  0.46450678687E-02 -0.48244854819E-02  0.10204082275E+01  0.10201370874E+01 0.  0.
     999903    2    3    3    0    0  0.89578581070E-01 -0.52438350456E-01  0.72293415971E-01  0.12812009969E+00  0.20354831501E-01 0.  0.
         14    1    1    2    0    0  0.22548203124E-01 -0.46450678687E-02  0.48244854819E-02  0.23521772463E-01  0.00000000000E+00 0. -1.
     999901    1    3    3    0    0 -0.11212678419E+00  0.57083418325E-01 -0.77117901453E-01  0.89228812785E+00  0.88000000000E+00 0.  1.
        -11    1    4    4    0    0  0.32593838996E-01 -0.22702012093E-01  0.39255103643E-01  0.55847685508E-01  0.51100000000E-03 0.  1.
         11    1    4    4    0    0  0.56984742074E-01 -0.29736338363E-01  0.33038312328E-01  0.72272414177E-01  0.51100000000E-03 0. -1.
</event>
<event>
 8    1  0.1051655E+005  0.1043930E+01  0.7957747E-01            NaN
         13   -1    0    0    0    0  0.00000000000E+00  0.00000000000E+00  0.74505805969E-08  0.10566000000E+00  0.10566000000E+00 0. -1.
     999900   -1    0    0    0    0 -0.00000000000E+00 -0.00000000000E+00 -0.74505805969E-08  0.93827000000E+00  0.93827000000E+00 0. -1.
     999902    2    1    2    0    0 -0.23160874016E-01  0.37687204585E-02  0.12545515821E-01  0.10173213678E+01  0.10169733262E+01 0.  0.
     999903    2    3    3    0    0 -0.48726931912E-01  0.79461579660E-01 -0.85802883359E-01  0.12824575806E+00  0.19909372990E-01 0.  0.
         14    1    1    2    0    0  0.23160874016E-01 -0.37687204585E-02 -0.12545515821E-01  0.26608632176E-01  0.00000000000E+00 0.  1.
     999901    1    3    3    0    0  0.25566057896E-01 -0.75692859201E-01  0.98348399179E-01  0.88907560976E+00  0.88000000000E+00 0.  1.
        -11    1    4    4    0    0 -0.16973236743E-01  0.46655549536E-01 -0.44028935796E-01  0.66359922968E-01  0.51100000000E-03 0. -1.
         11    1    4    4    0    0 -0.31753695169E-01  0.32806030124E-01 -0.41773947563E-01  0.61885835095E-01  0.51100000000E-03 0.  1.
</event>
<event>
 8    1  0.1051655E+005  0.1043930E+01  0.7957747E-01            NaN
         13   -1    0    0    0    0  0.00000000000E+00  0.00000000000E+00  0.74505805969E-08  0.10566000000E+00  0.10566000000E+00 0.  1.
     999900   -1    0    0    0    0 -0.00000000000E+00 -0.00000000000E+00 -0.74505805969E-08  0.93827000000E+00  0.93827000000E+00 0. -1.
     999902    2    1    2    0    0 -0.10978215148E-01  0.29314748645E-02 -0.21484478389E-01  0.10196257295E+01  0.10193360244E+01 0.  0.
     999903    2    3    3    0    0  0.10810961025E+00 -0.94172168606E-02  0.63846235126E-01  0.12742859265E+00  0.19629892577E-01 0.  0.
         14    1    1    2    0    0  0.10978215148E-01 -0.29314748645E-02  0.21484478389E-01  0.24304270496E-01  0.00000000000E+00 0.  1.
     999901    1    3    3    0    0 -0.11908782540E+00  0.12348691725E-01 -0.85330713515E-01  0.89219713686E+00  0.88000000000E+00 0. -1.
        -11    1    4    4    0    0  0.28423388606E-01 -0.11150452469E-01  0.19168269712E-01  0.36054199407E-01  0.51100000000E-03 0. -1.
         11    1    4    4    0    0  0.79686221643E-01  0.17332356088E-02  0.44677965415E-01  0.91374393240E-01  0.51100000000E-03 0.  1.
</event>
<event>
 8    1  0.1051655E+005  0.1043930E+01  0.7957747E-01            NaN
         13   -1    0    0    0    0  0.00000000000E+00  0.00000000000E+00  0.74505805969E-08  0.10566000000E+00  0.10566000000E+00 0.  1.
     999900   -1    0    0    0    0 -0.00000000000E+00 -0.00000000000E+00 -0.74505805969E-08  0.93827000000E+00  0.93827000000E+00 0. -1.
     999902    2    1    2    0    0 -0.13953191092E-01  0.74948093828E-02  0.20956655066E-02  0.10279532818E+01  0.10278291172E+01 0.  0.
     999903    2    3    3    0    0 -0.69426571460E-01 -0.98329729665E-01 -0.63770606285E-01  0.13743966894E+00  0.18280804470E-01 0.  0.
         14    1    1    2    0    0  0.13953191092E-01 -0.74948093828E-02 -0.20956655066E-02  0.15976718162E-01  0.00000000000E+00 0. -1.
     999901    1    3    3    0    0  0.55473380368E-01  0.10582453905E+00  0.65866271791E-01  0.89051361290E+00  0.88000000000E+00 0.  1.
        -11    1    4    4    0    0 -0.39381604000E-01 -0.61846619865E-01 -0.29391252205E-01  0.78993809565E-01  0.51100000000E-03 0. -1.
         11    1    4    4    0    0 -0.30044967459E-01 -0.36483109800E-01 -0.34379354079E-01  0.58445859376E-01  0.51100000000E-03 0.  1.
</event>
<event>
 8    1  0.1051655E+005  0.1043930E+01  0.7957747E-01            NaN
         13   -1    0    0    0    0  0.00000000000E+00  0.00000000000E+00  0.74505805969E-08  0.10566000000E+00  0.10566000000E+00 0. -1.
     999900   -1    0    0    0    0 -0.00000000000E+00 -0.00000000000E+00 -0.74505805969E-08  0.93827000000E+00  0.93827000000E+00 0. -1.
     999902    2    1    2    0    0 -0.96401238917E-02 -0.13438313655E-01 -0.17300097003E-01  0.10199964750E+01  0.10197156444E+01 0.  0.
     999903    2    3    3    0    0 -0.10229111564E+00  0.34634422439E-01  0.68996806707E-01  0.12963567745E+00  0.19540572540E-01 0.  0.
         14    1    1    2    0    0  0.96401238917E-02  0.13438313655E-01  0.17300097003E-01  0.23933524998E-01  0.00000000000E+00 0. -1.
     999901    1    3    3    0    0  0.92650991749E-01 -0.48072736094E-01 -0.86296903711E-01  0.89036079755E+00  0.88000000000E+00 0. -1.
        -11    1    4    4    0    0 -0.27415191887E-01  0.60096613293E-02  0.27798739302E-01  0.39506199555E-01  0.51100000000E-03 0.  1.
         11    1    4    4    0    0 -0.74875923754E-01  0.28624761110E-01  0.41198067406E-01  0.90129477895E-01  0.51100000000E-03 0. -1.
</event>
<event>
 8    1  0.1051655E+005  0.1043930E+01  0.7957747E-01            NaN
         13   -1    0    0    0    0  0.00000000000E+00  0.00000000000E+00  0.74505805969E-08  0.10566000000E+00  0.10566000000E+00 0.  1.
     999900   -1    0    0    0    0 -0.00000000000E+00 -0.00000000000E+00 -0.74505805969E-08  0.93827000000E+00  0.93827000000E+00 0.  1.
     999902    2    1    2    0    0  0.65181062269E-02 -0.13301920982E-01  0.18529589062E-01  0.10202071738E+01  0.10199313237E+01 0.  0.
     999903    2    3    3    0    0 -0.39637084931E-01 -0.87191925698E-01  0.90092964081E-01  0.13301421223E+00  0.20062603773E-01 0.  0.
         14    1    1    2    0    0 -0.65181062269E-02  0.13301920982E-01 -0.18529589062E-01  0.23722826168E-01  0.00000000000E+00 0. -1.
     999901    1    3    3    0    0  0.46155191158E-01  0.73890004716E-01 -0.71563375019E-01  0.88719296160E+00  0.88000000000E+00 0.  1.
        -11    1    4    4    0    0 -0.83299275328E-02 -0.80375004682E-02  0.18295235892E-01  0.21655620144E-01  0.51100000000E-03 0.  1.
         11    1    4    4    0    0 -0.31307157398E-01 -0.79154425230E-01  0.71797728189E-01  0.11135859209E+00  0.51100000000E-03 0. -1.
</event>
<event>
 8    1  0.1051655E+005  0.1043930E+01  0.7957747E-01            NaN
         13   -1    0    0    0    0  0.00000000000E+00  0.00000000000E+00  0.74505805969E-08  0.10566000000E+00  0.10566000000E+00 0.  1.
     999900   -1    0    0    0    0 -0.00000000000E+00 -0.00000000000E+00 -0.74505805969E-08  0.93827000000E+00  0.93827000000E+00 0. -1.
     999902    2    1    2    0    0 -0.20235813986E-01 -0.98797348674E-03  0.12047503478E-01  0.10203586912E+01  0.10200863944E+01 0.  0.
     999903    2    3    3    0    0 -0.39923952693E-01 -0.94204890411E-01  0.81678670569E-01  0.13248172007E+00  0.20285895351E-01 0.  0.
         14    1    1    2    0    0  0.20235813986E-01  0.98797348674E-03 -0.12047503478E-01  0.23571308817E-01  0.00000000000E+00 0. -1.
     999901    1    3    3    0    0  0.19688138707E-01  0.93216916925E-01 -0.69631167091E-01  0.88787697112E+00  0.88000000000E+00 0. -1.
        -11    1    4    4    0    0 -0.16250110143E-01 -0.18026540078E-01  0.23108632908E-01  0.33515552550E-01  0.51100000000E-03 0.  1.
         11    1    4    4    0    0 -0.23673842550E-01 -0.76178350333E-01  0.58570037661E-01  0.98966167518E-01  0.51100000000E-03 0. -1.
</event>
<event>
 8    1  0.1051655E+005  0.1043930E+01  0.7957747E-01            NaN
         13   -1    0    0    0    0  0.00000000000E+00  0.00000000000E+00  0.74505805969E-08  0.10566000000E+00  0.10566000000E+00 0. -1.
     999900   -1    0    0    0    0 -0.00000000000E+00 -0.00000000000E+00 -0.74505805969E-08  0.93827000000E+00  0.93827000000E+00 0.  1.
     999902    2    1    2    0    0  0.18355671464E-01 -0.58449912507E-02  0.13252704384E-01  0.10205477680E+01  0.10202798724E+01 0.  0.
     999903    2    3    3    0    0 -0.11656325208E+00 -0.45182876636E-01 -0.22987428885E-01  0.12865992060E+00  0.19911534502E-01 0.  0.
         14    1    1    2    0    0 -0.18355671464E-01  0.58449912507E-02 -0.13252704384E-01  0.23382231953E-01  0.00000000000E+00 0.  1.
     999901    1    3    3    0    0  0.13491892355E+00  0.39337885385E-01  0.36240133270E-01  0.89188784744E+00  0.88000000000E+00 0.  1.
        -11    1    4    4    0    0 -0.45935237824E-01 -0.82052990040E-02 -0.11991036959E-01  0.48181107232E-01  0.51100000000E-03 0.  1.
         11    1    4    4    0    0 -0.70628014257E-01 -0.36977577632E-01 -0.10996391926E-01  0.80478813372E-01  0.51100000000E-03 0. -1.
</event>
<event>
 8    1  0.1051655E+005  0.1043930E+01  0.7957747E-01            NaN
         13   -1    0    0    0    0  0.00000000000E+00  0.00000000000E+00  0.74505805969E-08  0.10566000000E+00  0.10566000000E+00 0. -1.
     999900   -1    0    0    0    0 -0.00000000000E+00 -0.00000000000E+00 -0.74505805969E-08  0.93827000000E+00  0.93827000000E+00 0. -1.
     999902    2    1    2    0    0  0.11949140530E-01  0.19954237651E-01 -0.31631720909E-02  0.10204574795E+01  0.10201874868E+01 0.  0.
     999903    2    3    3    0    0 -0.35030201864E-01  0.12566820029E+00  0.14266372272E-01  0.13271523680E+00  0.19753305914E-01 0.  0.
         14    1    1    2    0    0 -0.11949140530E-01 -0.19954237651E-01  0.31631720909E-02  0.23472520472E-01  0.00000000000E+00 0.  1.
     999901    1    3    3    0    0  0.46979342394E-01 -0.10571396264E+00 -0.17429544363E-01  0.88774224273E+00  0.88000000000E+00 0. -1.
        -11    1    4    4    0    0 -0.52708011005E-02  0.52708168316E-01  0.23867931616E-02  0.53027259538E-01  0.51100000000E-03 0. -1.
         11    1    4    4    0    0 -0.29759400763E-01  0.72960031972E-01  0.11879579110E-01  0.79687977261E-01  0.51100000000E-03 0.  1.
</event>
<event>
 8    1  0.1051655E+005  0.1043930E+01  0.7957747E-01            NaN
         13   -1    0    0    0    0  0.00000000000E+00  0.00000000000E+00  0.74505805969E-08  0.10566000000E+00  0.10566000000E+00 0. -1.
     999900   -1    0    0    0    0 -0.00000000000E+00 -0.00000000000E+00 -0.74505805969E-08  0.93827000000E+00  0.93827000000E+00 0. -1.
     999902    2    1    2    0    0 -0.15784494230E-01  0.21416775956E-01 -0.52470635380E-02  0.10168124738E+01  0.10164508088E+01 0.  0.
     999903    2    3    3    0    0 -0.42853614472E-02 -0.54446197936E-01 -0.11284594625E+00  0.12694453956E+00  0.19948828162E-01 0.  0.
         14    1    1    2    0    0  0.15784494230E-01 -0.21416775956E-01  0.52470635380E-02  0.27117526182E-01  0.00000000000E+00 0. -1.
     999901    1    3    3    0    0 -0.11499132783E-01  0.75862973892E-01  0.10759888272E+00  0.88986793426E+00  0.88000000000E+00 0.  1.
        -11    1    4    4    0    0 -0.76788350909E-02 -0.13742472719E-01 -0.19603940636E-01  0.25147478487E-01  0.51100000000E-03 0. -1.
         11    1    4    4    0    0  0.33934736437E-02 -0.40703725217E-01 -0.93242005619E-01  0.10179706107E+00  0.51100000000E-03 0.  1.
</event>
<event>
 8    1  0.1051655E+005  0.1043930E+01  0.7957747E-01            NaN
         13   -1    0    0    0    0  0.00000000000E+00  0.00000000000E+00  0.74505805969E-08  0.10566000000E+00  0.10566000000E+00 0.  1.
     999900   -1    0    0    0    0 -0.00000000000E+00 -0.00000000000E+00 -0.74505805969E-08  0.93827000000E+00  0.93827000000E+00 0.  1.
     999902    2    1    2    0    0 -0.15682968697E-01 -0.13940402509E-01  0.10502692727E-01  0.10204651990E+01  0.10201953860E+01 0.  0.
     999903    2    3    3    0    0  0.11521685402E+00 -0.55757936398E-01 -0.66669669230E-02  0.12963509912E+00  0.19414931174E-01 0.  0.
         14    1    1    2    0    0  0.15682968697E-01  0.13940402509E-01 -0.10502692727E-01  0.23464800953E-01  0.00000000000E+00 0.  1.
     999901    1    3    3    0    0 -0.13089982272E+00  0.41817533889E-01  0.17169659650E-01  0.89083009993E+00  0.88000000000E+00 0. -1.
        -11    1    4    4    0    0  0.46898073638E-01 -0.17561525743E-01 -0.10878317791E-01  0.51248760145E-01  0.51100000000E-03 0.  1.
         11    1    4    4    0    0  0.68318780386E-01 -0.38196410655E-01  0.42113508678E-02  0.78386338972E-01  0.51100000000E-03 0. -1.
</event>
<event>
 8    1  0.1051655E+005  0.1043930E+01  0.7957747E-01            NaN
         13   -1    0    0    0    0  0.00000000000E+00  0.00000000000E+00  0.74505805969E-08  0.10566000000E+00  0.10566000000E+00 0.  1.
     999900   -1    0    0    0    0 -0.00000000000E+00 -0.00000000000E+00 -0.74505805969E-08  0.93827000000E+00  0.93827000000E+00 0.  1.
     999902    2    1    2    0    0  0.87997207887E-02 -0.19378411117E-01 -0.94951979135E-02  0.10206251360E+01  0.10203590307E+01 0.  0.
     999903    2    3    3    0    0 -0.70969232248E-01  0.96186241572E-01  0.40870042083E-01  0.12806985354E+00  0.21049989362E-01 0.  0.
         14    1    1    2    0    0 -0.87997207887E-02  0.19378411117E-01  0.94951979135E-02  0.23304864016E-01  0.00000000000E+00 0.  1.
     999901    1    3    3    0    0  0.79768953037E-01 -0.11556465269E+00 -0.50365239997E-01  0.89255528244E+00  0.88000000000E+00 0.  1.
        -11    1    4    4    0    0 -0.49261386112E-01  0.49920076836E-01  0.26561328065E-01  0.74996423266E-01  0.51100000000E-03 0.  1.
         11    1    4    4    0    0 -0.21707846136E-01  0.46266164736E-01  0.14308714018E-01  0.53073430274E-01  0.51100000000E-03 0. -1.
</event>
<event>
 8    1  0.1051655E+005  0.1043930E+01  0.7957747E-01            NaN
         13   -1    0    0    0    0  0.00000000000E+00  0.00000000000E+00  0.74505805969E-08  0.10566000000E+00  0.10566000000E+00 0.  1.
     999900   -1    0    0    0    0 -0.00000000000E+00 -0.00000000000E+00 -0.74505805969E-08  0.93827000000E+00  0.93827000000E+00 0.  1.
     999902    2    1    2    0    0 -0.57566122476E-02 -0.19394540561E-01 -0.12614225680E-01  0.10200887442E+01  0.10198101003E+01 0.  0.
     999903    2    3    3    0    0  0.50164637233E-01 -0.89421348165E-01 -0.82153541738E-01  0.13280826071E+00  0.19394879625E-01 0.  0.
         14    1    1    2    0    0  0.57566122476E-02  0.19394540561E-01  0.12614225680E-01  0.23841255790E-01  0.00000000000E+00 0.  1.
     999901    1    3    3    0    0 -0.55921249481E-01  0.70026807604E-01  0.69539316058E-01  0.88728048350E+00  0.88000000000E+00 0. -1.
        -11    1    4    4    0    0  0.38181367693E-01 -0.66750850625E-01 -0.71603698114E-01  0.10507541864E+00  0.51100000000E-03 0. -1.
         11    1    4    4    0    0  0.11983269540E-01 -0.22670497539E-01 -0.10549843625E-01  0.27732842066E-01  0.51100000000E-03 0.  1.
</event>
<event>
 8    1  0.1051655E+005  0.1043930E+01  0.7957747E-01            NaN
         13   -1    0    0    0    0  0.00000000000E+00  0.00000000000E+00  0.74505805969E-08  0.10566000000E+00  0.10566000000E+00 0.  1.
     999900   -1    0    0    0    0 -0.00000000000E+00 -0.00000000000E+00 -0.74505805969E-08  0.93827000000E+00  0.93827000000E+00 0. -1.
     999902    2    1    2    0    0 -0.21822107239E-01 -0.61921689114E-02 -0.72653020485E-02  0.10201112693E+01  0.10198331578E+01 0.  0.
     999903    2    3    3    0    0  0.10321919313E+00  0.44761617394E-01 -0.57636364766E-01  0.12838885780E+00  0.22448698022E-01 0.  0.
         14    1    1    2    0    0  0.21822107239E-01  0.61921689114E-02  0.72653020485E-02  0.23818730740E-01  0.00000000000E+00 0.  1.
     999901    1    3    3    0    0 -0.12504130037E+00 -0.50953786306E-01  0.50371062717E-01  0.89172241146E+00  0.88000000000E+00 0.  1.
        -11    1    4    4    0    0  0.44473777768E-01  0.20007219896E-01 -0.12709027083E-01  0.50398276233E-01  0.51100000000E-03 0. -1.
         11    1    4    4    0    0  0.58745415360E-01  0.24754397498E-01 -0.44927337683E-01  0.77990581570E-01  0.51100000000E-03 0.  1.
</event>
<event>
 8    1  0.1051655E+005  0.1043930E+01  0.7957747E-01            NaN
         13   -1    0    0    0    0  0.00000000000E+00  0.00000000000E+00  0.74505805969E-08  0.10566000000E+00  0.10566000000E+00 0.  1.
     999900   -1    0    0    0    0 -0.00000000000E+00 -0.00000000000E+00 -0.74505805969E-08  0.93827000000E+00  0.93827000000E+00 0. -1.
     999902    2    1    2    0    0 -0.16150084430E-02  0.14635565705E-01 -0.25884401055E-01  0.10141506405E+01  0.10137133280E+01 0.  0.
     999903    2    3    3    0    0  0.31703496969E-01 -0.11154686447E+00 -0.39719171855E-01  0.12441836087E+00  0.21319034134E-01 0.  0.
         14    1    1    2    0    0  0.16150084430E-02 -0.14635565705E-01  0.25884401055E-01  0.29779359525E-01  0.00000000000E+00 0.  1.
     999901    1    3    3    0    0 -0.33318505412E-01  0.12618243017E+00  0.13834770800E-01  0.88973227960E+00  0.88000000000E+00 0.  1.
        -11    1    4    4    0    0  0.12695337519E-01 -0.29208519469E-01 -0.20104216509E-01  0.37666295899E-01  0.51100000000E-03 0. -1.
         11    1    4    4    0    0  0.19008159450E-01 -0.82338344998E-01 -0.19614955347E-01  0.86752064972E-01  0.51100000000E-03 0.  1.
</event>
<event>
 8    1  0.1051655E+005  0.1043930E+01  0.7957747E-01            NaN
         13   -1    0    0    0    0  0.00000000000E+00  0.00000000000E+00  0.74505805969E-08  0.10566000000E+00  0.10566000000E+00 0. -1.
     999900   -1    0    0    0    0 -0.00000000000E+00 -0.00000000000E+00 -0.74505805969E-08  0.93827000000E+00  0.93827000000E+00 0. -1.
     999902    2    1    2    0    0 -0.12784175824E-01  0.75171955160E-02 -0.18920045497E-01  0.10198902100E+01  0.10196068502E+01 0.  0.
     999903    2    3    3    0    0 -0.35911521535E-01  0.12500407862E+00 -0.40953043534E-02  0.13165723678E+00  0.20029963296E-01 0.  0.
         14    1    1    2    0    0  0.12784175824E-01 -0.75171955160E-02  0.18920045497E-01  0.24039789965E-01  0.00000000000E+00 0.  1.
     999901    1    3    3    0    0  0.23127345711E-01 -0.11748688310E+00 -0.14824741144E-01  0.88823297325E+00  0.88000000000E+00 0. -1.
        -11    1    4    4    0    0 -0.67318623495E-02  0.34895496652E-01  0.72151680302E-02  0.36267525804E-01  0.51100000000E-03 0.  1.
         11    1    4    4    0    0 -0.29179659185E-01  0.90108581967E-01 -0.11310472384E-01  0.95389710980E-01  0.51100000000E-03 0. -1.
</event>
<event>
 8    1  0.1051655E+005  0.1043930E+01  0.7957747E-01            NaN
         13   -1    0    0    0    0  0.00000000000E+00  0.00000000000E+00  0.74505805969E-08  0.10566000000E+00  0.10566000000E+00 0.  1.
     999900   -1    0    0    0    0 -0.00000000000E+00 -0.00000000000E+00 -0.74505805969E-08  0.93827000000E+00  0.93827000000E+00 0.  1.
     999902    2    1    2    0    0  0.79235731453E-02  0.24400072727E-01 -0.26218888855E-01  0.10072478968E+01  0.10065797281E+01 0.  0.
     999903    2    3    3    0    0 -0.26177281262E-01  0.10884753909E+00  0.38693050334E-01  0.12016965749E+00  0.20262221424E-01 0.  0.
         14    1    1    2    0    0 -0.79235731453E-02 -0.24400072727E-01  0.26218888855E-01  0.36682103174E-01  0.00000000000E+00 0.  1.
     999901    1    3    3    0    0  0.34100854407E-01 -0.84447466366E-01 -0.64911939190E-01  0.88707823933E+00  0.88000000000E+00 0.  1.
        -11    1    4    4    0    0 -0.21503912531E-01  0.49913591145E-01  0.22876931458E-01  0.58969483201E-01  0.51100000000E-03 0.  1.
         11    1    4    4    0    0 -0.46733687310E-02  0.58933947949E-01  0.15816118876E-01  0.61200174292E-01  0.51100000000E-03 0. -1.
</event>
<event>
 8    1  0.1051655E+005  0.1043930E+01  0.7957747E-01            NaN
         13   -1    0    0    0    0  0.00000000000E+00  0.00000000000E+00  0.74505805969E-08  0.10566000000E+00  0.10566000000E+00 0.  1.
     999900   -1    0    0    0    0 -0.00000000000E+00 -0.00000000000E+00 -0.74505805969E-08  0.93827000000E+00  0.93827000000E+00 0.  1.
     999902    2    1    2    0    0  0.76885397017E-02 -0.17126813722E-03  0.21875492225E-01  0.10207420692E+01  0.10204786581E+01 0.  0.
     999903    2    3    3    0    0 -0.30271115818E-01  0.11929893759E+00 -0.36718179131E-01  0.12992935945E+00  0.19617257826E-01 0.  0.
         14    1    1    2    0    0 -0.76885397017E-02  0.17126813722E-03 -0.21875492225E-01  0.23187930818E-01  0.00000000000E+00 0. -1.
     999901    1    3    3    0    0  0.37959655519E-01 -0.11947020573E+00  0.58593671356E-01  0.89081270974E+00  0.88000000000E+00 0.  1.
        -11    1    4    4    0    0 -0.51723556712E-02  0.59243983258E-01 -0.19719369241E-01  0.62655546121E-01  0.51100000000E-03 0.  1.
         11    1    4    4    0    0 -0.25098760147E-01  0.60054954332E-01 -0.16998809890E-01  0.67273813326E-01  0.51100000000E-03 0. -1.
</event>
<event>
 8    1  0.1051655E+005  0.1043930E+01  0.7957747E-01            NaN
         13   -1    0    0    0    0  0.00000000000E+00  0.00000000000E+00  0.74505805969E-08  0.10566000000E+00  0.10566000000E+00 0.  1.
     999900   -1    0    0    0    0 -0.00000000000E+00 -0.00000000000E+00 -0.74505805969E-08  0.93827000000E+00  0.93827000000E+00 0. -1.
     999902    2    1    2    0    0  0.90306804364E-02 -0.47464003103E-04 -0.21547146415E-01  0.10205668889E+01  0.10202994363E+01 0.  0.
     999903    2    3    3    0    0 -0.80463557338E-01  0.28980338781E-01  0.93362725898E-01  0.12812299111E+00  0.19612704289E-01 0.  0.
         14    1    1    2    0    0 -0.90306804364E-02  0.47464003103E-04  0.21547146415E-01  0.23363111107E-01  0.00000000000E+00 0.  1.
     999901    1    3    3    0    0  0.89494237774E-01 -0.29027802784E-01 -0.11490987231E+00  0.89244389778E+00  0.88000000000E+00 0.  1.
        -11    1    4    4    0    0 -0.37240351718E-01  0.17704712700E-01  0.57907534778E-01  0.71090395644E-01  0.51100000000E-03 0. -1.
         11    1    4    4    0    0 -0.43223205620E-01  0.11275626081E-01  0.35455191120E-01  0.57032595469E-01  0.51100000000E-03 0.  1.
</event>
<event>
 8    1  0.1051655E+005  0.1043930E+01  0.7957747E-01            NaN
         13   -1    0    0    0    0  0.00000000000E+00  0.00000000000E+00  0.74505805969E-08  0.10566000000E+00  0.10566000000E+00 0.  1.
     999900   -1    0    0    0    0 -0.00000000000E+00 -0.00000000000E+00 -0.74505805969E-08  0.93827000000E+00  0.93827000000E+00 0.  1.
     999902    2    1    2    0    0  0.82530440183E-02  0.22290766492E-01  0.99788209942E-03  0.10201395234E+01  0.10198620792E+01 0.  0.
     999903    2    3    3    0    0  0.12445713504E+00  0.12764825642E-01  0.35938905549E-01  0.13176178315E+00  0.20421638802E-01 0.  0.
         14    1    1    2    0    0 -0.82530440183E-02 -0.22290766492E-01 -0.99788209942E-03  0.23790476563E-01  0.00000000000E+00 0. -1.
     999901    1    3    3    0    0 -0.11620409102E+00  0.95259408500E-02 -0.34941023450E-01  0.88837774029E+00  0.88000000000E+00 0. -1.
        -11    1    4    4    0    0  0.12122070785E+00  0.88716175617E-02  0.33276433431E-01  0.12601883888E+00  0.51100000000E-03 0. -1.
         11    1    4    4    0    0  0.32364271861E-02  0.38932080806E-02  0.26624721184E-02  0.57429442685E-02  0.51100000000E-03 0.  1.
</event>
<event>
 8    1  0.1051655E+005  0.1043930E+01  0.7957747E-01            NaN
         13   -1    0    0    0    0  0.00000000000E+00  0.00000000000E+00  0.74505805969E-08  0.10566000000E+00  0.10566000000E+00 0. -1.
     999900   -1    0    0    0    0 -0.00000000000E+00 -0.00000000000E+00 -0.74505805969E-08  0.93827000000E+00  0.93827000000E+00 0. -1.
     999902    2    1    2    0    0  0.18813080404E-01 -0.39428050793E-02 -0.13973333615E-01  0.10201659145E+01  0.10198890927E+01 0.  0.
     999903    2    3    3    0    0  0.42625682425E-01 -0.40200723722E-01 -0.11785117238E+00  0.13299497155E+00  0.19123719195E-01 0.  0.
         14    1    1    2    0    0 -0.18813080404E-01  0.39428050793E-02  0.13973333615E-01  0.23764085476E-01  0.00000000000E+00 0.  1.
     999901    1    3    3    0    0 -0.23812602021E-01  0.36257918643E-01  0.10387783876E+00  0.88717094298E+00  0.88000000000E+00 0.  1.
        -11    1    4    4    0    0  0.96959202043E-02 -0.65563281255E-02 -0.43007317443E-01  0.44574508205E-01  0.51100000000E-03 0.  1.
         11    1    4    4    0    0  0.32929762221E-01 -0.33644395596E-01 -0.74843854934E-01  0.88420463341E-01  0.51100000000E-03 0. -1.
</event>
<event>
 8    1  0.1051655E+005  0.1043930E+01  0.7957747E-01            NaN
         13   -1    0    0    0    0  0.00000000000E+00  0.00000000000E+00  0.74505805969E-08  0.10566000000E+00  0.10566000000E+00 0. -1.
     999900   -1    0    0    0    0 -0.00000000000E+00 -0.00000000000E+00 -0.74505805969E-08  0.93827000000E+00  0.93827000000E+00 0.  1.
     999902    2    1    2    0    0  0.12553431982E-01 -0.20136008980E-01 -0.14507148744E-02  0.10201570724E+01  0.10198800421E+01 0.  0.
     999903    2    3    3    0    0  0.32574344649E-01  0.49083581968E-01  0.11377448391E+00  0.12972513501E+00  0.20339407980E-01 0.  0.
         14    1    1    2    0    0 -0.12553431982E-01  0.20136008980E-01  0.14507148744E-02  0.23772927582E-01  0.00000000000E+00 0.  1.
     999901    1    3    3    0    0 -0.20020912667E-01 -0.69219590948E-01 -0.11522519878E+00  0.89043193740E+00  0.88000000000E+00 0.  1.
        -11    1    4    4    0    0 -0.22434536544E-02  0.53983671487E-02  0.16986760969E-01  0.17971828549E-01  0.51100000000E-03 0. -1.
         11    1    4    4    0    0  0.34817798304E-01  0.43685214819E-01  0.96787722942E-01  0.11175330646E+00  0.51100000000E-03 0.  1.
</event>
<event>
 8    1  0.1051655E+005  0.1043930E+01  0.7957747E-01            NaN
         13   -1    0    0    0    0  0.00000000000E+00  0.00000000000E+00  0.74505805969E-08  0.10566000000E+00  0.10566000000E+00 0. -1.
     999900   -1    0    0    0    0 -0.00000000000E+00 -0.00000000000E+00 -0.74505805969E-08  0.93827000000E+00  0.93827000000E+00 0.  1.
     999902    2    1    2    0    0 -0.22257295361E-01  0.10136283010E-01  0.42726909860E-02  0.10191028512E+01  0.10188003897E+01 0.  0.
     999903    2    3    3    0    0  0.53725273963E-01  0.89385605432E-01 -0.73696744434E-01  0.12885960420E+00  0.17245171301E-01 0.  0.
         14    1    1    2    0    0  0.22257295361E-01 -0.10136283010E-01 -0.42726909860E-02  0.24827148816E-01  0.00000000000E+00 0.  1.
     999901    1    3    3    0    0 -0.75982569324E-01 -0.79249322421E-01  0.77969435420E-01  0.89024324699E+00  0.88000000000E+00 0. -1.
        -11    1    4    4    0    0  0.50689837662E-01  0.80744330351E-01 -0.72139256035E-01  0.11955517516E+00  0.51100000000E-03 0. -1.
         11    1    4    4    0    0  0.30354363009E-02  0.86412750803E-02 -0.15574883988E-02  0.93044290347E-02  0.51100000000E-03 0.  1.
</event>
<event>
 8    1  0.1051655E+005  0.1043930E+01  0.7957747E-01            NaN
         13   -1    0    0    0    0  0.00000000000E+00  0.00000000000E+00  0.74505805969E-08  0.10566000000E+00  0.10566000000E+00 0. -1.
     999900   -1    0    0    0    0 -0.00000000000E+00 -0.00000000000E+00 -0.74505805969E-08  0.93827000000E+00  0.93827000000E+00 0. -1.
     999902    2    1    2    0    0  0.19814359003E-01 -0.68808703162E-02  0.12097471559E-01  0.10197162845E+01  0.10194287601E+01 0.  0.
     999903    2    3    3    0    0  0.34387424564E-01  0.11860468118E+00  0.36357923725E-01  0.13036395422E+00  0.20574172563E-01 0.  0.
         14    1    1    2    0    0 -0.19814359003E-01  0.68808703162E-02 -0.12097471559E-01  0.24213715475E-01  0.00000000000E+00 0.  1.
     999901    1    3    3    0    0 -0.14573065561E-01 -0.12548555150E+00 -0.24260452166E-01  0.88935233030E+00  0.88000000000E+00 0. -1.
        -11    1    4    4    0    0  0.12987590459E-02  0.23222758686E-01  0.64348745562E-03  0.23273557810E-01  0.51100000000E-03 0. -1.
         11    1    4    4    0    0  0.33088665518E-01  0.95381922496E-01  0.35714436269E-01  0.10709039641E+00  0.51100000000E-03 0.  1.
</event>
<event>
 8    1  0.1051655E+005  0.1043930E+01  0.7957747E-01            NaN
         13   -1    0    0    0    0  0.00000000000E+00  0.00000000000E+00  0.74505805969E-08  0.10566000000E+00  0.10566000000E+00 0. -1.
     999900   -1    0    0    0    0 -0.00000000000E+00 -0.00000000000E+00 -0.74505805969E-08  0.93827000000E+00  0.93827000000E+00 0. -1.
     999902    2    1    2    0    0  0.21997857534E-01 -0.23462401926E-03  0.67775844803E-02  0.10209105205E+01  0.10206509660E+01 0.  0.
     999903    2    3    3    0    0  0.75725280110E-01 -0.75732236986E-01 -0.75023129714E-01  0.13227230259E+00  0.19944981197E-01 0.  0.
         14    1    1    2    0    0 -0.21997857534E-01  0.23462401926E-03 -0.67775844803E-02  0.23019479488E-01  0.00000000000E+00 0.  1.
     999901    1    3    3    0    0 -0.53727422576E-01  0.75497612967E-01  0.81800714194E-01  0.88863821792E+00  0.88000000000E+00 0.  1.
        -11    1    4    4    0    0  0.28174866960E-01 -0.20461279712E-01 -0.15364516241E-01  0.38063323239E-01  0.51100000000E-03 0.  1.
         11    1    4    4    0    0  0.47550413150E-01 -0.55270957274E-01 -0.59658613473E-01  0.94208979355E-01  0.51100000000E-03 0. -1.
</event>
<event>
 8    1  0.1051655E+005  0.1043930E+01  0.7957747E-01            NaN
         13   -1    0    0    0    0  0.00000000000E+00  0.00000000000E+00  0.74505805969E-08  0.10566000000E+00  0.10566000000E+00 0.  1.
     999900   -1    0    0    0    0 -0.00000000000E+00 -0.00000000000E+00 -0.74505805969E-08  0.93827000000E+00  0.93827000000E+00 0.  1.
     999902    2    1    2    0    0  0.20948152628E-01  0.10654695118E-01 -0.19516380654E-02  0.10203470291E+01  0.10200744596E+01 0.  0.
     999903    2    3    3    0    0  0.45351819555E-01 -0.11994281792E+00 -0.10117357779E-01  0.13033695702E+00  0.21030794774E-01 0.  0.
         14    1    1    2    0    0 -0.20948152628E-01 -0.10654695118E-01  0.19516380654E-02  0.23582970927E-01  0.00000000000E+00 0. -1.
     999901    1    3    3    0    0 -0.24403666927E-01  0.13059751304E+00  0.81657197139E-02  0.89001007205E+00  0.88000000000E+00 0.  1.
        -11    1    4    4    0    0  0.15373161208E-01 -0.25235071522E-01  0.46096527271E-02  0.29910749565E-01  0.51100000000E-03 0. -1.
         11    1    4    4    0    0  0.29978658348E-01 -0.94707746403E-01 -0.14727010506E-01  0.10042620746E+00  0.51100000000E-03 0.  1.
</event>
<event>
 8    1  0.1051655E+005  0.1043930E+01  0.7957747E-01            NaN
         13   -1    0    0    0    0  0.00000000000E+00  0.00000000000E+00  0.74505805969E-08  0.10566000000E+00  0.10566000000E+00 0.  1.
     999900   -1    0    0    0    0 -0.00000000000E+00 -0.00000000000E+00 -0.74505805969E-08  0.93827000000E+00  0.93827000000E+00 0. -1.
     999902    2    1    2    0    0  0.40848912350E-03 -0.95221026128E-03 -0.21654383529E-01  0.10222508419E+01  0.10220209381E+01 0.  0.
     999903    2    3    3    0    0  0.29604343885E-01 -0.75227863734E-01 -0.10627319599E+00  0.13459684739E+00  0.16931346150E-01 0.  0.
         14    1    1    2    0    0 -0.40848912350E-03  0.95221026128E-03  0.21654383529E-01  0.21679158050E-01  0.00000000000E+00 0.  1.
     999901    1    3    3    0    0 -0.29195854761E-01  0.74275653472E-01  0.84618812463E-01  0.88765399456E+00  0.88000000000E+00 0.  1.
        -11    1    4    4    0    0  0.16963259119E-01 -0.57408140813E-01 -0.68634494190E-01  0.91073605975E-01  0.51100000000E-03 0. -1.
         11    1    4    4    0    0  0.12641084765E-01 -0.17819722921E-01 -0.37638701802E-01  0.43523241416E-01  0.51100000000E-03 0.  1.
</event>
<event>
 8    1  0.1051655E+005  0.1043930E+01  0.7957747E-01            NaN
         13   -1    0    0    0    0  0.00000000000E+00  0.00000000000E+00  0.74505805969E-08  0.10566000000E+00  0.10566000000E+00 0. -1.
     999900   -1    0    0    0    0 -0.00000000000E+00 -0.00000000000E+00 -0.74505805969E-08  0.93827000000E+00  0.93827000000E+00 0.  1.
     999902    2    1    2    0    0  0.12238839996E-01  0.24029465459E-02 -0.19908104721E-01  0.10204375333E+01  0.10201670762E+01 0.  0.
     999903    2    3    3    0    0 -0.70255498750E-01 -0.84691273555E-01 -0.68082512577E-01  0.13099304790E+00  0.20383894557E-01 0.  0.
         14    1    1    2    0    0 -0.12238839996E-01 -0.24029465459E-02  0.19908104721E-01  0.23492466668E-01  0.00000000000E+00 0. -1.
     999901    1    3    3    0    0  0.82494338746E-01  0.87094220101E-01  0.48174407856E-01  0.88944448544E+00  0.88000000000E+00 0. -1.
        -11    1    4    4    0    0 -0.12805365212E-01 -0.29736667751E-01 -0.21001078136E-01  0.38594730094E-01  0.51100000000E-03 0.  1.
         11    1    4    4    0    0 -0.57450133538E-01 -0.54954605804E-01 -0.47081434441E-01  0.92398317802E-01  0.51100000000E-03 0. -1.
</event>
<event>
 8    1  0.1051655E+005  0.1043930E+01  0.7957747E-01            NaN
         13   -1    0    0    0    0  0.00000000000E+00  0.00000000000E+00  0.74505805969E-08  0.10566000000E+00  0.10566000000E+00 0.  1.
     999900   -1    0    0    0    0 -0.00000000000E+00 -0.00000000000E+00 -0.74505805969E-08  0.93827000000E+00  0.93827000000E+00 0. -1.
     999902    2    1    2    0    0  0.22765916228E-01 -0.14748442355E-01  0.12987367906E-02  0.10167732290E+01  0.10164105022E+01 0.  0.
     999903    2    3    3    0    0  0.11209828155E-02 -0.12769917331E+00  0.54472870315E-03  0.12928974223E+00  0.20179327313E-01 0.  0.
         14    1    1    2    0    0 -0.22765916228E-01  0.14748442355E-01 -0.12987367906E-02  0.27156770995E-01  0.00000000000E+00 0.  1.
     999901    1    3    3    0    0  0.21644933413E-01  0.11295073095E+00  0.75400808749E-03  0.88748348677E+00  0.88000000000E+00 0.  1.
        -11    1    4    4    0    0 -0.87317615908E-02 -0.82341583830E-01  0.23242524159E-02  0.82837451423E-01  0.51100000000E-03 0. -1.
         11    1    4    4    0    0  0.98527444063E-02 -0.45357589480E-01 -0.17795237127E-02  0.46452290809E-01  0.51100000000E-03 0.  1.
</event>
<event>
 8    1  0.1051655E+005  0.1043930E+01  0.7957747E-01            NaN
         13   -1    0    0    0    0  0.00000000000E+00  0.00000000000E+00  0.74505805969E-08  0.10566000000E+00  0.10566000000E+00 0.  1.
     999900   -1    0    0    0    0 -0.00000000000E+00 -0.00000000000E+00 -0.74505805969E-08  0.93827000000E+00  0.93827000000E+00 0. -1.
     999902    2    1    2    0    0  0.75534752108E-02 -0.20140973651E-01 -0.94620005044E-02  0.10204301434E+01  0.10201595141E+01 0.  0.
     999903    2    3    3    0    0 -0.10421730300E+00 -0.19289605269E-01 -0.74352129126E-01  0.13098977974E+00  0.19918538446E-01 0.  0.
         14    1    1    2    0    0 -0.75534752108E-02  0.20140973651E-01  0.94620005044E-02  0.23499856614E-01  0.00000000000E+00 0.  1.
     999901    1    3    3    0    0  0.11177077821E+00 -0.85136838177E-03  0.64890128622E-01  0.88944036365E+00  0.88000000000E+00 0.  1.
        -11    1    4    4    0    0 -0.61883502926E-01 -0.16802428739E-01 -0.34614062845E-01  0.72871695558E-01  0.51100000000E-03 0. -1.
         11    1    4    4    0    0 -0.42333800078E-01 -0.24871765302E-02 -0.39738066282E-01  0.58118084181E-01  0.51100000000E-03 0.  1.
</event>
<event>
 8    1  0.1051655E+005  0.1043930E+01  0.7957747E-01            NaN
         13   -1    0    0    0    0  0.00000000000E+00  0.00000000000E+00  0.74505805969E-08  0.10566000000E+00  0.10566000000E+00 0. -1.
     999900   -1    0    0    0    0 -0.00000000000E+00 -0.00000000000E+00 -0.74505805969E-08  0.93827000000E+00  0.93827000000E+00 0. -1.
     999902    2    1    2    0    0 -0.45555927141E-02  0.11742447239E-01 -0.20103871846E-01  0.10202065063E+01  0.10199306404E+01 0.  0.
     999903    2    3    3    0    0 -0.26163363938E-01  0.12425898157E+00 -0.33079365785E-01  0.13268454612E+00  0.19650145718E-01 0.  0.
         14    1    1    2    0    0  0.45555927141E-02 -0.11742447239E-01  0.20103871846E-01  0.23723493742E-01  0.00000000000E+00 0. -1.
     999901    1    3    3    0    0  0.21607771224E-01 -0.11251653433E+00  0.12975493939E-01  0.88752196013E+00  0.88000000000E+00 0. -1.
        -11    1    4    4    0    0 -0.21283806551E-02  0.32352495179E-01 -0.10908875323E-02  0.32444800895E-01  0.51100000000E-03 0. -1.
         11    1    4    4    0    0 -0.24034983283E-01  0.91906486389E-01 -0.31988478253E-01  0.10023974523E+00  0.51100000000E-03 0.  1.
</event>
<event>
 8    1  0.1051655E+005  0.1043930E+01  0.7957747E-01            NaN
         13   -1    0    0    0    0  0.00000000000E+00  0.00000000000E+00  0.74505805969E-08  0.10566000000E+00  0.10566000000E+00 0.  1.
     999900   -1    0    0    0    0 -0.00000000000E+00 -0.00000000000E+00 -0.74505805969E-08  0.93827000000E+00  0.93827000000E+00 0.  1.
     999902    2    1    2    0    0 -0.10676565492E-01 -0.18126396019E-01  0.97424569737E-02  0.10207465846E+01  0.10204832773E+01 0.  0.
     999903    2    3    3    0    0  0.95748339545E-01 -0.75662999694E-01  0.45550945131E-01  0.13174772686E+00  0.19746920837E-01 0.  0.
         14    1    1    2    0    0  0.10676565492E-01  0.18126396019E-01 -0.97424569737E-02  0.23183415435E-01  0.00000000000E+00 0. -1.
     999901    1    3    3    0    0 -0.10642490504E+00  0.57536603675E-01 -0.35808488157E-01  0.88899885770E+00  0.88000000000E+00 0.  1.
        -11    1    4    4    0    0  0.75480549717E-01 -0.48630753500E-01  0.31580429432E-01  0.95183234951E-01  0.51100000000E-03 0. -1.
         11    1    4    4    0    0  0.20267789827E-01 -0.27032246194E-01  0.13970515699E-01  0.36564491910E-01  0.51100000000E-03 0.  1.
</event>
<event>
 8    1  0.1051655E+005  0.1043930E+01  0.7957747E-01            NaN
         13   -1    0    0    0    0  0.00000000000E+00  0.00000000000E+00  0.74505805969E-08  0.10566000000E+00  0.10566000000E+00 0. -1.
     999900   -1    0    0    0    0 -0.00000000000E+00 -0.00000000000E+00 -0.74505805969E-08  0.93827000000E+00  0.93827000000E+00 0. -1.
     999902    2    1    2    0    0 -0.23923240545E-01  0.83054960690E-03 -0.14992244044E-02  0.10199454440E+01  0.10196634003E+01 0.  0.
     999903    2    3    3    0    0 -0.24283220002E-01 -0.11912656774E+00 -0.44398268451E-01  0.13077157602E+00  0.18686490771E-01 0.  0.
         14    1    1    2    0    0  0.23923240545E-01 -0.83054960690E-03  0.14992244044E-02  0.23984555961E-01  0.00000000000E+00 0. -1.
     999901    1    3    3    0    0  0.35997945640E-03  0.11995711735E+00  0.42899044047E-01  0.88917386802E+00  0.88000000000E+00 0. -1.
        -11    1    4    4    0    0 -0.86304403978E-02 -0.44741181459E-01 -0.71723658483E-02  0.46129836035E-01  0.51100000000E-03 0.  1.
         11    1    4    4    0    0 -0.15652779604E-01 -0.74385386284E-01 -0.37225902603E-01  0.84641739984E-01  0.51100000000E-03 0. -1.
</event>
<event>
 8    1  0.1317659E+005  0.1043930E+01  0.7957747E-01            NaN
         13   -1    0    0    0    0  0.00000000000E+00  0.00000000000E+00  0.74505805969E-08  0.10566000000E+00  0.10566000000E+00 0.  1.
     999900   -1    0    0    0    0 -0.00000000000E+00 -0.00000000000E+00 -0.74505805969E-08  0.93827000000E+00  0.93827000000E+00 0. -1.
     999902    2    1    2    0    0  0.14083089941E-01  0.16496587941E-01  0.40617152856E-02  0.10218626402E+01  0.10216243376E+01 0.  0.
     999903    2    3    3    0    0  0.89647380971E-01  0.86930681683E-01 -0.48743450837E-01  0.13424824805E+00  0.72850375948E-02 0.  0.
         14    1    1    2    0    0 -0.14083089941E-01 -0.16496587941E-01 -0.40617152856E-02  0.22067359766E-01  0.00000000000E+00 0.  1.
     999901    1    3    3    0    0 -0.75564291030E-01 -0.70434093742E-01  0.52805166123E-01  0.88761439218E+00  0.88000000000E+00 0.  1.
        -11    1    4    4    0    0  0.42261351103E-01  0.43603192668E-01 -0.20393897957E-01  0.64058039330E-01  0.51100000000E-03 0.  1.
         11    1    4    4    0    0  0.47386029867E-01  0.43327489014E-01 -0.28349552880E-01  0.70190208721E-01  0.51100000000E-03 0. -1.
</event>
<event>
 8    1  0.1051655E+005  0.1043930E+01  0.7957747E-01            NaN
         13   -1    0    0    0    0  0.00000000000E+00  0.00000000000E+00  0.74505805969E-08  0.10566000000E+00  0.10566000000E+00 0. -1.
     999900   -1    0    0    0    0 -0.00000000000E+00 -0.00000000000E+00 -0.74505805969E-08  0.93827000000E+00  0.93827000000E+00 0. -1.
     999902    2    1    2    0    0 -0.13487209988E-01  0.14309888072E-01 -0.10744090338E-01  0.10215221173E+01  0.10212763206E+01 0.  0.
     999903    2    3    3    0    0  0.76277818942E-01  0.17974956662E-01  0.10160834099E+00  0.12984153437E+00  0.19828372610E-01 0.  0.
         14    1    1    2    0    0  0.13487209988E-01 -0.14309888072E-01  0.10744090338E-01  0.22407882699E-01  0.00000000000E+00 0. -1.
     999901    1    3    3    0    0 -0.89765028930E-01 -0.36650685902E-02 -0.11235243133E+00  0.89168058293E+00  0.88000000000E+00 0. -1.
        -11    1    4    4    0    0  0.40090147300E-01 -0.70553352844E-03  0.49436425457E-01  0.63654842479E-01  0.51100000000E-03 0.  1.
         11    1    4    4    0    0  0.36187671642E-01  0.18680490190E-01  0.52171915530E-01  0.66186691893E-01  0.51100000000E-03 0. -1.
</event>
<event>
 8    1  0.1051655E+005  0.1043930E+01  0.7957747E-01            NaN
         13   -1    0    0    0    0  0.00000000000E+00  0.00000000000E+00  0.74505805969E-08  0.10566000000E+00  0.10566000000E+00 0. -1.
     999900   -1    0    0    0    0 -0.00000000000E+00 -0.00000000000E+00 -0.74505805969E-08  0.93827000000E+00  0.93827000000E+00 0.  1.
     999902    2    1    2    0    0  0.23117350130E-01 -0.19930895018E-02 -0.17640058256E-02  0.10206599334E+01  0.10203946313E+01 0.  0.
     999903    2    3    3    0    0 -0.72723595286E-01  0.95583460200E-01  0.42586201323E-01  0.12899093050E+00  0.20003910432E-01 0.  0.
         14    1    1    2    0    0 -0.23117350130E-01  0.19930895018E-02  0.17640058256E-02  0.23270066595E-01  0.00000000000E+00 0. -1.
     999901    1    3    3    0    0  0.95840945416E-01 -0.97576549702E-01 -0.44350207148E-01  0.89166900291E+00  0.88000000000E+00 0.  1.
        -11    1    4    4    0    0 -0.13495453779E-01  0.15428132564E-01 -0.26158625189E-03  0.20505708851E-01  0.51100000000E-03 0.  1.
         11    1    4    4    0    0 -0.59228141507E-01  0.80155327637E-01  0.42847787574E-01  0.10848522165E+00  0.51100000000E-03 0. -1.
</event>
<event>
 8    1  0.1051655E+005  0.1043930E+01  0.7957747E-01            NaN
         13   -1    0    0    0    0  0.00000000000E+00  0.00000000000E+00  0.74505805969E-08  0.10566000000E+00  0.10566000000E+00 0. -1.
     999900   -1    0    0    0    0 -0.00000000000E+00 -0.00000000000E+00 -0.74505805969E-08  0.93827000000E+00  0.93827000000E+00 0. -1.
     999902    2    1    2    0    0 -0.51725583778E-02  0.16493096316E-01  0.15804102849E-01  0.10205089143E+01  0.10202401173E+01 0.  0.
     999903    2    3    3    0    0  0.44417770073E-01 -0.11870523431E+00 -0.78706010663E-02  0.12848969881E+00  0.19590441237E-01 0.  0.
         14    1    1    2    0    0  0.51725583778E-02 -0.16493096316E-01 -0.15804102849E-01  0.23421085652E-01  0.00000000000E+00 0.  1.
     999901    1    3    3    0    0 -0.49590328451E-01  0.13519833063E+00  0.23674703915E-01  0.89201921554E+00  0.88000000000E+00 0.  1.
        -11    1    4    4    0    0  0.17309710075E-01 -0.68595484502E-01 -0.10136712309E-01  0.71470137921E-01  0.51100000000E-03 0. -1.
         11    1    4    4    0    0  0.27108059998E-01 -0.50109749811E-01  0.22661112427E-02  0.57019560891E-01  0.51100000000E-03 0.  1.
</event>
<event>
 8    1  0.1051655E+005  0.1043930E+01  0.7957747E-01            NaN
         13   -1    0    0    0    0  0.00000000000E+00  0.00000000000E+00  0.74505805969E-08  0.10566000000E+00  0.10566000000E+00 0.  1.
     999900   -1    0    0    0    0 -0.00000000000E+00 -0.00000000000E+00 -0.74505805969E-08  0.93827000000E+00  0.93827000000E+00 0.  1.
     999902    2    1    2    0    0 -0.91270056103E-02 -0.52951845022E-02  0.22796161305E-01  0.10188101636E+01  0.10185004385E+01 0.  0.
     999903    2    3    3    0    0 -0.35137719722E-01 -0.45392067879E-01  0.11766534950E+00  0.13242171593E+00  0.19881579455E-01 0.  0.
         14    1    1    2    0    0  0.91270056103E-02  0.52951845022E-02 -0.22796161305E-01  0.25119836396E-01  0.00000000000E+00 0. -1.
     999901    1    3    3    0    0  0.26010714112E-01  0.40096883376E-01 -0.94869188199E-01  0.88638844768E+00  0.88000000000E+00 0.  1.
        -11    1    4    4    0    0 -0.99603436358E-02 -0.28195656719E-02  0.12749790607E-01  0.16430967027E-01  0.51100000000E-03 0.  1.
         11    1    4    4    0    0 -0.25177376086E-01 -0.42572502207E-01  0.10491555890E+00  0.11599074890E+00  0.51100000000E-03 0. -1.
</event>
<event>
 8    1  0.1051655E+005  0.1043930E+01  0.7957747E-01            NaN
         13   -1    0    0    0    0  0.00000000000E+00  0.00000000000E+00  0.74505805969E-08  0.10566000000E+00  0.10566000000E+00 0.  1.
     999900   -1    0    0    0    0 -0.00000000000E+00 -0.00000000000E+00 -0.74505805969E-08  0.93827000000E+00  0.93827000000E+00 0.  1.
     999902    2    1    2    0    0 -0.12016828368E-01  0.60408185811E-02  0.24931057684E-01  0.10156023935E+01  0.10152072539E+01 0.  0.
     999903    2    3    3    0    0  0.10355278858E+00  0.28717455843E-01  0.64558601177E-01  0.12687245226E+00  0.19517527076E-01 0.  0.
         14    1    1    2    0    0  0.12016828368E-01 -0.60408185811E-02 -0.24931057684E-01  0.28327606507E-01  0.00000000000E+00 0. -1.
     999901    1    3    3    0    0 -0.11556961695E+00 -0.22676637262E-01 -0.39627543493E-01  0.88872994123E+00  0.88000000000E+00 0.  1.
        -11    1    4    4    0    0  0.95284265181E-01  0.30109403802E-01  0.54702992861E-01  0.11392254359E+00  0.51100000000E-03 0. -1.
         11    1    4    4    0    0  0.82685234031E-02 -0.13919479592E-02  0.98556083154E-02  0.12949908674E-01  0.51100000000E-03 0.  1.
</event>
<event>
 8    1  0.1051655E+005  0.1043930E+01  0.7957747E-01            NaN
         13   -1    0    0    0    0  0.00000000000E+00  0.00000000000E+00  0.74505805969E-08  0.10566000000E+00  0.10566000000E+00 0. -1.
     999900   -1    0    0    0    0 -0.00000000000E+00 -0.00000000000E+00 -0.74505805969E-08  0.93827000000E+00  0.93827000000E+00 0. -1.
     999902    2    1    2    0    0 -0.11633885448E-01  0.14550277772E-01  0.15898012200E-01  0.10194390901E+01  0.10191448640E+01 0.  0.
     999903    2    3    3    0    0 -0.49026260287E-01  0.11447963493E+00  0.40486280852E-01  0.13265351906E+00  0.21181505401E-01 0.  0.
         14    1    1    2    0    0  0.11633885448E-01 -0.14550277772E-01 -0.15898012200E-01  0.24490909860E-01  0.00000000000E+00 0.  1.
     999901    1    3    3    0    0  0.37392374839E-01 -0.99929357158E-01 -0.24588268652E-01  0.88678557108E+00  0.88000000000E+00 0. -1.
        -11    1    4    4    0    0 -0.20139565014E-01  0.24663927081E-01  0.12852746695E-01  0.34341892735E-01  0.51100000000E-03 0. -1.
         11    1    4    4    0    0 -0.28886695273E-01  0.89815707848E-01  0.27633534156E-01  0.98311626327E-01  0.51100000000E-03 0.  1.
</event>
<event>
 8    1  0.1051655E+005  0.1043930E+01  0.7957747E-01            NaN
         13   -1    0    0    0    0  0.00000000000E+00  0.00000000000E+00  0.74505805969E-08  0.10566000000E+00  0.10566000000E+00 0.  1.
     999900   -1    0    0    0    0 -0.00000000000E+00 -0.00000000000E+00 -0.74505805969E-08  0.93827000000E+00  0.93827000000E+00 0.  1.
     999902    2    1    2    0    0  0.22489421774E-01  0.11869014474E-01  0.19461953102E-02  0.10184263675E+01  0.10181069839E+01 0.  0.
     999903    2    3    3    0    0  0.41490836398E-01  0.10112645539E+00 -0.69517797968E-01  0.13082564256E+00  0.18291392276E-01 0.  0.
         14    1    1    2    0    0 -0.22489421774E-01 -0.11869014474E-01 -0.19461953102E-02  0.25503632535E-01  0.00000000000E+00 0.  1.
     999901    1    3    3    0    0 -0.19001414623E-01 -0.89257440919E-01  0.71463993278E-01  0.88760072491E+00  0.88000000000E+00 0. -1.
        -11    1    4    4    0    0  0.55454361806E-02  0.34717551380E-01 -0.18941877394E-01  0.39938904298E-01  0.51100000000E-03 0.  1.
         11    1    4    4    0    0  0.35945400217E-01  0.66408904012E-01 -0.50575920574E-01  0.90886738262E-01  0.51100000000E-03 0. -1.
</event>
<event>
 8    1  0.1051655E+005  0.1043930E+01  0.7957747E-01            NaN
         13   -1    0    0    0    0  0.00000000000E+00  0.00000000000E+00  0.74505805969E-08  0.10566000000E+00  0.10566000000E+00 0.  1.
     999900   -1    0    0    0    0 -0.00000000000E+00 -0.00000000000E+00 -0.74505805969E-08  0.93827000000E+00  0.93827000000E+00 0.  1.
     999902    2    1    2    0    0 -0.22356089111E-01  0.65220060789E-02 -0.37061345055E-02  0.10203489331E+01  0.10200764082E+01 0.  0.
     999903    2    3    3    0    0 -0.37902098391E-01 -0.94891246406E-01 -0.79816212576E-01  0.13112507479E+00  0.19550952463E-01 0.  0.
         14    1    1    2    0    0  0.22356089111E-01 -0.65220060789E-02  0.37061345055E-02  0.23581066910E-01  0.00000000000E+00 0.  1.
     999901    1    3    3    0    0  0.15546009280E-01  0.10141325248E+00  0.76110078071E-01  0.88922385830E+00  0.88000000000E+00 0. -1.
        -11    1    4    4    0    0 -0.24998899077E-01 -0.81015060166E-01 -0.68898993626E-01  0.10925070880E+00  0.51100000000E-03 0.  1.
         11    1    4    4    0    0 -0.12903199314E-01 -0.13876186240E-01 -0.10917218950E-01  0.21874365996E-01  0.51100000000E-03 0. -1.
</event>
<event>
 8    1  0.1051655E+005  0.1043930E+01  0.7957747E-01            NaN
         13   -1    0    0    0    0  0.00000000000E+00  0.00000000000E+00  0.74505805969E-08  0.10566000000E+00  0.10566000000E+00 0.  1.
     999900   -1    0    0    0    0 -0.00000000000E+00 -0.00000000000E+00 -0.74505805969E-08  0.93827000000E+00  0.93827000000E+00 0. -1.
     999902    2    1    2    0    0  0.19599085527E-01  0.11570704206E-01  0.46162664824E-02  0.10207068377E+01  0.10204426164E+01 0.  0.
     999903    2    3    3    0    0 -0.69771198812E-01  0.10806329486E+00 -0.10796549788E-01  0.13079930171E+00  0.21123351068E-01 0.  0.
         14    1    1    2    0    0 -0.19599085527E-01 -0.11570704206E-01 -0.46162664824E-02  0.23223162264E-01  0.00000000000E+00 0.  1.
     999901    1    3    3    0    0  0.89370284338E-01 -0.96492590654E-01  0.15412816271E-01  0.88990753603E+00  0.88000000000E+00 0. -1.
        -11    1    4    4    0    0 -0.31325521563E-01  0.67334109766E-01 -0.83691808388E-02  0.74736035137E-01  0.51100000000E-03 0. -1.
         11    1    4    4    0    0 -0.38445677249E-01  0.40729185095E-01 -0.24273689495E-02  0.56063266571E-01  0.51100000000E-03 0.  1.
</event>
<event>
 8    1  0.1051655E+005  0.1043930E+01  0.7957747E-01            NaN
         13   -1    0    0    0    0  0.00000000000E+00  0.00000000000E+00  0.74505805969E-08  0.10566000000E+00  0.10566000000E+00 0. -1.
     999900   -1    0    0    0    0 -0.00000000000E+00 -0.00000000000E+00 -0.74505805969E-08  0.93827000000E+00  0.93827000000E+00 0. -1.
     999902    2    1    2    0    0  0.18085690629E-02 -0.20203836705E-01  0.11374734679E-01  0.10206738067E+01  0.10204088245E+01 0.  0.
     999903    2    3    3    0    0  0.73212605632E-01  0.97550010669E-01 -0.35924397557E-01  0.12870872163E+00  0.19982053892E-01 0.  0.
         14    1    1    2    0    0 -0.18085690629E-02  0.20203836705E-01 -0.11374734679E-01  0.23256193340E-01  0.00000000000E+00 0.  1.
     999901    1    3    3    0    0 -0.71404036569E-01 -0.11775384737E+00  0.47299132236E-01  0.89196508503E+00  0.88000000000E+00 0.  1.
        -11    1    4    4    0    0  0.24301690574E-01  0.28059138670E-01 -0.19035894138E-02  0.37172196617E-01  0.51100000000E-03 0.  1.
         11    1    4    4    0    0  0.48910915058E-01  0.69490871999E-01 -0.34020808143E-01  0.91536525009E-01  0.51100000000E-03 0. -1.
</event>
<event>
 8    1  0.1051655E+005  0.1043930E+01  0.7957747E-01            NaN
         13   -1    0    0    0    0  0.00000000000E+00  0.00000000000E+00  0.74505805969E-08  0.10566000000E+00  0.10566000000E+00 0. -1.
     999900   -1    0    0    0    0 -0.00000000000E+00 -0.00000000000E+00 -0.74505805969E-08  0.93827000000E+00  0.93827000000E+00 0. -1.
     999902    2    1    2    0    0 -0.23044527845E-02 -0.23747044809E-01 -0.68232436374E-03  0.10200616484E+01  0.10197823633E+01 0.  0.
     999903    2    3    3    0    0  0.60388885653E-01  0.67686817168E-01 -0.89173125799E-01  0.12870244602E+00  0.19599758088E-01 0.  0.
         14    1    1    2    0    0  0.23044527845E-02  0.23747044809E-01  0.68232436374E-03  0.23868351563E-01  0.00000000000E+00 0. -1.
     999901    1    3    3    0    0 -0.62693338438E-01 -0.91433861978E-01  0.88490801435E-01  0.89135920242E+00  0.88000000000E+00 0.  1.
        -11    1    4    4    0    0  0.16167650801E-01  0.32424010091E-01 -0.35571023800E-01  0.50776650323E-01  0.51100000000E-03 0.  1.
         11    1    4    4    0    0  0.44221234853E-01  0.35262807077E-01 -0.53602101999E-01  0.77925795694E-01  0.51100000000E-03 0. -1.
</event>
<event>
 8    1  0.1051655E+005  0.1043930E+01  0.7957747E-01            NaN
         13   -1    0    0    0    0  0.00000000000E+00  0.00000000000E+00  0.74505805969E-08  0.10566000000E+00  0.10566000000E+00 0. -1.
     999900   -1    0    0    0    0 -0.00000000000E+00 -0.00000000000E+00 -0.74505805969E-08  0.93827000000E+00  0.93827000000E+00 0. -1.
     999902    2    1    2    0    0 -0.22437205485E-01 -0.76981768977E-02  0.24265894361E-02  0.10200851168E+01  0.10198063871E+01 0.  0.
     999903    2    3    3    0    0  0.94894136854E-01 -0.78137248119E-01 -0.32762048858E-01  0.12881268545E+00  0.20224473683E-01 0.  0.
         14    1    1    2    0    0  0.22437205485E-01  0.76981768977E-02 -0.24265894361E-02  0.23844883179E-01  0.00000000000E+00 0. -1.
     999901    1    3    3    0    0 -0.11733134234E+00  0.70439071222E-01  0.35188638294E-01  0.89127243137E+00  0.88000000000E+00 0. -1.
        -11    1    4    4    0    0  0.56887384050E-01 -0.40388438052E-01 -0.95091426842E-02  0.70413672734E-01  0.51100000000E-03 0.  1.
         11    1    4    4    0    0  0.38006752804E-01 -0.37748810068E-01 -0.23252906174E-01  0.58399012721E-01  0.51100000000E-03 0. -1.
</event>
<event>
 8    1  0.1051655E+005  0.1043930E+01  0.7957747E-01            NaN
         13   -1    0    0    0    0  0.00000000000E+00  0.00000000000E+00  0.74505805969E-08  0.10566000000E+00  0.10566000000E+00 0. -1.
     999900   -1    0    0    0    0 -0.00000000000E+00 -0.00000000000E+00 -0.74505805969E-08  0.93827000000E+00  0.93827000000E+00 0.  1.
     999902    2    1    2    0    0  0.10866999159E-01 -0.18131973754E-01 -0.11275652793E-01  0.10199716927E+01  0.10196902733E+01 0.  0.
     999903    2    3    3    0    0 -0.10269945144E+00  0.68910784113E-03 -0.76999739123E-01  0.13004403983E+00  0.20852824111E-01 0.  0.
         14    1    1    2    0    0 -0.10866999159E-01  0.18131973754E-01  0.11275652793E-01  0.23958307303E-01  0.00000000000E+00 0. -1.
     999901    1    3    3    0    0  0.11356645060E+00 -0.18821081595E-01  0.65724086330E-01  0.88992765287E+00  0.88000000000E+00 0. -1.
        -11    1    4    4    0    0 -0.47385056069E-01 -0.10057534694E-01 -0.36089154501E-01  0.60408490598E-01  0.51100000000E-03 0.  1.
         11    1    4    4    0    0 -0.55314395375E-01  0.10746642535E-01 -0.40910584622E-01  0.69635549231E-01  0.51100000000E-03 0. -1.
</event>
<event>
 8    1  0.1051655E+005  0.1043930E+01  0.7957747E-01            NaN
         13   -1    0    0    0    0  0.00000000000E+00  0.00000000000E+00  0.74505805969E-08  0.10566000000E+00  0.10566000000E+00 0.  1.
     999900   -1    0    0    0    0 -0.00000000000E+00 -0.00000000000E+00 -0.74505805969E-08  0.93827000000E+00  0.93827000000E+00 0.  1.
     999902    2    1    2    0    0 -0.71663406272E-02 -0.17233042875E-01  0.14229874413E-01  0.10204603700E+01  0.10201904446E+01 0.  0.
     999903    2    3    3    0    0  0.68544815647E-01  0.10615677917E+00  0.14021651394E-01  0.12863232006E+00  0.19545166677E-01 0.  0.
         14    1    1    2    0    0  0.71663406272E-02  0.17233042875E-01 -0.14229874413E-01  0.23469629961E-01  0.00000000000E+00 0. -1.
     999901    1    3    3    0    0 -0.75711156274E-01 -0.12338982205E+00  0.20822301852E-03  0.89182804998E+00  0.88000000000E+00 0.  1.
        -11    1    4    4    0    0  0.36663406442E-01  0.51453992766E-01 -0.23739306118E-02  0.63226698562E-01  0.51100000000E-03 0. -1.
         11    1    4    4    0    0  0.31881409205E-01  0.54702786406E-01  0.16395582006E-01  0.65405621499E-01  0.51100000000E-03 0.  1.
</event>
<event>
 8    1  0.1051655E+005  0.1043930E+01  0.7957747E-01            NaN
         13   -1    0    0    0    0  0.00000000000E+00  0.00000000000E+00  0.74505805969E-08  0.10566000000E+00  0.10566000000E+00 0. -1.
     999900   -1    0    0    0    0 -0.00000000000E+00 -0.00000000000E+00 -0.74505805969E-08  0.93827000000E+00  0.93827000000E+00 0. -1.
     999902    2    1    2    0    0  0.14115312719E-01 -0.21314390204E-01 -0.38733774888E-02  0.10180736983E+01  0.10177453055E+01 0.  0.
     999903    2    3    3    0    0  0.56520783974E-01 -0.11553568145E+00  0.19880983533E-01  0.13171025967E+00  0.20229836559E-01 0.  0.
         14    1    1    2    0    0 -0.14115312719E-01  0.21314390204E-01  0.38733774888E-02  0.25856301671E-01  0.00000000000E+00 0. -1.
     999901    1    3    3    0    0 -0.42405471255E-01  0.94221291250E-01 -0.23754361022E-01  0.88636343866E+00  0.88000000000E+00 0. -1.
        -11    1    4    4    0    0  0.51601596820E-01 -0.87033206897E-01  0.13405794964E-01  0.10206605879E+00  0.51100000000E-03 0.  1.
         11    1    4    4    0    0  0.49191871542E-02 -0.28502474556E-01  0.64751885686E-02  0.29644200885E-01  0.51100000000E-03 0. -1.
</event>
<event>
 8    1  0.1051655E+005  0.1043930E+01  0.7957747E-01            NaN
         13   -1    0    0    0    0  0.00000000000E+00  0.00000000000E+00  0.74505805969E-08  0.10566000000E+00  0.10566000000E+00 0. -1.
     999900   -1    0    0    0    0 -0.00000000000E+00 -0.00000000000E+00 -0.74505805969E-08  0.93827000000E+00  0.93827000000E+00 0. -1.
     999902    2    1    2    0    0 -0.20729325971E-01 -0.12183855611E-01  0.10256854244E-02  0.10198633566E+01  0.10195793558E+01 0.  0.
     999903    2    3    3    0    0 -0.51052100473E-01 -0.10333567447E+00 -0.61613416894E-01  0.13242221386E+00  0.21327236115E-01 0.  0.
         14    1    1    2    0    0  0.20729325971E-01  0.12183855611E-01 -0.10256854244E-02  0.24066643375E-01  0.00000000000E+00 0. -1.
     999901    1    3    3    0    0  0.30322774502E-01  0.91151818861E-01  0.62639102319E-01  0.88744114277E+00  0.88000000000E+00 0.  1.
        -11    1    4    4    0    0 -0.26112007692E-01 -0.55619835519E-01 -0.20844445904E-01  0.64885707941E-01  0.51100000000E-03 0.  1.
         11    1    4    4    0    0 -0.24940092781E-01 -0.47715838953E-01 -0.40768970991E-01  0.67536505918E-01  0.51100000000E-03 0. -1.
</event>
<event>
 8    1  0.1051655E+005  0.1043930E+01  0.7957747E-01            NaN
         13   -1    0    0    0    0  0.00000000000E+00  0.00000000000E+00  0.74505805969E-08  0.10566000000E+00  0.10566000000E+00 0. -1.
     999900   -1    0    0    0    0 -0.00000000000E+00 -0.00000000000E+00 -0.74505805969E-08  0.93827000000E+00  0.93827000000E+00 0. -1.
     999902    2    1    2    0    0 -0.17847175373E-02 -0.14646462519E-01 -0.20087024604E-01  0.10190062636E+01  0.10187014148E+01 0.  0.
     999903    2    3    3    0    0  0.11209833840E+00  0.14793377740E-01 -0.61529103341E-01  0.13021298021E+00  0.19613978697E-01 0.  0.
         14    1    1    2    0    0  0.17847175373E-02  0.14646462519E-01  0.20087024604E-01  0.24923736446E-01  0.00000000000E+00 0. -1.
     999901    1    3    3    0    0 -0.11388305594E+00 -0.29439840259E-01  0.41442078737E-01  0.88879328334E+00  0.88000000000E+00 0.  1.
        -11    1    4    4    0    0  0.24862528770E-01  0.82428039347E-02 -0.22015547994E-01  0.34220383224E-01  0.51100000000E-03 0.  1.
         11    1    4    4    0    0  0.87235809631E-01  0.65505738058E-02 -0.39513555347E-01  0.95992596987E-01  0.51100000000E-03 0. -1.
</event>
<event>
 7    1  0.1051655E+005  0.1043930E+01  0.7957747E-01            NaN
         13   -1    0    0    0    0  0.00000000000E+00  0.00000000000E+00  0.74505805969E-08  0.10566000000E+00  0.10566000000E+00 0. -1.
     999900   -1    0    0    0    0 -0.00000000000E+00 -0.00000000000E+00 -0.74505805969E-08  0.93827000000E+00  0.93827000000E+00 0. -1.
     999903    2    1    2    0    0 -0.65951559143E-01 -0.58996767879E-01 -0.47873512639E-01  0.10259676548E+00  0.20099659241E-01 0.  0.
         14    1    1    2    0    0  0.54034318663E-01  0.24190756762E-01  0.70288688523E-02  0.59617994796E-01  0.00000000000E+00 0. -1.
     999901    1    1    2    0    0  0.11917240480E-01  0.34806011117E-01  0.40844643787E-01  0.88171523972E+00  0.88000000000E+00 0.  1.
        -11    1    3    3    0    0 -0.37180060997E-01 -0.24775133781E-01 -0.32741398991E-01  0.55393361683E-01  0.51100000000E-03 0. -1.
         11    1    3    3    0    0 -0.28771498147E-01 -0.34221634098E-01 -0.15132113648E-01  0.47203403800E-01  0.51100000000E-03 0.  1.
</event>
<event>
 8    1  0.1051655E+005  0.1043930E+01  0.7957747E-01            NaN
         13   -1    0    0    0    0  0.00000000000E+00  0.00000000000E+00  0.74505805969E-08  0.10566000000E+00  0.10566000000E+00 0.  1.
     999900   -1    0    0    0    0 -0.00000000000E+00 -0.00000000000E+00 -0.74505805969E-08  0.93827000000E+00  0.93827000000E+00 0.  1.
     999902    2    1    2    0    0  0.15952721195E-01  0.19112856006E-01  0.33989909991E-02  0.10188034460E+01  0.10184935531E+01 0.  0.
     999903    2    3    3    0    0  0.11155798514E+00 -0.45121879788E-01  0.45668261737E-01  0.13029167956E+00  0.20227791478E-01 0.  0.
         14    1    1    2    0    0 -0.15952721195E-01 -0.19112856006E-01 -0.33989909991E-02  0.25126554043E-01  0.00000000000E+00 0. -1.
     999901    1    3    3    0    0 -0.95605263947E-01  0.64234735794E-01 -0.42269270738E-01  0.88851176640E+00  0.88000000000E+00 0. -1.
        -11    1    4    4    0    0  0.34705247254E-01 -0.23116930118E-01  0.10817730281E-01  0.43082839442E-01  0.51100000000E-03 0.  1.
         11    1    4    4    0    0  0.76852737888E-01 -0.22004949670E-01  0.34850531457E-01  0.87208840118E-01  0.51100000000E-03 0. -1.
</event>
<event>
 8    1  0.1051655E+005  0.1043930E+01  0.7957747E-01            NaN
         13   -1    0    0    0    0  0.00000000000E+00  0.00000000000E+00  0.74505805969E-08  0.10566000000E+00  0.10566000000E+00 0.  1.
     999900   -1    0    0    0    0 -0.00000000000E+00 -0.00000000000E+00 -0.74505805969E-08  0.93827000000E+00  0.93827000000E+00 0. -1.
     999902    2    1    2    0    0 -0.36770310632E-03  0.20192453182E-01  0.12195668181E-01  0.10203375289E+01  0.10200647372E+01 0.  0.
     999903    2    3    3    0    0  0.10768129297E+00 -0.68226297392E-01  0.10061485105E-01  0.12932854142E+00  0.19353284793E-01 0.  0.
         14    1    1    2    0    0  0.36770310632E-03 -0.20192453182E-01 -0.12195668181E-01  0.23592471118E-01  0.00000000000E+00 0. -1.
     999901    1    3    3    0    0 -0.10804899607E+00  0.88418750574E-01  0.21341830756E-02  0.89100898746E+00  0.88000000000E+00 0. -1.
        -11    1    4    4    0    0  0.57007331546E-01 -0.24935154822E-01  0.28507882310E-02  0.62289532913E-01  0.51100000000E-03 0.  1.
         11    1    4    4    0    0  0.50673961420E-01 -0.43291142569E-01  0.72106968740E-02  0.67039008505E-01  0.51100000000E-03 0. -1.
</event>
<event>
 8    1  0.1051655E+005  0.1043930E+01  0.7957747E-01            NaN
         13   -1    0    0    0    0  0.00000000000E+00  0.00000000000E+00  0.74505805969E-08  0.10566000000E+00  0.10566000000E+00 0. -1.
     999900   -1    0    0    0    0 -0.00000000000E+00 -0.00000000000E+00 -0.74505805969E-08  0.93827000000E+00  0.93827000000E+00 0.  1.
     999902    2    1    2    0    0  0.19023867821E-01  0.37871629176E-02  0.13268787461E-01  0.10204287049E+01  0.10201580421E+01 0.  0.
     999903    2    3    3    0    0 -0.47618490595E-03 -0.65683440076E-01  0.11264721259E+00  0.13190043406E+00  0.19844116226E-01 0.  0.
         14    1    1    2    0    0 -0.19023867821E-01 -0.37871629176E-02 -0.13268787461E-01  0.23501295082E-01  0.00000000000E+00 0.  1.
     999901    1    3    3    0    0  0.19500052726E-01  0.69470602993E-01 -0.99378425126E-01  0.88852827086E+00  0.88000000000E+00 0.  1.
        -11    1    4    4    0    0 -0.50268558634E-02 -0.56262509465E-01  0.10385876880E+00  0.11822708754E+00  0.51100000000E-03 0.  1.
         11    1    4    4    0    0  0.45506709574E-02 -0.94209306111E-02  0.87884437884E-02  0.13673346517E-01  0.51100000000E-03 0. -1.
</event>
<event>
 8    1  0.1051655E+005  0.1043930E+01  0.7957747E-01            NaN
         13   -1    0    0    0    0  0.00000000000E+00  0.00000000000E+00  0.74505805969E-08  0.10566000000E+00  0.10566000000E+00 0.  1.
     999900   -1    0    0    0    0 -0.00000000000E+00 -0.00000000000E+00 -0.74505805969E-08  0.93827000000E+00  0.93827000000E+00 0. -1.
     999902    2    1    2    0    0  0.16883627459E-01  0.13635468053E-01 -0.10904700734E-01  0.10196422384E+01  0.10193529315E+01 0.  0.
     999903    2    3    3    0    0  0.19047895510E-01  0.11660937493E+00  0.53589839450E-01  0.13129103800E+00  0.20122055568E-01 0.  0.
         14    1    1    2    0    0 -0.16883627459E-01 -0.13635468053E-01  0.10904700734E-01  0.24287761595E-01  0.00000000000E+00 0. -1.
     999901    1    3    3    0    0 -0.21642680508E-02 -0.10297390688E+00 -0.64494540184E-01  0.88835120041E+00  0.88000000000E+00 0. -1.
        -11    1    4    4    0    0  0.15233652570E-01  0.53144969689E-01  0.16566942666E-01  0.57716346767E-01  0.51100000000E-03 0. -1.
         11    1    4    4    0    0  0.38142429398E-02  0.63464405244E-01  0.37022896784E-01  0.73574691229E-01  0.51100000000E-03 0.  1.
</event>
<event>
 8    1  0.1051655E+005  0.1043930E+01  0.7957747E-01            NaN
         13   -1    0    0    0    0  0.00000000000E+00  0.00000000000E+00  0.74505805969E-08  0.10566000000E+00  0.10566000000E+00 0.  1.
     999900   -1    0    0    0    0 -0.00000000000E+00 -0.00000000000E+00 -0.74505805969E-08  0.93827000000E+00  0.93827000000E+00 0.  1.
     999902    2    1    2    0    0 -0.11707104743E-01  0.18058996960E-01  0.40313862220E-02  0.10220339787E+01  0.10217994020E+01 0.  0.
     999903    2    3    3    0    0  0.38801497999E-01  0.12505223029E+00  0.23723085574E-01  0.13389748362E+00  0.14904186724E-01 0.  0.
         14    1    1    2    0    0  0.11707104743E-01 -0.18058996960E-01 -0.40313862220E-02  0.21896021271E-01  0.00000000000E+00 0.  1.
     999901    1    3    3    0    0 -0.50508602742E-01 -0.10699323333E+00 -0.19691699352E-01  0.88813649511E+00  0.88000000000E+00 0.  1.
        -11    1    4    4    0    0  0.21667996818E-01  0.57872551200E-01  0.45606211656E-02  0.61966076646E-01  0.51100000000E-03 0. -1.
         11    1    4    4    0    0  0.17133501181E-01  0.67179679090E-01  0.19162464409E-01  0.71931406969E-01  0.51100000000E-03 0.  1.
</event>
<event>
 8    1  0.1051655E+005  0.1043930E+01  0.7957747E-01            NaN
         13   -1    0    0    0    0  0.00000000000E+00  0.00000000000E+00  0.74505805969E-08  0.10566000000E+00  0.10566000000E+00 0. -1.
     999900   -1    0    0    0    0 -0.00000000000E+00 -0.00000000000E+00 -0.74505805969E-08  0.93827000000E+00  0.93827000000E+00 0.  1.
     999902    2    1    2    0    0 -0.80046441581E-02 -0.20778249378E-01  0.11846946514E-01  0.10187077852E+01  0.10183954986E+01 0.  0.
     999903    2    3    3    0    0 -0.23469926949E-01 -0.11863671908E+00 -0.46670202754E-01  0.13121710258E+00  0.20354645626E-01 0.  0.
         14    1    1    2    0    0  0.80046441581E-02  0.20778249378E-01 -0.11846946514E-01  0.25222214752E-01  0.00000000000E+00 0.  1.
     999901    1    3    3    0    0  0.15465282791E-01  0.97858469705E-01  0.58517149268E-01  0.88749068267E+00  0.88000000000E+00 0. -1.
        -11    1    4    4    0    0 -0.34550015531E-02 -0.37161727038E-01 -0.53901034954E-02  0.37712668016E-01  0.51100000000E-03 0.  1.
         11    1    4    4    0    0 -0.20014925396E-01 -0.81474992045E-01 -0.41280099259E-01  0.93504434564E-01  0.51100000000E-03 0. -1.
</event>
<event>
 8    1  0.1051655E+005  0.1043930E+01  0.7957747E-01            NaN
         13   -1    0    0    0    0  0.00000000000E+00  0.00000000000E+00  0.74505805969E-08  0.10566000000E+00  0.10566000000E+00 0. -1.
     999900   -1    0    0    0    0 -0.00000000000E+00 -0.00000000000E+00 -0.74505805969E-08  0.93827000000E+00  0.93827000000E+00 0.  1.
     999902    2    1    2    0    0  0.20174802088E-01 -0.20594824685E-02 -0.11388936857E-01  0.10206711954E+01  0.10204061531E+01 0.  0.
     999903    2    3    3    0    0 -0.40695535911E-01  0.11596385959E+00  0.35028269095E-01  0.12949822438E+00  0.20953928220E-01 0.  0.
         14    1    1    2    0    0 -0.20174802088E-01  0.20594824685E-02  0.11388936857E-01  0.23258804571E-01  0.00000000000E+00 0.  1.
     999901    1    3    3    0    0  0.60870337999E-01 -0.11802334206E+00 -0.46417205952E-01  0.89117297105E+00  0.88000000000E+00 0.  1.
        -11    1    4    4    0    0 -0.41187995551E-01  0.94423603020E-01  0.30928956481E-01  0.10755988683E+00  0.51100000000E-03 0.  1.
         11    1    4    4    0    0  0.49245964011E-03  0.21540256570E-01  0.40993126147E-02  0.21938337551E-01  0.51100000000E-03 0. -1.
</event>
<event>
 8    1  0.1051655E+005  0.1043930E+01  0.7957747E-01            NaN
         13   -1    0    0    0    0  0.00000000000E+00  0.00000000000E+00  0.74505805969E-08  0.10566000000E+00  0.10566000000E+00 0.  1.
     999900   -1    0    0    0    0 -0.00000000000E+00 -0.00000000000E+00 -0.74505805969E-08  0.93827000000E+00  0.93827000000E+00 0. -1.
     999902    2    1    2    0    0 -0.90844525406E-02  0.17446146329E-01 -0.16825977513E-01  0.10180454714E+01  0.10177163520E+01 0.  0.
     999903    2    3    3    0    0 -0.12706686579E+00  0.13275692934E-02  0.14489535551E-01  0.12947340361E+00  0.20141121632E-01 0.  0.
         14    1    1    2    0    0  0.90844525406E-02 -0.17446146329E-01  0.16825977513E-01  0.25884528564E-01  0.00000000000E+00 0. -1.
     999901    1    3    3    0    0  0.11798241325E+00  0.16118577036E-01 -0.31315513064E-01  0.88857206783E+00  0.88000000000E+00 0.  1.
        -11    1    4    4    0    0 -0.45105939103E-01 -0.91000401253E-02  0.62593107646E-02  0.46441323893E-01  0.51100000000E-03 0. -1.
         11    1    4    4    0    0 -0.81960926685E-01  0.10427609419E-01  0.82302247860E-02  0.83032079718E-01  0.51100000000E-03 0.  1.
</event>
<event>
 8    1  0.1051655E+005  0.1043930E+01  0.7957747E-01            NaN
         13   -1    0    0    0    0  0.00000000000E+00  0.00000000000E+00  0.74505805969E-08  0.10566000000E+00  0.10566000000E+00 0.  1.
     999900   -1    0    0    0    0 -0.00000000000E+00 -0.00000000000E+00 -0.74505805969E-08  0.93827000000E+00  0.93827000000E+00 0. -1.
     999902    2    1    2    0    0 -0.48528803769E-03  0.13255681689E-01 -0.18988322351E-01  0.10207674227E+01  0.10205045939E+01 0.  0.
     999903    2    3    3    0    0 -0.13696346299E-01 -0.11690201488E+00  0.47711652591E-01  0.12859902789E+00  0.20190027179E-01 0.  0.
         14    1    1    2    0    0  0.48528803769E-03 -0.13255681689E-01  0.18988322351E-01  0.23162577301E-01  0.00000000000E+00 0.  1.
     999901    1    3    3    0    0  0.13211058262E-01  0.13015769657E+00 -0.66699974942E-01  0.89216839481E+00  0.88000000000E+00 0. -1.
        -11    1    4    4    0    0 -0.99405096028E-02 -0.39831352037E-01  0.25384770980E-01  0.48270053398E-01  0.51100000000E-03 0. -1.
         11    1    4    4    0    0 -0.37558366967E-02 -0.77070662840E-01  0.22326881611E-01  0.80328974494E-01  0.51100000000E-03 0.  1.
</event>
<event>
 8    1  0.1051655E+005  0.1043930E+01  0.7957747E-01            NaN
         13   -1    0    0    0    0  0.00000000000E+00  0.00000000000E+00  0.74505805969E-08  0.10566000000E+00  0.10566000000E+00 0. -1.
     999900   -1    0    0    0    0 -0.00000000000E+00 -0.00000000000E+00 -0.74505805969E-08  0.93827000000E+00  0.93827000000E+00 0.  1.
     999902    2    1    2    0    0  0.11068838037E-01 -0.12069584795E-01 -0.17348950335E-01  0.10200725037E+01  0.10197934755E+01 0.  0.
     999903    2    3    3    0    0  0.12838927876E+00 -0.14696044325E-01 -0.20027981238E-01  0.13227851784E+00  0.19917470490E-01 0.  0.
         14    1    1    2    0    0 -0.11068838037E-01  0.12069584795E-01  0.17348950335E-01  0.23857496313E-01  0.00000000000E+00 0. -1.
     999901    1    3    3    0    0 -0.11732044072E+00  0.26264595307E-02  0.26790309030E-02  0.88779398585E+00  0.88000000000E+00 0. -1.
        -11    1    4    4    0    0  0.49567928954E-01 -0.10087213586E-01  0.89982391816E-03  0.50594488462E-01  0.51100000000E-03 0. -1.
         11    1    4    4    0    0  0.78821349803E-01 -0.46088307397E-02 -0.20927805156E-01  0.81684029377E-01  0.51100000000E-03 0.  1.
</event>
<event>
 8    1  0.1051655E+005  0.1043930E+01  0.7957747E-01            NaN
         13   -1    0    0    0    0  0.00000000000E+00  0.00000000000E+00  0.74505805969E-08  0.10566000000E+00  0.10566000000E+00 0. -1.
     999900   -1    0    0    0    0 -0.00000000000E+00 -0.00000000000E+00 -0.74505805969E-08  0.93827000000E+00  0.93827000000E+00 0.  1.
     999902    2    1    2    0    0  0.22119097186E-01 -0.72026034761E-02  0.60256385993E-02  0.10199000129E+01  0.10196168869E+01 0.  0.
     999903    2    3    3    0    0  0.43040387847E-01 -0.11680053165E+00 -0.38342890490E-01  0.13174576247E+00  0.19797209399E-01 0.  0.
         14    1    1    2    0    0 -0.22119097186E-01  0.72026034761E-02 -0.60256385993E-02  0.24029987051E-01  0.00000000000E+00 0.  1.
     999901    1    3    3    0    0 -0.20921290661E-01  0.10959792817E+00  0.44368529090E-01  0.88815425047E+00  0.88000000000E+00 0.  1.
        -11    1    4    4    0    0  0.35305962187E-01 -0.69963711592E-01 -0.20268025303E-01  0.80947426620E-01  0.51100000000E-03 0. -1.
         11    1    4    4    0    0  0.77344256600E-02 -0.46836820054E-01 -0.18074865187E-01  0.50798335855E-01  0.51100000000E-03 0.  1.
</event>
<event>
 8    1  0.1051655E+005  0.1043930E+01  0.7957747E-01            NaN
         13   -1    0    0    0    0  0.00000000000E+00  0.00000000000E+00  0.74505805969E-08  0.10566000000E+00  0.10566000000E+00 0.  1.
     999900   -1    0    0    0    0 -0.00000000000E+00 -0.00000000000E+00 -0.74505805969E-08  0.93827000000E+00  0.93827000000E+00 0. -1.
     999902    2    1    2    0    0 -0.87196020867E-02 -0.16330705876E-01  0.13360174975E-01  0.10210998075E+01  0.10208445519E+01 0.  0.
     999903    2    3    3    0    0 -0.68176982714E-01 -0.10824268078E+00  0.35080168341E-01  0.13405147207E+00  0.19354587053E-01 0.  0.
         14    1    1    2    0    0  0.87196020867E-02  0.16330705876E-01 -0.13360174975E-01  0.22830192516E-01  0.00000000000E+00 0.  1.
     999901    1    3    3    0    0  0.59457380627E-01  0.91911974904E-01 -0.21719993366E-01  0.88704833541E+00  0.88000000000E+00 0.  1.
        -11    1    4    4    0    0 -0.33879634435E-01 -0.55717184767E-01  0.27826391255E-01  0.70899954014E-01  0.51100000000E-03 0.  1.
         11    1    4    4    0    0 -0.34297348278E-01 -0.52525496013E-01  0.72537770856E-02  0.63151518061E-01  0.51100000000E-03 0. -1.
</event>
<event>
 8    1  0.1051655E+005  0.1043930E+01  0.7957747E-01            NaN
         13   -1    0    0    0    0  0.00000000000E+00  0.00000000000E+00  0.74505805969E-08  0.10566000000E+00  0.10566000000E+00 0. -1.
     999900   -1    0    0    0    0 -0.00000000000E+00 -0.00000000000E+00 -0.74505805969E-08  0.93827000000E+00  0.93827000000E+00 0. -1.
     999902    2    1    2    0    0  0.11312462691E-01 -0.14467096621E-02 -0.18157270618E-01  0.10224881890E+01  0.10222633445E+01 0.  0.
     999903    2    3    3    0    0  0.87788261189E-01  0.26149405879E-01  0.92595869937E-01  0.13182756260E+00  0.20345537613E-01 0.  0.
         14    1    1    2    0    0 -0.11312462691E-01  0.14467096621E-02  0.18157270618E-01  0.21441810961E-01  0.00000000000E+00 0. -1.
     999901    1    3    3    0    0 -0.76475798498E-01 -0.27596115541E-01 -0.11075314056E+00  0.89066062644E+00  0.88000000000E+00 0. -1.
        -11    1    4    4    0    0  0.47393648360E-01  0.16287399892E-01  0.36501503493E-01  0.62000469179E-01  0.51100000000E-03 0.  1.
         11    1    4    4    0    0  0.40394612830E-01  0.98620059871E-02  0.56094366444E-01  0.69827093420E-01  0.51100000000E-03 0. -1.
</event>
<event>
 8    1  0.1051655E+005  0.1043930E+01  0.7957747E-01            NaN
         13   -1    0    0    0    0  0.00000000000E+00  0.00000000000E+00  0.74505805969E-08  0.10566000000E+00  0.10566000000E+00 0. -1.
     999900   -1    0    0    0    0 -0.00000000000E+00 -0.00000000000E+00 -0.74505805969E-08  0.93827000000E+00  0.93827000000E+00 0. -1.
     999902    2    1    2    0    0  0.15525289771E-02 -0.69179536167E-02  0.23448739504E-01  0.10194328203E+01  0.10191384417E+01 0.  0.
     999903    2    3    3    0    0  0.10719275690E+00 -0.21754069535E-01  0.72383292373E-01  0.13164086351E+00  0.11244965922E-01 0.  0.
         14    1    1    2    0    0 -0.15525289771E-02  0.69179536167E-02 -0.23448739504E-01  0.24497179690E-01  0.00000000000E+00 0.  1.
     999901    1    3    3    0    0 -0.10564022792E+00  0.14836115918E-01 -0.48934552869E-01  0.88779195680E+00  0.88000000000E+00 0. -1.
        -11    1    4    4    0    0  0.44229675965E-01 -0.10969872053E-01  0.36373677912E-01  0.58308729147E-01  0.51100000000E-03 0.  1.
         11    1    4    4    0    0  0.62963080933E-01 -0.10784197482E-01  0.36009614461E-01  0.73332134365E-01  0.51100000000E-03 0. -1.
</event>
<event>
 8    1  0.1051655E+005  0.1043930E+01  0.7957747E-01            NaN
         13   -1    0    0    0    0  0.00000000000E+00  0.00000000000E+00  0.74505805969E-08  0.10566000000E+00  0.10566000000E+00 0. -1.
     999900   -1    0    0    0    0 -0.00000000000E+00 -0.00000000000E+00 -0.74505805969E-08  0.93827000000E+00  0.93827000000E+00 0.  1.
     999902    2    1    2    0    0  0.33125839138E-02 -0.30421759502E-02  0.23136741473E-01  0.10203601707E+01  0.10200879085E+01 0.  0.
     999903    2    3    3    0    0  0.44421352012E-01  0.11511545942E+00  0.40727214404E-01  0.13133790870E+00  0.19134125426E-01 0.  0.
         14    1    1    2    0    0 -0.33125839138E-02  0.30421759502E-02 -0.23136741473E-01  0.23569829289E-01  0.00000000000E+00 0.  1.
     999901    1    3    3    0    0 -0.41108768098E-01 -0.11815763537E+00 -0.17590472931E-01  0.88902226201E+00  0.88000000000E+00 0.  1.
        -11    1    4    4    0    0  0.21509289083E-01  0.52435002941E-01  0.28679235016E-01  0.63520380134E-01  0.51100000000E-03 0.  1.
         11    1    4    4    0    0  0.22912062929E-01  0.62680456483E-01  0.12047979389E-01  0.67817528567E-01  0.51100000000E-03 0. -1.
</event>
<event>
 8    1  0.1313838E+005  0.1043930E+01  0.7957747E-01            NaN
         13   -1    0    0    0    0  0.00000000000E+00  0.00000000000E+00  0.74505805969E-08  0.10566000000E+00  0.10566000000E+00 0.  1.
     999900   -1    0    0    0    0 -0.00000000000E+00 -0.00000000000E+00 -0.74505805969E-08  0.93827000000E+00  0.93827000000E+00 0. -1.
     999902    2    1    2    0    0  0.70258669310E-02 -0.17651515674E-01 -0.20958523847E-01  0.10156422194E+01  0.10152482057E+01 0.  0.
     999903    2    3    3    0    0 -0.84279631162E-01  0.89227653516E-01 -0.93104079141E-02  0.12440962941E+00  0.18067700819E-01 0.  0.
         14    1    1    2    0    0 -0.70258669310E-02  0.17651515674E-01  0.20958523847E-01  0.28287780640E-01  0.00000000000E+00 0.  1.
     999901    1    3    3    0    0  0.91305498093E-01 -0.10687916919E+00 -0.11648115933E-01  0.89123258995E+00  0.88000000000E+00 0.  1.
        -11    1    4    4    0    0 -0.28301481381E-01  0.37825394731E-01  0.33485876757E-02  0.47362522055E-01  0.51100000000E-03 0. -1.
         11    1    4    4    0    0 -0.55978149780E-01  0.51402258785E-01 -0.12658995590E-01  0.77047107353E-01  0.51100000000E-03 0.  1.
</event>
<event>
 8    1  0.1051655E+005  0.1043930E+01  0.7957747E-01            NaN
         13   -1    0    0    0    0  0.00000000000E+00  0.00000000000E+00  0.74505805969E-08  0.10566000000E+00  0.10566000000E+00 0. -1.
     999900   -1    0    0    0    0 -0.00000000000E+00 -0.00000000000E+00 -0.74505805969E-08  0.93827000000E+00  0.93827000000E+00 0. -1.
     999902    2    1    2    0    0 -0.13958049788E-01 -0.19839584624E-01  0.63385588674E-02  0.10188578322E+01  0.10185492961E+01 0.  0.
     999903    2    3    3    0    0  0.27825375034E-01 -0.11747061920E-01  0.12457152102E+00  0.12993130153E+00  0.21256394546E-01 0.  0.
         14    1    1    2    0    0  0.13958049788E-01  0.19839584624E-01 -0.63385588674E-02  0.25072167845E-01  0.00000000000E+00 0. -1.
     999901    1    3    3    0    0 -0.41783424822E-01 -0.80925227044E-02 -0.11823296215E+00  0.88892653063E+00  0.88000000000E+00 0. -1.
        -11    1    4    4    0    0 -0.29197017884E-03 -0.59817780805E-02  0.88211843806E-02  0.10674330446E-01  0.51100000000E-03 0.  1.
         11    1    4    4    0    0  0.28117345213E-01 -0.57652838391E-02  0.11575033664E+00  0.11925697108E+00  0.51100000000E-03 0. -1.
</event>
<event>
 8    1  0.1051655E+005  0.1043930E+01  0.7957747E-01            NaN
         13   -1    0    0    0    0  0.00000000000E+00  0.00000000000E+00  0.74505805969E-08  0.10566000000E+00  0.10566000000E+00 0. -1.
     999900   -1    0    0    0    0 -0.00000000000E+00 -0.00000000000E+00 -0.74505805969E-08  0.93827000000E+00  0.93827000000E+00 0. -1.
     999902    2    1    2    0    0  0.20666193087E-01  0.12068638466E-01 -0.80744166212E-03  0.10199843212E+01  0.10197032019E+01 0.  0.
     999903    2    3    3    0    0  0.11478899250E-01 -0.33407515702E-01  0.12349560218E+00  0.13003840505E+00  0.20273031263E-01 0.  0.
         14    1    1    2    0    0 -0.20666193087E-01 -0.12068638466E-01  0.80744166212E-03  0.23945678799E-01  0.00000000000E+00 0.  1.
     999901    1    3    3    0    0  0.91872938375E-02  0.45476154168E-01 -0.12430304384E+00  0.88994591615E+00  0.88000000000E+00 0.  1.
        -11    1    4    4    0    0  0.15423357128E-01 -0.18906949040E-01  0.59720422088E-01  0.64514669668E-01  0.51100000000E-03 0.  1.
         11    1    4    4    0    0 -0.39444578780E-02 -0.14500566662E-01  0.63775180092E-01  0.65523735381E-01  0.51100000000E-03 0. -1.
</event>
<event>
 8    1  0.1051655E+005  0.1043930E+01  0.7957747E-01            NaN
         13   -1    0    0    0    0  0.00000000000E+00  0.00000000000E+00  0.74505805969E-08  0.10566000000E+00  0.10566000000E+00 0.  1.
     999900   -1    0    0    0    0 -0.00000000000E+00 -0.00000000000E+00 -0.74505805969E-08  0.93827000000E+00  0.93827000000E+00 0. -1.
     999902    2    1    2    0    0  0.54319063768E-02 -0.22953756167E-01 -0.15969616108E-02  0.10202882823E+01  0.10200143373E+01 0.  0.
     999903    2    3    3    0    0 -0.10494991729E+00  0.70276923496E-01 -0.12170761756E-01  0.12844305365E+00  0.19903755265E-01 0.  0.
         14    1    1    2    0    0 -0.54319063768E-02  0.22953756167E-01  0.15969616108E-02  0.23641717692E-01  0.00000000000E+00 0.  1.
     999901    1    3    3    0    0  0.11038182367E+00 -0.93230679662E-01  0.10573800145E-01  0.89184522866E+00  0.88000000000E+00 0. -1.
        -11    1    4    4    0    0 -0.18154390751E-01  0.51375642821E-02 -0.57557632192E-02  0.19732369385E-01  0.51100000000E-03 0. -1.
         11    1    4    4    0    0 -0.86795526543E-01  0.65139359214E-01 -0.64149985369E-02  0.10871068427E+00  0.51100000000E-03 0.  1.
</event>
<event>
 8    1  0.1051655E+005  0.1043930E+01  0.7957747E-01            NaN
         13   -1    0    0    0    0  0.00000000000E+00  0.00000000000E+00  0.74505805969E-08  0.10566000000E+00  0.10566000000E+00 0.  1.
     999900   -1    0    0    0    0 -0.00000000000E+00 -0.00000000000E+00 -0.74505805969E-08  0.93827000000E+00  0.93827000000E+00 0. -1.
     999902    2    1    2    0    0  0.15335263128E-01  0.11456798352E-01  0.14286231340E-01  0.10200443363E+01  0.10197646410E+01 0.  0.
     999903    2    3    3    0    0  0.94106758266E-01  0.18542566164E-01  0.90299959448E-01  0.13323362178E+00  0.19930042296E-01 0.  0.
         14    1    1    2    0    0 -0.15335263128E-01 -0.11456798352E-01 -0.14286231340E-01  0.23885663683E-01  0.00000000000E+00 0. -1.
     999901    1    3    3    0    0 -0.78771495138E-01 -0.70857678121E-02 -0.76013728108E-01  0.88681071453E+00  0.88000000000E+00 0. -1.
        -11    1    4    4    0    0  0.34108871075E-01  0.42235159312E-02  0.20246939540E-01  0.39893017617E-01  0.51100000000E-03 0.  1.
         11    1    4    4    0    0  0.59997887191E-01  0.14319050233E-01  0.70053019908E-01  0.93340604166E-01  0.51100000000E-03 0. -1.
</event>
<event>
 8    1  0.1051655E+005  0.1043930E+01  0.7957747E-01            NaN
         13   -1    0    0    0    0  0.00000000000E+00  0.00000000000E+00  0.74505805969E-08  0.10566000000E+00  0.10566000000E+00 0. -1.
     999900   -1    0    0    0    0 -0.00000000000E+00 -0.00000000000E+00 -0.74505805969E-08  0.93827000000E+00  0.93827000000E+00 0.  1.
     999902    2    1    2    0    0  0.20337729240E-01 -0.12370958843E-01  0.87650060597E-03  0.10201091665E+01  0.10198310054E+01 0.  0.
     999903    2    3    3    0    0 -0.67627946446E-01 -0.68813282247E-01 -0.85312585329E-01  0.12974280683E+00  0.15689224166E-01 0.  0.
         14    1    1    2    0    0 -0.20337729240E-01  0.12370958843E-01 -0.87650060597E-03  0.23820833458E-01  0.00000000000E+00 0.  1.
     999901    1    3    3    0    0  0.87965675686E-01  0.56442323404E-01  0.86189085934E-01  0.89036635971E+00  0.88000000000E+00 0. -1.
        -11    1    4    4    0    0 -0.51023164986E-01 -0.41524222904E-01 -0.58480960732E-01  0.88022203688E-01  0.51100000000E-03 0.  1.
         11    1    4    4    0    0 -0.16604781460E-01 -0.27289059343E-01 -0.26831624597E-01  0.41720603143E-01  0.51100000000E-03 0. -1.
</event>
<event>
 8    1  0.1051655E+005  0.1043930E+01  0.7957747E-01            NaN
         13   -1    0    0    0    0  0.00000000000E+00  0.00000000000E+00  0.74505805969E-08  0.10566000000E+00  0.10566000000E+00 0. -1.
     999900   -1    0    0    0    0 -0.00000000000E+00 -0.00000000000E+00 -0.74505805969E-08  0.93827000000E+00  0.93827000000E+00 0. -1.
     999902    2    1    2    0    0 -0.12337877302E-01 -0.32440422254E-02  0.21491518907E-01  0.10189373529E+01  0.10186307951E+01 0.  0.
     999903    2    3    3    0    0  0.10593300290E+00  0.41053287554E-01 -0.52536184831E-01  0.12684410916E+00  0.20547598132E-01 0.  0.
         14    1    1    2    0    0  0.12337877302E-01  0.32440422254E-02 -0.21491518907E-01  0.24992647143E-01  0.00000000000E+00 0.  1.
     999901    1    3    3    0    0 -0.11827088020E+00 -0.44297329779E-01  0.74027703738E-01  0.89209324370E+00  0.88000000000E+00 0.  1.
        -11    1    4    4    0    0  0.86607669393E-01  0.41367403896E-01 -0.45995894517E-01  0.10643323699E+00  0.51100000000E-03 0.  1.
         11    1    4    4    0    0  0.19325333510E-01 -0.31411634215E-03 -0.65402903135E-02  0.20410872169E-01  0.51100000000E-03 0. -1.
</event>
<event>
 8    1  0.1051655E+005  0.1043930E+01  0.7957747E-01            NaN
         13   -1    0    0    0    0  0.00000000000E+00  0.00000000000E+00  0.74505805969E-08  0.10566000000E+00  0.10566000000E+00 0. -1.
     999900   -1    0    0    0    0 -0.00000000000E+00 -0.00000000000E+00 -0.74505805969E-08  0.93827000000E+00  0.93827000000E+00 0. -1.
     999902    2    1    2    0    0  0.65755484773E-02 -0.66359005167E-02  0.21526557843E-01  0.10204637326E+01  0.10201938854E+01 0.  0.
     999903    2    3    3    0    0 -0.83457652065E-01 -0.98482925039E-01  0.10650972723E-01  0.13104812026E+00  0.19902270998E-01 0.  0.
         14    1    1    2    0    0 -0.65755484773E-02  0.66359005167E-02 -0.21526557843E-01  0.23466267407E-01  0.00000000000E+00 0.  1.
     999901    1    3    3    0    0  0.90033200542E-01  0.91847024522E-01  0.10875585120E-01  0.88941561233E+00  0.88000000000E+00 0.  1.
        -11    1    4    4    0    0 -0.40054909622E-01 -0.62452631338E-01  0.53499016346E-02  0.74388235053E-01  0.51100000000E-03 0.  1.
         11    1    4    4    0    0 -0.43402742443E-01 -0.36030293701E-01  0.53010710886E-02  0.56659885205E-01  0.51100000000E-03 0. -1.
</event>
<event>
 8    1  0.1051655E+005  0.1043930E+01  0.7957747E-01            NaN
         13   -1    0    0    0    0  0.00000000000E+00  0.00000000000E+00  0.74505805969E-08  0.10566000000E+00  0.10566000000E+00 0. -1.
     999900   -1    0    0    0    0 -0.00000000000E+00 -0.00000000000E+00 -0.74505805969E-08  0.93827000000E+00  0.93827000000E+00 0. -1.
     999902    2    1    2    0    0 -0.11246707046E-01  0.19595285502E-01 -0.45596923554E-02  0.10208810428E+01  0.10206208156E+01 0.  0.
     999903    2    3    3    0    0  0.88595646868E-01  0.81843357932E-01 -0.49415529592E-01  0.13191795905E+00  0.20320666143E-01 0.  0.
         14    1    1    2    0    0  0.11246707046E-01 -0.19595285502E-01  0.45596923554E-02  0.23048957192E-01  0.00000000000E+00 0.  1.
     999901    1    3    3    0    0 -0.99842353914E-01 -0.62248072430E-01  0.44855837237E-01  0.88896308376E+00  0.88000000000E+00 0.  1.
        -11    1    4    4    0    0  0.31914240657E-01  0.22835615994E-01 -0.73971870482E-02  0.39936995528E-01  0.51100000000E-03 0. -1.
         11    1    4    4    0    0  0.56681406211E-01  0.59007741938E-01 -0.42018342544E-01  0.91980963518E-01  0.51100000000E-03 0.  1.
</event>
<event>
 8    1  0.1051655E+005  0.1043930E+01  0.7957747E-01            NaN
         13   -1    0    0    0    0  0.00000000000E+00  0.00000000000E+00  0.74505805969E-08  0.10566000000E+00  0.10566000000E+00 0.  1.
     999900   -1    0    0    0    0 -0.00000000000E+00 -0.00000000000E+00 -0.74505805969E-08  0.93827000000E+00  0.93827000000E+00 0.  1.
     999902    2    1    2    0    0 -0.17073788885E-02  0.14161181943E-01 -0.20070146302E-01  0.10193075511E+01  0.10190101171E+01 0.  0.
     999903    2    3    3    0    0  0.20673911338E-01 -0.12501109440E+00 -0.40623953522E-02  0.12794561971E+00  0.17274090872E-01 0.  0.
         14    1    1    2    0    0  0.17073788885E-02 -0.14161181943E-01  0.20070146302E-01  0.24622448888E-01  0.00000000000E+00 0. -1.
     999901    1    3    3    0    0 -0.22381290226E-01  0.13917227634E+00 -0.16007750950E-01  0.89136193140E+00  0.88000000000E+00 0.  1.
        -11    1    4    4    0    0  0.15742346648E-01 -0.48392527263E-01 -0.52184478901E-02  0.51158102900E-01  0.51100000000E-03 0. -1.
         11    1    4    4    0    0  0.49315646896E-02 -0.76618567135E-01  0.11560525379E-02  0.76787516815E-01  0.51100000000E-03 0.  1.
</event>
<event>
 8    1  0.1051655E+005  0.1043930E+01  0.7957747E-01            NaN
         13   -1    0    0    0    0  0.00000000000E+00  0.00000000000E+00  0.74505805969E-08  0.10566000000E+00  0.10566000000E+00 0. -1.
     999900   -1    0    0    0    0 -0.00000000000E+00 -0.00000000000E+00 -0.74505805969E-08  0.93827000000E+00  0.93827000000E+00 0.  1.
     999902    2    1    2    0    0  0.76553252082E-02  0.21291493460E-01  0.30889335200E-02  0.10210942121E+01  0.10208388300E+01 0.  0.
     999903    2    3    3    0    0  0.79382767851E-02  0.13164189023E+00 -0.11909114329E-01  0.13407547975E+00  0.21019128534E-01 0.  0.
         14    1    1    2    0    0 -0.76553252082E-02 -0.21291493460E-01 -0.30889335200E-02  0.22835787880E-01  0.00000000000E+00 0.  1.
     999901    1    3    3    0    0 -0.28295157691E-03 -0.11035039677E+00  0.14998047849E-01  0.88701873237E+00  0.88000000000E+00 0. -1.
        -11    1    4    4    0    0  0.49376353637E-03  0.29094556799E-01 -0.11398389864E-01  0.31255742676E-01  0.51100000000E-03 0.  1.
         11    1    4    4    0    0  0.74445132487E-02  0.10254733344E+00 -0.51072446528E-03  0.10281973708E+00  0.51100000000E-03 0. -1.
</event>
<event>
 8    1  0.1051655E+005  0.1043930E+01  0.7957747E-01            NaN
         13   -1    0    0    0    0  0.00000000000E+00  0.00000000000E+00  0.74505805969E-08  0.10566000000E+00  0.10566000000E+00 0.  1.
     999900   -1    0    0    0    0 -0.00000000000E+00 -0.00000000000E+00 -0.74505805969E-08  0.93827000000E+00  0.93827000000E+00 0.  1.
     999902    2    1    2    0    0  0.15050473232E-01  0.93601163888E-02 -0.15818164992E-01  0.10201740983E+01  0.10198974693E+01 0.  0.
     999903    2    3    3    0    0 -0.62857526840E-01  0.10153447521E+00  0.46480453776E-01  0.12975459781E+00  0.20383933196E-01 0.  0.
         14    1    1    2    0    0 -0.15050473232E-01 -0.93601163888E-02  0.15818164992E-01  0.23755901730E-01  0.00000000000E+00 0.  1.
     999901    1    3    3    0    0  0.77908000072E-01 -0.92174358823E-01 -0.62298618767E-01  0.89041950046E+00  0.88000000000E+00 0.  1.
        -11    1    4    4    0    0 -0.62120361934E-01  0.91264933009E-01  0.39283579500E-01  0.11718228579E+00  0.51100000000E-03 0. -1.
         11    1    4    4    0    0 -0.73716490672E-03  0.10269542202E-01  0.71968742753E-02  0.12572312018E-01  0.51100000000E-03 0.  1.
</event>
<event>
 8    1  0.1163675E+005  0.1043930E+01  0.7957747E-01            NaN
         13   -1    0    0    0    0  0.00000000000E+00  0.00000000000E+00  0.74505805969E-08  0.10566000000E+00  0.10566000000E+00 0. -1.
     999900   -1    0    0    0    0 -0.00000000000E+00 -0.00000000000E+00 -0.74505805969E-08  0.93827000000E+00  0.93827000000E+00 0.  1.
     999902    2    1    2    0    0  0.23182998255E-01 -0.51611726257E-02  0.22024046310E-02  0.10200775432E+01  0.10197986342E+01 0.  0.
     999903    2    3    3    0    0 -0.12165763842E+00  0.22940577462E-01  0.23185683638E-01  0.12754809469E+00  0.20101976338E-01 0.  0.
         14    1    1    2    0    0 -0.23182998255E-01  0.51611726257E-02 -0.22024046310E-02  0.23852456836E-01  0.00000000000E+00 0.  1.
     999901    1    3    3    0    0  0.14484063668E+00 -0.28101750088E-01 -0.20983279007E-01  0.89252944847E+00  0.88000000000E+00 0.  1.
        -11    1    4    4    0    0 -0.81237540115E-01  0.23635171342E-01  0.20344602005E-01  0.87019096755E-01  0.51100000000E-03 0.  1.
         11    1    4    4    0    0 -0.40420098309E-01 -0.69459387993E-03  0.28410816328E-02  0.40528997937E-01  0.51100000000E-03 0. -1.
</event>
<event>
 8    1  0.1051655E+005  0.1043930E+01  0.7957747E-01            NaN
         13   -1    0    0    0    0  0.00000000000E+00  0.00000000000E+00  0.74505805969E-08  0.10566000000E+00  0.10566000000E+00 0.  1.
     999900   -1    0    0    0    0 -0.00000000000E+00 -0.00000000000E+00 -0.74505805969E-08  0.93827000000E+00  0.93827000000E+00 0. -1.
     999902    2    1    2    0    0 -0.12263756386E-01  0.16835196451E-01 -0.97293136383E-02  0.10209412396E+01  0.10206823853E+01 0.  0.
     999903    2    3    3    0    0 -0.15458290746E-01 -0.59277337937E-01 -0.11472557929E+00  0.13143152143E+00  0.18961137524E-01 0.  0.
         14    1    1    2    0    0  0.12263756386E-01 -0.16835196451E-01  0.97293136383E-02  0.22988760387E-01  0.00000000000E+00 0.  1.
     999901    1    3    3    0    0  0.31945343604E-02  0.76112534389E-01  0.10499626565E+00  0.88950971818E+00  0.88000000000E+00 0.  1.
        -11    1    4    4    0    0 -0.12517208689E-01 -0.21714377620E-01 -0.59602262889E-01  0.64659767795E-01  0.51100000000E-03 0. -1.
         11    1    4    4    0    0 -0.29410820573E-02 -0.37562960317E-01 -0.55123316402E-01  0.66771753636E-01  0.51100000000E-03 0.  1.
</event>
<event>
 8    1  0.1051655E+005  0.1043930E+01  0.7957747E-01            NaN
         13   -1    0    0    0    0  0.00000000000E+00  0.00000000000E+00  0.74505805969E-08  0.10566000000E+00  0.10566000000E+00 0.  1.
     999900   -1    0    0    0    0 -0.00000000000E+00 -0.00000000000E+00 -0.74505805969E-08  0.93827000000E+00  0.93827000000E+00 0.  1.
     999902    2    1    2    0    0 -0.80696056374E-02 -0.15279309275E-01  0.17122538570E-01  0.10196039408E+01  0.10193137098E+01 0.  0.
     999903    2    3    3    0    0  0.15278883753E-01 -0.11625731873E+00  0.58553407717E-01  0.13255364505E+00  0.19818143527E-01 0.  0.
         14    1    1    2    0    0  0.80696056374E-02  0.15279309275E-01 -0.17122538570E-01  0.24326059158E-01  0.00000000000E+00 0.  1.
     999901    1    3    3    0    0 -0.23348489390E-01  0.10097800946E+00 -0.41430869147E-01  0.88705029579E+00  0.88000000000E+00 0.  1.
        -11    1    4    4    0    0  0.15779624759E-01 -0.99361880840E-01  0.42433441910E-01  0.10919083311E+00  0.51100000000E-03 0.  1.
         11    1    4    4    0    0 -0.50074100591E-03 -0.16895437891E-01  0.16119965807E-01  0.23362811939E-01  0.51100000000E-03 0. -1.
</event>
<event>
 8    1  0.1810272E+005  0.1043930E+01  0.7957747E-01            NaN
         13   -1    0    0    0    0  0.00000000000E+00  0.00000000000E+00  0.74505805969E-08  0.10566000000E+00  0.10566000000E+00 0. -1.
     999900   -1    0    0    0    0 -0.00000000000E+00 -0.00000000000E+00 -0.74505805969E-08  0.93827000000E+00  0.93827000000E+00 0.  1.
     999902    2    1    2    0    0  0.22340261296E-01 -0.54200835145E-02  0.36466330509E-02  0.10206542076E+01  0.10203887734E+01 0.  0.
     999903    2    3    3    0    0 -0.53310879934E-01 -0.10212265706E+00 -0.56949280442E-01  0.13006656584E+00  0.20074959552E-01 0.  0.
         14    1    1    2    0    0 -0.22340261296E-01  0.54200835145E-02 -0.36466330509E-02  0.23275792418E-01  0.00000000000E+00 0.  1.
     999901    1    3    3    0    0  0.75651141230E-01  0.96702573546E-01  0.60595913493E-01  0.89058764175E+00  0.88000000000E+00 0.  1.
        -11    1    4    4    0    0 -0.92670194823E-02 -0.36087149487E-01 -0.22567131236E-01  0.43562558940E-01  0.51100000000E-03 0. -1.
         11    1    4    4    0    0 -0.44043860452E-01 -0.66035507574E-01 -0.34382149205E-01  0.86504006896E-01  0.51100000000E-03 0.  1.
</event>
<event>
 8    1  0.1051655E+005  0.1043930E+01  0.7957747E-01            NaN
         13   -1    0    0    0    0  0.00000000000E+00  0.00000000000E+00  0.74505805969E-08  0.10566000000E+00  0.10566000000E+00 0.  1.
     999900   -1    0    0    0    0 -0.00000000000E+00 -0.00000000000E+00 -0.74505805969E-08  0.93827000000E+00  0.93827000000E+00 0. -1.
     999902    2    1    2    0    0 -0.25219535585E-02  0.20496742843E-01 -0.11302860587E-01  0.10203878808E+01  0.10201162659E+01 0.  0.
     999903    2    3    3    0    0 -0.11456889393E+00 -0.19383222103E-01 -0.57641972388E-01  0.13117910798E+00  0.19586235851E-01 0.  0.
         14    1    1    2    0    0  0.25219535585E-02 -0.20496742843E-01  0.11302860587E-01  0.23542119156E-01  0.00000000000E+00 0.  1.
     999901    1    3    3    0    0  0.11204694037E+00  0.39879964946E-01  0.46339111801E-01  0.88920877286E+00  0.88000000000E+00 0.  1.
        -11    1    4    4    0    0 -0.61600844184E-01 -0.42714179199E-02 -0.21918932592E-01  0.65525641868E-01  0.51100000000E-03 0.  1.
         11    1    4    4    0    0 -0.52968049746E-01 -0.15111804184E-01 -0.35723039796E-01  0.65653466114E-01  0.51100000000E-03 0. -1.
</event>
<event>
 8    1  0.1051655E+005  0.1043930E+01  0.7957747E-01            NaN
         13   -1    0    0    0    0  0.00000000000E+00  0.00000000000E+00  0.74505805969E-08  0.10566000000E+00  0.10566000000E+00 0. -1.
     999900   -1    0    0    0    0 -0.00000000000E+00 -0.00000000000E+00 -0.74505805969E-08  0.93827000000E+00  0.93827000000E+00 0. -1.
     999902    2    1    2    0    0  0.18261690681E-01 -0.67676552617E-02  0.15207728746E-01  0.10192203760E+01  0.10189208062E+01 0.  0.
     999903    2    3    3    0    0 -0.68957433398E-01 -0.40276402486E-01  0.10036879455E+00  0.13018583288E+00  0.22296635275E-01 0.  0.
         14    1    1    2    0    0 -0.18261690681E-01  0.67676552617E-02 -0.15207728746E-01  0.24709623993E-01  0.00000000000E+00 0.  1.
     999901    1    3    3    0    0  0.87219124079E-01  0.33508747224E-01 -0.85161065804E-01  0.88903454313E+00  0.88000000000E+00 0. -1.
        -11    1    4    4    0    0 -0.79174406932E-02 -0.13224994939E-01  0.26109260618E-01  0.30323933935E-01  0.51100000000E-03 0.  1.
         11    1    4    4    0    0 -0.61039992705E-01 -0.27051407547E-01  0.74259533933E-01  0.99861898943E-01  0.51100000000E-03 0. -1.
</event>
<event>
 8    1  0.1051655E+005  0.1043930E+01  0.7957747E-01            NaN
         13   -1    0    0    0    0  0.00000000000E+00  0.00000000000E+00  0.74505805969E-08  0.10566000000E+00  0.10566000000E+00 0.  1.
     999900   -1    0    0    0    0 -0.00000000000E+00 -0.00000000000E+00 -0.74505805969E-08  0.93827000000E+00  0.93827000000E+00 0. -1.
     999902    2    1    2    0    0  0.11731895304E-01  0.14117101244E-01 -0.15775485346E-01  0.10197267801E+01  0.10194395079E+01 0.  0.
     999903    2    3    3    0    0  0.10150318872E-01  0.72737484598E-01  0.10488281474E+00  0.12955978673E+00  0.19787947645E-01 0.  0.
         14    1    1    2    0    0 -0.11731895304E-01 -0.14117101244E-01  0.15775485346E-01  0.24203219886E-01  0.00000000000E+00 0.  1.
     999901    1    3    3    0    0  0.15815764328E-02 -0.58620383353E-01 -0.12065830008E+00  0.89016699338E+00  0.88000000000E+00 0. -1.
        -11    1    4    4    0    0  0.15118981104E-01  0.39868340311E-01  0.54571041387E-01  0.69255525612E-01  0.51100000000E-03 0. -1.
         11    1    4    4    0    0 -0.49686622328E-02  0.32869144287E-01  0.50311773350E-01  0.60304261119E-01  0.51100000000E-03 0.  1.
</event>
<event>
 8    1  0.1051655E+005  0.1043930E+01  0.7957747E-01            NaN
         13   -1    0    0    0    0  0.00000000000E+00  0.00000000000E+00  0.74505805969E-08  0.10566000000E+00  0.10566000000E+00 0.  1.
     999900   -1    0    0    0    0 -0.00000000000E+00 -0.00000000000E+00 -0.74505805969E-08  0.93827000000E+00  0.93827000000E+00 0. -1.
     999902    2    1    2    0    0  0.34965685369E-03  0.23867198136E-01 -0.51263550933E-02  0.10195159687E+01  0.10192236092E+01 0.  0.
     999903    2    3    3    0    0  0.10641509924E+00  0.61682829571E-01  0.40902949151E-01  0.13114746585E+00  0.19941457786E-01 0.  0.
         14    1    1    2    0    0 -0.34965685369E-03 -0.23867198136E-01  0.51263550933E-02  0.24414031280E-01  0.00000000000E+00 0. -1.
     999901    1    3    3    0    0 -0.10606544239E+00 -0.37815631434E-01 -0.46029304244E-01  0.88836850287E+00  0.88000000000E+00 0. -1.
        -11    1    4    4    0    0  0.44073837732E-01  0.17576629459E-01  0.85833490561E-02  0.48222153390E-01  0.51100000000E-03 0.  1.
         11    1    4    4    0    0  0.62341261508E-01  0.44106200111E-01  0.32319600095E-01  0.82925312456E-01  0.51100000000E-03 0. -1.
</event>
<event>
 8    1  0.1051655E+005  0.1043930E+01  0.7957747E-01            NaN
         13   -1    0    0    0    0  0.00000000000E+00  0.00000000000E+00  0.74505805969E-08  0.10566000000E+00  0.10566000000E+00 0.  1.
     999900   -1    0    0    0    0 -0.00000000000E+00 -0.00000000000E+00 -0.74505805969E-08  0.93827000000E+00  0.93827000000E+00 0. -1.
     999902    2    1    2    0    0  0.28043376145E-01  0.90346907167E-02 -0.70009105954E-02  0.10136468474E+01  0.10131943851E+01 0.  0.
     999903    2    3    3    0    0  0.11801754191E+00 -0.22178142378E-01 -0.38214341283E-01  0.12795848815E+00  0.22204247630E-01 0.  0.
         14    1    1    2    0    0 -0.28043376145E-01 -0.90346907167E-02  0.70009105954E-02  0.30283152596E-01  0.00000000000E+00 0.  1.
     999901    1    3    3    0    0 -0.89974165766E-01  0.31212833095E-01  0.31213430688E-01  0.88568835925E+00  0.88000000000E+00 0.  1.
        -11    1    4    4    0    0  0.91909055264E-01 -0.92964141174E-02 -0.34469546542E-01  0.98600753114E-01  0.51100000000E-03 0. -1.
         11    1    4    4    0    0  0.26108486648E-01 -0.12881728260E-01 -0.37447947417E-02  0.29357735040E-01  0.51100000000E-03 0.  1.
</event>
<event>
 8    1  0.1051655E+005  0.1043930E+01  0.7957747E-01            NaN
         13   -1    0    0    0    0  0.00000000000E+00  0.00000000000E+00  0.74505805969E-08  0.10566000000E+00  0.10566000000E+00 0. -1.
     999900   -1    0    0    0    0 -0.00000000000E+00 -0.00000000000E+00 -0.74505805969E-08  0.93827000000E+00  0.93827000000E+00 0.  1.
     999902    2    1    2    0    0  0.14919006735E-01  0.97208272012E-02  0.15260371511E-01  0.10204789833E+01  0.10202094909E+01 0.  0.
     999903    2    3    3    0    0 -0.61772402473E-01  0.96981948185E-01 -0.56676685575E-01  0.12993363601E+00  0.21193751388E-01 0.  0.
         14    1    1    2    0    0 -0.14919006735E-01 -0.97208272012E-02 -0.15260371511E-01  0.23451016654E-01  0.00000000000E+00 0.  1.
     999901    1    3    3    0    0  0.76691409208E-01 -0.87261120983E-01  0.71937057085E-01  0.89054534734E+00  0.88000000000E+00 0. -1.
        -11    1    4    4    0    0 -0.22370396792E-01  0.53629881338E-01 -0.32255281304E-01  0.66462494070E-01  0.51100000000E-03 0.  1.
         11    1    4    4    0    0 -0.39402005681E-01  0.43352066846E-01 -0.24421404271E-01  0.63471141939E-01  0.51100000000E-03 0. -1.
</event>
<event>
 7    1  0.1051655E+005  0.1043930E+01  0.7957747E-01            NaN
         13   -1    0    0    0    0  0.00000000000E+00  0.00000000000E+00  0.74505805969E-08  0.10566000000E+00  0.10566000000E+00 0.  1.
     999900   -1    0    0    0    0 -0.00000000000E+00 -0.00000000000E+00 -0.74505805969E-08  0.93827000000E+00  0.93827000000E+00 0. -1.
     999903    2    1    2    0    0  0.10970050597E-01 -0.14315678490E-01 -0.91972171163E-01  0.95981269138E-01  0.20694035281E-01 0.  0.
         14    1    1    2    0    0  0.52549847797E-01 -0.47521707662E-02 -0.23814947372E-01  0.57889734399E-01  0.00000000000E+00 0.  1.
     999901    1    1    2    0    0 -0.63519898394E-01  0.19067849256E-01  0.11578711853E+00  0.89005899646E+00  0.88000000000E+00 0.  1.
        -11    1    3    3    0    0  0.55856082813E-02 -0.19285475729E-01 -0.65664793244E-01  0.68667712841E-01  0.51100000000E-03 0.  1.
         11    1    3    3    0    0  0.53844423158E-02  0.49697972394E-02 -0.26307377919E-01  0.27313556297E-01  0.51100000000E-03 0. -1.
</event>
<event>
 8    1  0.1051655E+005  0.1043930E+01  0.7957747E-01            NaN
         13   -1    0    0    0    0  0.00000000000E+00  0.00000000000E+00  0.74505805969E-08  0.10566000000E+00  0.10566000000E+00 0.  1.
     999900   -1    0    0    0    0 -0.00000000000E+00 -0.00000000000E+00 -0.74505805969E-08  0.93827000000E+00  0.93827000000E+00 0. -1.
     999902    2    1    2    0    0  0.82775725939E-02  0.14132207149E-01 -0.17243733166E-01  0.10201479938E+01  0.10198707493E+01 0.  0.
     999903    2    3    3    0    0 -0.97941281971E-01 -0.38999784141E-01 -0.75358554277E-01  0.13027003247E+00  0.13337607756E-01 0.  0.
         14    1    1    2    0    0 -0.82775725939E-02 -0.14132207149E-01  0.17243733166E-01  0.23782006233E-01  0.00000000000E+00 0.  1.
     999901    1    3    3    0    0  0.10621885457E+00  0.53131991291E-01  0.58114821110E-01  0.88987796129E+00  0.88000000000E+00 0. -1.
        -11    1    4    4    0    0 -0.26698830641E-01 -0.11304321610E-01 -0.13739884569E-01  0.32088327997E-01  0.51100000000E-03 0.  1.
         11    1    4    4    0    0 -0.71242451330E-01 -0.27695462531E-01 -0.61618669707E-01  0.98181704476E-01  0.51100000000E-03 0. -1.
</event>
<event>
 8    1  0.1051655E+005  0.1043930E+01  0.7957747E-01            NaN
         13   -1    0    0    0    0  0.00000000000E+00  0.00000000000E+00  0.74505805969E-08  0.10566000000E+00  0.10566000000E+00 0.  1.
     999900   -1    0    0    0    0 -0.00000000000E+00 -0.00000000000E+00 -0.74505805969E-08  0.93827000000E+00  0.93827000000E+00 0.  1.
     999902    2    1    2    0    0 -0.96931950575E-02 -0.22560300019E-01 -0.36373866878E-03  0.10193727715E+01  0.10190769302E+01 0.  0.
     999903    2    3    3    0    0 -0.50328663038E-02  0.12047766090E+00  0.35135986187E-01  0.12710498241E+00  0.19517748518E-01 0.  0.
         14    1    1    2    0    0  0.96931950575E-02  0.22560300019E-01  0.36373866878E-03  0.24557228532E-01  0.00000000000E+00 0.  1.
     999901    1    3    3    0    0 -0.46603287537E-02 -0.14303796092E+00 -0.35499724855E-01  0.89226778906E+00  0.88000000000E+00 0.  1.
        -11    1    4    4    0    0 -0.21211871971E-02  0.60605187144E-01  0.75357629825E-02  0.61110858189E-01  0.51100000000E-03 0. -1.
         11    1    4    4    0    0 -0.29116791067E-02  0.59872473761E-01  0.27600223204E-01  0.65994124219E-01  0.51100000000E-03 0.  1.
</event>
<event>
 8    1  0.1051655E+005  0.1043930E+01  0.7957747E-01            NaN
         13   -1    0    0    0    0  0.00000000000E+00  0.00000000000E+00  0.74505805969E-08  0.10566000000E+00  0.10566000000E+00 0. -1.
     999900   -1    0    0    0    0 -0.00000000000E+00 -0.00000000000E+00 -0.74505805969E-08  0.93827000000E+00  0.93827000000E+00 0. -1.
     999902    2    1    2    0    0  0.27974170410E-02 -0.22247025483E-01 -0.79980151334E-02  0.10201240358E+01  0.10198462259E+01 0.  0.
     999903    2    3    3    0    0  0.82285459743E-02 -0.10171057440E+00  0.81288513856E-01  0.13202717340E+00  0.20263319488E-01 0.  0.
         14    1    1    2    0    0 -0.27974170410E-02  0.22247025483E-01  0.79980151334E-02  0.23805964190E-01  0.00000000000E+00 0. -1.
     999901    1    3    3    0    0 -0.54311289333E-02  0.79463548918E-01 -0.89286528989E-01  0.88809686241E+00  0.88000000000E+00 0. -1.
        -11    1    4    4    0    0  0.71812647147E-02 -0.46113812885E-01  0.49237749221E-01  0.67842990582E-01  0.51100000000E-03 0.  1.
         11    1    4    4    0    0  0.10472812596E-02 -0.55596761516E-01  0.32050764635E-01  0.64184182816E-01  0.51100000000E-03 0. -1.
</event>
<event>
 8    1  0.1051655E+005  0.1043930E+01  0.7957747E-01            NaN
         13   -1    0    0    0    0  0.00000000000E+00  0.00000000000E+00  0.74505805969E-08  0.10566000000E+00  0.10566000000E+00 0. -1.
     999900   -1    0    0    0    0 -0.00000000000E+00 -0.00000000000E+00 -0.74505805969E-08  0.93827000000E+00  0.93827000000E+00 0.  1.
     999902    2    1    2    0    0 -0.72433103763E-02  0.97153495971E-02  0.21581738165E-01  0.10191787377E+01  0.10188781450E+01 0.  0.
     999903    2    3    3    0    0  0.82710240396E-01 -0.94247375092E-01 -0.12085436011E-01  0.12786882076E+00  0.21927744564E-01 0.  0.
         14    1    1    2    0    0  0.72433103763E-02 -0.97153495971E-02 -0.21581738165E-01  0.24751262295E-01  0.00000000000E+00 0.  1.
     999901    1    3    3    0    0 -0.89953550773E-01  0.10396272469E+00  0.33667174176E-01  0.89130991694E+00  0.88000000000E+00 0.  1.
        -11    1    4    4    0    0  0.21394815963E-01 -0.14039035065E-01 -0.80339952317E-02  0.26826085365E-01  0.51100000000E-03 0.  1.
         11    1    4    4    0    0  0.61315424434E-01 -0.80208340027E-01 -0.40514407798E-02  0.10104273540E+00  0.51100000000E-03 0. -1.
</event>
<event>
 8    1  0.1051655E+005  0.1043930E+01  0.7957747E-01            NaN
         13   -1    0    0    0    0  0.00000000000E+00  0.00000000000E+00  0.74505805969E-08  0.10566000000E+00  0.10566000000E+00 0.  1.
     999900   -1    0    0    0    0 -0.00000000000E+00 -0.00000000000E+00 -0.74505805969E-08  0.93827000000E+00  0.93827000000E+00 0.  1.
     999902    2    1    2    0    0 -0.93157472444E-02 -0.20833816734E-01  0.57322255378E-02  0.10203993928E+01  0.10201280465E+01 0.  0.
     999903    2    3    3    0    0 -0.36049307467E-01  0.12157961888E+00 -0.68236716797E-02  0.12846109871E+00  0.19352909098E-01 0.  0.
         14    1    1    2    0    0  0.93157472444E-02  0.20833816734E-01 -0.57322255378E-02  0.23530607218E-01  0.00000000000E+00 0.  1.
     999901    1    3    3    0    0  0.26733560223E-01 -0.14241343561E+00  0.12555897217E-01  0.89193829408E+00  0.88000000000E+00 0. -1.
        -11    1    4    4    0    0 -0.24222976681E-01  0.48777842674E-01 -0.48115969508E-02  0.54675800144E-01  0.51100000000E-03 0.  1.
         11    1    4    4    0    0 -0.11826330786E-01  0.72801776203E-01 -0.20120747289E-02  0.73785298562E-01  0.51100000000E-03 0. -1.
</event>
<event>
 8    1  0.1051655E+005  0.1043930E+01  0.7957747E-01            NaN
         13   -1    0    0    0    0  0.00000000000E+00  0.00000000000E+00  0.74505805969E-08  0.10566000000E+00  0.10566000000E+00 0.  1.
     999900   -1    0    0    0    0 -0.00000000000E+00 -0.00000000000E+00 -0.74505805969E-08  0.93827000000E+00  0.93827000000E+00 0.  1.
     999902    2    1    2    0    0  0.93744161206E-02 -0.88764937292E-02 -0.18859523026E-01  0.10210749474E+01  0.10208191294E+01 0.  0.
     999903    2    3    3    0    0 -0.20663078191E-02 -0.10860555134E+00  0.70193476984E-01  0.13090237322E+00  0.20220575964E-01 0.  0.
         14    1    1    2    0    0 -0.93744161206E-02  0.88764937292E-02  0.18859523026E-01  0.22855052555E-01  0.00000000000E+00 0.  1.
     999901    1    3    3    0    0  0.11440723940E-01  0.99729057613E-01 -0.89053000010E-01  0.89017257423E+00  0.88000000000E+00 0.  1.
        -11    1    4    4    0    0 -0.96084767258E-02 -0.38011964183E-01  0.20541218407E-01  0.44265505992E-01  0.51100000000E-03 0.  1.
         11    1    4    4    0    0  0.75421689067E-02 -0.70593587160E-01  0.49652258577E-01  0.86636867225E-01  0.51100000000E-03 0. -1.
</event>
<event>
 8    1  0.1051655E+005  0.1043930E+01  0.7957747E-01            NaN
         13   -1    0    0    0    0  0.00000000000E+00  0.00000000000E+00  0.74505805969E-08  0.10566000000E+00  0.10566000000E+00 0. -1.
     999900   -1    0    0    0    0 -0.00000000000E+00 -0.00000000000E+00 -0.74505805969E-08  0.93827000000E+00  0.93827000000E+00 0.  1.
     999902    2    1    2    0    0  0.42823180951E-02  0.11918971822E-01  0.19358022367E-01  0.10207970545E+01  0.10205349055E+01 0.  0.
     999903    2    3    3    0    0 -0.78288266407E-01  0.83003327387E-01  0.65253783250E-01  0.13289091763E+00  0.19578936254E-01 0.  0.
         14    1    1    2    0    0 -0.42823180951E-02 -0.11918971822E-01 -0.19358022367E-01  0.23132945500E-01  0.00000000000E+00 0.  1.
     999901    1    3    3    0    0  0.82570584502E-01 -0.71084355565E-01 -0.45895760883E-01  0.88790613687E+00  0.88000000000E+00 0. -1.
        -11    1    4    4    0    0 -0.59967074880E-01  0.50303969184E-01  0.44815132157E-01  0.90195324582E-01  0.51100000000E-03 0. -1.
         11    1    4    4    0    0 -0.18321191527E-01  0.32699358203E-01  0.20438651093E-01  0.42695593044E-01  0.51100000000E-03 0.  1.
</event>
<event>
 8    1  0.1205398E+005  0.1043930E+01  0.7957747E-01            NaN
         13   -1    0    0    0    0  0.00000000000E+00  0.00000000000E+00  0.74505805969E-08  0.10566000000E+00  0.10566000000E+00 0.  1.
     999900   -1    0    0    0    0 -0.00000000000E+00 -0.00000000000E+00 -0.74505805969E-08  0.93827000000E+00  0.93827000000E+00 0.  1.
     999902    2    1    2    0    0  0.19212151477E-01  0.11306801966E-01  0.27832986856E-02  0.10214645312E+01  0.10212174554E+01 0.  0.
     999903    2    3    3    0    0 -0.77167445366E-01  0.10334843558E+00 -0.14116792813E-01  0.13127000076E+00  0.19920228393E-01 0.  0.
         14    1    1    2    0    0 -0.19212151477E-01 -0.11306801966E-01 -0.27832986856E-02  0.22465468761E-01  0.00000000000E+00 0.  1.
     999901    1    3    3    0    0  0.96379596844E-01 -0.92041633610E-01  0.16900091498E-01  0.89019453048E+00  0.88000000000E+00 0.  1.
        -11    1    4    4    0    0 -0.21686998928E-01  0.44828875321E-01 -0.74276400793E-02  0.50352606121E-01  0.51100000000E-03 0. -1.
         11    1    4    4    0    0 -0.55480446439E-01  0.58519560255E-01 -0.66891527332E-02  0.80917394637E-01  0.51100000000E-03 0.  1.
</event>
<event>
 8    1  0.1051655E+005  0.1043930E+01  0.7957747E-01            NaN
         13   -1    0    0    0    0  0.00000000000E+00  0.00000000000E+00  0.74505805969E-08  0.10566000000E+00  0.10566000000E+00 0. -1.
     999900   -1    0    0    0    0 -0.00000000000E+00 -0.00000000000E+00 -0.74505805969E-08  0.93827000000E+00  0.93827000000E+00 0.  1.
     999902    2    1    2    0    0  0.16935816127E-01 -0.14081945688E-01  0.10760631198E-01  0.10194164477E+01  0.10191216707E+01 0.  0.
     999903    2    3    3    0    0 -0.10070808395E+00  0.70168191038E-01  0.28614951051E-01  0.12742039979E+00  0.18746990457E-01 0.  0.
         14    1    1    2    0    0 -0.16935816127E-01  0.14081945688E-01 -0.10760631198E-01  0.24513552293E-01  0.00000000000E+00 0. -1.
     999901    1    3    3    0    0  0.11764390008E+00 -0.84250136726E-01 -0.17854319853E-01  0.89199604792E+00  0.88000000000E+00 0. -1.
        -11    1    4    4    0    0 -0.69578611851E-01  0.39016981413E-01  0.13831856375E-01  0.80963506826E-01  0.51100000000E-03 0. -1.
         11    1    4    4    0    0 -0.31129472103E-01  0.31151209625E-01  0.14783094676E-01  0.46456892963E-01  0.51100000000E-03 0.  1.
</event>
<event>
 8    1  0.1051655E+005  0.1043930E+01  0.7957747E-01            NaN
         13   -1    0    0    0    0  0.00000000000E+00  0.00000000000E+00  0.74505805969E-08  0.10566000000E+00  0.10566000000E+00 0.  1.
     999900   -1    0    0    0    0 -0.00000000000E+00 -0.00000000000E+00 -0.74505805969E-08  0.93827000000E+00  0.93827000000E+00 0.  1.
     999902    2    1    2    0    0 -0.49896800748E-02  0.11161603507E-02  0.22696816421E-01  0.10206643989E+01  0.10203991998E+01 0.  0.
     999903    2    3    3    0    0 -0.12110960565E+00  0.46523413316E-01  0.10331192976E-01  0.13178951205E+00  0.20731072580E-01 0.  0.
         14    1    1    2    0    0  0.49896800748E-02 -0.11161603507E-02 -0.22696816421E-01  0.23265601149E-01  0.00000000000E+00 0. -1.
     999901    1    3    3    0    0  0.11611992558E+00 -0.45407252966E-01  0.12365623445E-01  0.88887488680E+00  0.88000000000E+00 0.  1.
        -11    1    4    4    0    0 -0.73522032857E-01  0.37856026727E-01  0.10903874245E-01  0.83412970631E-01  0.51100000000E-03 0.  1.
         11    1    4    4    0    0 -0.47587572797E-01  0.86673865896E-02 -0.57268126867E-03  0.48376541421E-01  0.51100000000E-03 0. -1.
</event>
<event>
 8    1  0.1051655E+005  0.1043930E+01  0.7957747E-01            NaN
         13   -1    0    0    0    0  0.00000000000E+00  0.00000000000E+00  0.74505805969E-08  0.10566000000E+00  0.10566000000E+00 0. -1.
     999900   -1    0    0    0    0 -0.00000000000E+00 -0.00000000000E+00 -0.74505805969E-08  0.93827000000E+00  0.93827000000E+00 0. -1.
     999902    2    1    2    0    0 -0.20026195028E-01 -0.17815840088E-01 -0.11950053551E-01  0.10145828293E+01  0.10141583018E+01 0.  0.
     999903    2    3    3    0    0  0.11748189098E+00 -0.19124183112E-01  0.25051141189E-01  0.12313497676E+00  0.19155514546E-01 0.  0.
         14    1    1    2    0    0  0.20026195028E-01  0.17815840088E-01  0.11950053551E-01  0.29347170651E-01  0.00000000000E+00 0. -1.
     999901    1    3    3    0    0 -0.13750808601E+00  0.13083430241E-02 -0.37001194740E-01  0.89144785259E+00  0.88000000000E+00 0.  1.
        -11    1    4    4    0    0  0.95330347866E-01 -0.15755782420E-01  0.27826071557E-01  0.10055183381E+00  0.51100000000E-03 0.  1.
         11    1    4    4    0    0  0.22151543117E-01 -0.33684006929E-02 -0.27749303679E-02  0.22583142944E-01  0.51100000000E-03 0. -1.
</event>
<event>
 8    1  0.1051655E+005  0.1043930E+01  0.7957747E-01            NaN
         13   -1    0    0    0    0  0.00000000000E+00  0.00000000000E+00  0.74505805969E-08  0.10566000000E+00  0.10566000000E+00 0.  1.
     999900   -1    0    0    0    0 -0.00000000000E+00 -0.00000000000E+00 -0.74505805969E-08  0.93827000000E+00  0.93827000000E+00 0. -1.
     999902    2    1    2    0    0  0.10891257789E-01 -0.18703281121E-01  0.32816628834E-02  0.10220393277E+01  0.10218048668E+01 0.  0.
     999903    2    3    3    0    0 -0.23381508227E-01  0.11769889411E+00 -0.44554168915E-01  0.12958852086E+00  0.20208566701E-01 0.  0.
         14    1    1    2    0    0 -0.10891257789E-01  0.18703281121E-01 -0.32816628834E-02  0.21890672264E-01  0.00000000000E+00 0. -1.
     999901    1    3    3    0    0  0.34272766016E-01 -0.13640217523E+00  0.47835831799E-01  0.89245080688E+00  0.88000000000E+00 0. -1.
        -11    1    4    4    0    0 -0.95154634508E-04  0.21931201669E-01 -0.15415115153E-01  0.26811817492E-01  0.51100000000E-03 0. -1.
         11    1    4    4    0    0 -0.23286353593E-01  0.95767692440E-01 -0.29139053762E-01  0.10277670336E+00  0.51100000000E-03 0.  1.
</event>
<event>
 8    1  0.1051655E+005  0.1043930E+01  0.7957747E-01            NaN
         13   -1    0    0    0    0  0.00000000000E+00  0.00000000000E+00  0.74505805969E-08  0.10566000000E+00  0.10566000000E+00 0. -1.
     999900   -1    0    0    0    0 -0.00000000000E+00 -0.00000000000E+00 -0.74505805969E-08  0.93827000000E+00  0.93827000000E+00 0.  1.
     999902    2    1    2    0    0  0.17417601143E-01  0.24260682344E-02  0.15293212909E-01  0.10206246144E+01  0.10203584971E+01 0.  0.
     999903    2    3    3    0    0  0.94975362604E-01 -0.64229805872E-01  0.64944000749E-01  0.13331214822E+00  0.20214305959E-01 0.  0.
         14    1    1    2    0    0 -0.17417601143E-01 -0.24260682344E-02 -0.15293212909E-01  0.23305385595E-01  0.00000000000E+00 0.  1.
     999901    1    3    3    0    0 -0.77557761460E-01  0.66655874107E-01 -0.49650787840E-01  0.88731246619E+00  0.88000000000E+00 0.  1.
        -11    1    4    4    0    0  0.65119111323E-01 -0.47495843862E-01  0.35152532341E-01  0.87933585704E-01  0.51100000000E-03 0. -1.
         11    1    4    4    0    0  0.29856251281E-01 -0.16733962010E-01  0.29791468407E-01  0.45378562515E-01  0.51100000000E-03 0.  1.
</event>
<event>
 8    1  0.1051655E+005  0.1043930E+01  0.7957747E-01            NaN
         13   -1    0    0    0    0  0.00000000000E+00  0.00000000000E+00  0.74505805969E-08  0.10566000000E+00  0.10566000000E+00 0.  1.
     999900   -1    0    0    0    0 -0.00000000000E+00 -0.00000000000E+00 -0.74505805969E-08  0.93827000000E+00  0.93827000000E+00 0.  1.
     999902    2    1    2    0    0 -0.13072746615E-02 -0.23417821622E-01 -0.22833142202E-02  0.10203648380E+01  0.10200926849E+01 0.  0.
     999903    2    3    3    0    0 -0.74533848254E-01 -0.10606596739E+00  0.22459090218E-01  0.13311908080E+00  0.20273010783E-01 0.  0.
         14    1    1    2    0    0  0.13072746615E-02  0.23417821622E-01  0.22833142202E-02  0.23565162006E-01  0.00000000000E+00 0.  1.
     999901    1    3    3    0    0  0.73226573592E-01  0.82648145768E-01 -0.24742404438E-01  0.88724575719E+00  0.88000000000E+00 0. -1.
        -11    1    4    4    0    0 -0.65596996328E-01 -0.90981175217E-01  0.12269008194E-01  0.11283319482E+00  0.51100000000E-03 0. -1.
         11    1    4    4    0    0 -0.89368519254E-02 -0.15084792172E-01  0.10190082024E-01  0.20285885977E-01  0.51100000000E-03 0.  1.
</event>
<event>
 8    1  0.1051655E+005  0.1043930E+01  0.7957747E-01            NaN
         13   -1    0    0    0    0  0.00000000000E+00  0.00000000000E+00  0.74505805969E-08  0.10566000000E+00  0.10566000000E+00 0.  1.
     999900   -1    0    0    0    0 -0.00000000000E+00 -0.00000000000E+00 -0.74505805969E-08  0.93827000000E+00  0.93827000000E+00 0. -1.
     999902    2    1    2    0    0 -0.72020144830E-02 -0.16326781287E-01 -0.21628797693E-02  0.10259547156E+01  0.10257972352E+01 0.  0.
     999903    2    3    3    0    0  0.18375227231E-01 -0.10351798692E+00  0.85643358122E-01  0.13692916084E+00  0.19004938954E-01 0.  0.
         14    1    1    2    0    0  0.72020144830E-02  0.16326781287E-01  0.21628797693E-02  0.17975284385E-01  0.00000000000E+00 0.  1.
     999901    1    3    3    0    0 -0.25577241714E-01  0.87191205638E-01 -0.87806237892E-01  0.88902555478E+00  0.88000000000E+00 0. -1.
        -11    1    4    4    0    0  0.21355149282E-01 -0.79146317219E-01  0.61422796048E-01  0.10243633596E+00  0.51100000000E-03 0. -1.
         11    1    4    4    0    0 -0.29799220507E-02 -0.24371669706E-01  0.24220562074E-01  0.34492824875E-01  0.51100000000E-03 0.  1.
</event>
<event>
 8    1  0.1051655E+005  0.1043930E+01  0.7957747E-01            NaN
         13   -1    0    0    0    0  0.00000000000E+00  0.00000000000E+00  0.74505805969E-08  0.10566000000E+00  0.10566000000E+00 0.  1.
     999900   -1    0    0    0    0 -0.00000000000E+00 -0.00000000000E+00 -0.74505805969E-08  0.93827000000E+00  0.93827000000E+00 0.  1.
     999902    2    1    2    0    0  0.17295013675E-01  0.44589702246E-02 -0.16297555176E-01  0.10197512858E+01  0.10194646020E+01 0.  0.
     999903    2    3    3    0    0  0.11727699213E+00  0.14267425951E-01 -0.57905768930E-01  0.13305864165E+00  0.19851239649E-01 0.  0.
         14    1    1    2    0    0 -0.17295013675E-01 -0.44589702246E-02  0.16297555176E-01  0.24178714156E-01  0.00000000000E+00 0. -1.
     999901    1    3    3    0    0 -0.99981978455E-01 -0.98084557264E-02  0.41608213754E-01  0.88669264420E+00  0.88000000000E+00 0. -1.
        -11    1    4    4    0    0  0.10178275963E+00  0.87082908013E-02 -0.42969361515E-01  0.11082504968E+00  0.51100000000E-03 0.  1.
         11    1    4    4    0    0  0.15494232503E-01  0.55591351498E-02 -0.14936407415E-01  0.22233591972E-01  0.51100000000E-03 0. -1.
</event>
<event>
 8    1  0.1051655E+005  0.1043930E+01  0.7957747E-01            NaN
         13   -1    0    0    0    0  0.00000000000E+00  0.00000000000E+00  0.74505805969E-08  0.10566000000E+00  0.10566000000E+00 0.  1.
     999900   -1    0    0    0    0 -0.00000000000E+00 -0.00000000000E+00 -0.74505805969E-08  0.93827000000E+00  0.93827000000E+00 0.  1.
     999902    2    1    2    0    0  0.88536545063E-02  0.49350344156E-02  0.21764957928E-01  0.10199205194E+01  0.10196378822E+01 0.  0.
     999903    2    3    3    0    0  0.40807933980E-01  0.48995341192E-01  0.11542020504E+00  0.13327871357E+00  0.19379391765E-01 0.  0.
         14    1    1    2    0    0 -0.88536545063E-02 -0.49350344156E-02 -0.21764957928E-01  0.24009480552E-01  0.00000000000E+00 0. -1.
     999901    1    3    3    0    0 -0.31954279474E-01 -0.44060306776E-01 -0.93655247117E-01  0.88664180587E+00  0.88000000000E+00 0.  1.
        -11    1    4    4    0    0  0.10759810714E-01  0.42421620017E-02  0.12133408151E-01  0.16770515180E-01  0.51100000000E-03 0. -1.
         11    1    4    4    0    0  0.30048123266E-01  0.44753179190E-01  0.10328679689E+00  0.11650819839E+00  0.51100000000E-03 0.  1.
</event>
<event>
 8    1  0.1051655E+005  0.1043930E+01  0.7957747E-01            NaN
         13   -1    0    0    0    0  0.00000000000E+00  0.00000000000E+00  0.74505805969E-08  0.10566000000E+00  0.10566000000E+00 0. -1.
     999900   -1    0    0    0    0 -0.00000000000E+00 -0.00000000000E+00 -0.74505805969E-08  0.93827000000E+00  0.93827000000E+00 0.  1.
     999902    2    1    2    0    0  0.83299358827E-02 -0.91625151595E-02 -0.21140605773E-01  0.10194296994E+01  0.10191352449E+01 0.  0.
     999903    2    3    3    0    0  0.60727284326E-01  0.79039060739E-01 -0.83042901579E-01  0.13130983457E+00  0.20277400451E-01 0.  0.
         14    1    1    2    0    0 -0.83299358827E-02  0.91625151595E-02  0.21140605773E-01  0.24500300576E-01  0.00000000000E+00 0. -1.
     999901    1    3    3    0    0 -0.52397348444E-01 -0.88201575899E-01  0.61902295806E-01  0.88811986485E+00  0.88000000000E+00 0.  1.
        -11    1    4    4    0    0  0.28878183946E-01  0.28547209639E-01 -0.44523937578E-01  0.60262217223E-01  0.51100000000E-03 0.  1.
         11    1    4    4    0    0  0.31849100380E-01  0.50491851101E-01 -0.38518964002E-01  0.71047617351E-01  0.51100000000E-03 0. -1.
</event>
<event>
 8    1  0.1051655E+005  0.1043930E+01  0.7957747E-01            NaN
         13   -1    0    0    0    0  0.00000000000E+00  0.00000000000E+00  0.74505805969E-08  0.10566000000E+00  0.10566000000E+00 0. -1.
     999900   -1    0    0    0    0 -0.00000000000E+00 -0.00000000000E+00 -0.74505805969E-08  0.93827000000E+00  0.93827000000E+00 0.  1.
     999902    2    1    2    0    0 -0.24266846393E-01  0.19600395310E-02 -0.48810103710E-02  0.10190996587E+01  0.10187971184E+01 0.  0.
     999903    2    3    3    0    0  0.11021410525E+00  0.42720882326E-01  0.41072336412E-01  0.12676660271E+00  0.20263562409E-01 0.  0.
         14    1    1    2    0    0  0.24266846393E-01 -0.19600395310E-02  0.48810103710E-02  0.24830341340E-01  0.00000000000E+00 0. -1.
     999901    1    3    3    0    0 -0.13448095164E+00 -0.40760842795E-01 -0.45953346783E-01  0.89233305595E+00  0.88000000000E+00 0. -1.
        -11    1    4    4    0    0  0.15551235002E-01  0.27567782253E-02 -0.76747000405E-03  0.15820583664E-01  0.51100000000E-03 0.  1.
         11    1    4    4    0    0  0.94662870249E-01  0.39964104101E-01  0.41839806416E-01  0.11094601905E+00  0.51100000000E-03 0. -1.
</event>
<event>
 8    1  0.1051655E+005  0.1043930E+01  0.7957747E-01            NaN
         13   -1    0    0    0    0  0.00000000000E+00  0.00000000000E+00  0.74505805969E-08  0.10566000000E+00  0.10566000000E+00 0.  1.
     999900   -1    0    0    0    0 -0.00000000000E+00 -0.00000000000E+00 -0.74505805969E-08  0.93827000000E+00  0.93827000000E+00 0. -1.
     999902    2    1    2    0    0  0.23632838104E-01 -0.31569751906E-03 -0.41076898382E-02  0.10199407562E+01  0.10196586009E+01 0.  0.
     999903    2    3    3    0    0  0.26578641756E-01 -0.10270142586E+00 -0.74453347644E-01  0.13121131105E+00  0.20471934428E-01 0.  0.
         14    1    1    2    0    0 -0.23632838104E-01  0.31569751906E-03  0.41076898382E-02  0.23989243789E-01  0.00000000000E+00 0.  1.
     999901    1    3    3    0    0 -0.29458036517E-02  0.10238572835E+00  0.70345657806E-01  0.88872944516E+00  0.88000000000E+00 0. -1.
        -11    1    4    4    0    0 -0.29160981329E-02 -0.37080376095E-02 -0.34373553772E-02  0.58591555896E-02  0.51100000000E-03 0.  1.
         11    1    4    4    0    0  0.29494739889E-01 -0.98993388255E-01 -0.71015992267E-01  0.12535215546E+00  0.51100000000E-03 0. -1.
</event>
<event>
 8    1  0.1051655E+005  0.1043930E+01  0.7957747E-01            NaN
         13   -1    0    0    0    0  0.00000000000E+00  0.00000000000E+00  0.74505805969E-08  0.10566000000E+00  0.10566000000E+00 0.  1.
     999900   -1    0    0    0    0 -0.00000000000E+00 -0.00000000000E+00 -0.74505805969E-08  0.93827000000E+00  0.93827000000E+00 0. -1.
     999902    2    1    2    0    0  0.21018867810E-01  0.89947422968E-02 -0.61855442380E-02  0.10202454238E+01  0.10199704729E+01 0.  0.
     999903    2    3    3    0    0 -0.53544084965E-01  0.10361152276E+00 -0.56435675196E-01  0.13061794853E+00  0.16545282110E-01 0.  0.
         14    1    1    2    0    0 -0.21018867810E-01 -0.89947422968E-02  0.61855442380E-02  0.23684576216E-01  0.00000000000E+00 0.  1.
     999901    1    3    3    0    0  0.74562952775E-01 -0.94616780459E-01  0.50250130958E-01  0.88962747526E+00  0.88000000000E+00 0.  1.
        -11    1    4    4    0    0 -0.23423056072E-01  0.41754750571E-01 -0.32077012655E-01  0.57630674236E-01  0.51100000000E-03 0. -1.
         11    1    4    4    0    0 -0.30121028894E-01  0.61856772185E-01 -0.24358662541E-01  0.72987274291E-01  0.51100000000E-03 0.  1.
</event>
<event>
 8    1  0.1051655E+005  0.1043930E+01  0.7957747E-01            NaN
         13   -1    0    0    0    0  0.00000000000E+00  0.00000000000E+00  0.74505805969E-08  0.10566000000E+00  0.10566000000E+00 0.  1.
     999900   -1    0    0    0    0 -0.00000000000E+00 -0.00000000000E+00 -0.74505805969E-08  0.93827000000E+00  0.93827000000E+00 0. -1.
     999902    2    1    2    0    0 -0.24672153055E-02 -0.24438382993E-01 -0.28400505863E-02  0.10192037467E+01  0.10189037686E+01 0.  0.
     999903    2    3    3    0    0 -0.11841671000E+00 -0.18959831603E-01  0.46648443182E-01  0.13020239077E+00  0.19864362283E-01 0.  0.
         14    1    1    2    0    0  0.24672153055E-02  0.24438382993E-01  0.28400505863E-02  0.24726253295E-01  0.00000000000E+00 0. -1.
     999901    1    3    3    0    0  0.11594949469E+00 -0.54785513899E-02 -0.49488493768E-01  0.88900135594E+00  0.88000000000E+00 0. -1.
        -11    1    4    4    0    0 -0.91566784286E-01 -0.81831119674E-02  0.29421878887E-01  0.96526407704E-01  0.51100000000E-03 0. -1.
         11    1    4    4    0    0 -0.26849925711E-01 -0.10776719636E-01  0.17226564295E-01  0.33675983062E-01  0.51100000000E-03 0.  1.
</event>
<event>
 8    1  0.1051655E+005  0.1043930E+01  0.7957747E-01            NaN
         13   -1    0    0    0    0  0.00000000000E+00  0.00000000000E+00  0.74505805969E-08  0.10566000000E+00  0.10566000000E+00 0. -1.
     999900   -1    0    0    0    0 -0.00000000000E+00 -0.00000000000E+00 -0.74505805969E-08  0.93827000000E+00  0.93827000000E+00 0. -1.
     999902    2    1    2    0    0  0.26216729720E-02  0.21266368025E-01  0.10583095911E-01  0.10200316005E+01  0.10197516034E+01 0.  0.
     999903    2    3    3    0    0  0.13007509019E-01  0.10670907998E+00 -0.73764088692E-01  0.13181835464E+00  0.19465733962E-01 0.  0.
         14    1    1    2    0    0 -0.26216729720E-02 -0.21266368025E-01 -0.10583095911E-01  0.23898399470E-01  0.00000000000E+00 0.  1.
     999901    1    3    3    0    0 -0.10385836047E-01 -0.85442711957E-01  0.84347184604E-01  0.88821324589E+00  0.88000000000E+00 0.  1.
        -11    1    4    4    0    0  0.86725635967E-03  0.26777966315E-01 -0.28670493170E-01  0.39243724507E-01  0.51100000000E-03 0. -1.
         11    1    4    4    0    0  0.12140252660E-01  0.79931113668E-01 -0.45093595522E-01  0.92574630136E-01  0.51100000000E-03 0.  1.
</event>
<event>
 8    1  0.1051655E+005  0.1043930E+01  0.7957747E-01            NaN
         13   -1    0    0    0    0  0.00000000000E+00  0.00000000000E+00  0.74505805969E-08  0.10566000000E+00  0.10566000000E+00 0. -1.
     999900   -1    0    0    0    0 -0.00000000000E+00 -0.00000000000E+00 -0.74505805969E-08  0.93827000000E+00  0.93827000000E+00 0. -1.
     999902    2    1    2    0    0  0.98514420960E-02 -0.27343650868E-01  0.99942742192E-02  0.10131954645E+01  0.10127292025E+01 0.  0.
     999903    2    3    3    0    0  0.47149430611E-02 -0.92344271593E-01  0.85452111780E-01  0.12756272485E+00  0.20505857213E-01 0.  0.
         14    1    1    2    0    0 -0.98514420960E-02  0.27343650868E-01 -0.99942742192E-02  0.30734535482E-01  0.00000000000E+00 0.  1.
     999901    1    3    3    0    0  0.51364990349E-02  0.65000620725E-01 -0.75457837561E-01  0.88563273966E+00  0.88000000000E+00 0. -1.
        -11    1    4    4    0    0  0.12779396307E-01 -0.50608753235E-01  0.47335139967E-01  0.70465846129E-01  0.51100000000E-03 0. -1.
         11    1    4    4    0    0 -0.80644532463E-02 -0.41735518358E-01  0.38116971813E-01  0.57096878724E-01  0.51100000000E-03 0.  1.
</event>
<event>
 8    1  0.1051655E+005  0.1043930E+01  0.7957747E-01            NaN
         13   -1    0    0    0    0  0.00000000000E+00  0.00000000000E+00  0.74505805969E-08  0.10566000000E+00  0.10566000000E+00 0.  1.
     999900   -1    0    0    0    0 -0.00000000000E+00 -0.00000000000E+00 -0.74505805969E-08  0.93827000000E+00  0.93827000000E+00 0. -1.
     999902    2    1    2    0    0  0.21895999417E-01  0.14299102731E-01 -0.11025267928E-03  0.10177783024E+01  0.10174422645E+01 0.  0.
     999903    2    3    3    0    0  0.11952732529E+00  0.86552576746E-02  0.48368237025E-01  0.13103488254E+00  0.21655463828E-01 0.  0.
         14    1    1    2    0    0 -0.21895999417E-01 -0.14299102731E-01  0.11025267928E-03  0.26151697555E-01  0.00000000000E+00 0.  1.
     999901    1    3    3    0    0 -0.97631325872E-01  0.56438450561E-02 -0.48478489704E-01  0.88674341990E+00  0.88000000000E+00 0. -1.
        -11    1    4    4    0    0  0.20153162439E-01  0.48502453098E-03  0.17374891117E-01  0.26618286335E-01  0.51100000000E-03 0.  1.
         11    1    4    4    0    0  0.99374162850E-01  0.81702331437E-02  0.30993345908E-01  0.10441659621E+00  0.51100000000E-03 0. -1.
</event>
<event>
 8    1  0.1060296E+005  0.1043930E+01  0.7957747E-01            NaN
         13   -1    0    0    0    0  0.00000000000E+00  0.00000000000E+00  0.74505805969E-08  0.10566000000E+00  0.10566000000E+00 0.  1.
     999900   -1    0    0    0    0 -0.00000000000E+00 -0.00000000000E+00 -0.74505805969E-08  0.93827000000E+00  0.93827000000E+00 0.  1.
     999902    2    1    2    0    0 -0.86844111839E-03 -0.20317116448E-02 -0.23149027042E-01  0.10206757639E+01  0.10204108269E+01 0.  0.
     999903    2    3    3    0    0  0.98171755812E-01  0.71503089738E-01  0.41161583603E-01  0.12974805516E+00  0.19745793744E-01 0.  0.
         14    1    1    2    0    0  0.86844111839E-03  0.20317116448E-02  0.23149027042E-01  0.23254236069E-01  0.00000000000E+00 0.  1.
     999901    1    3    3    0    0 -0.99040196931E-01 -0.73534801383E-01 -0.64310610645E-01  0.89092770878E+00  0.88000000000E+00 0.  1.
        -11    1    4    4    0    0  0.65567510998E-01  0.44630599575E-01  0.36252596079E-01  0.87209522189E-01  0.51100000000E-03 0.  1.
         11    1    4    4    0    0  0.32604244814E-01  0.26872490163E-01  0.49089875243E-02  0.42538532967E-01  0.51100000000E-03 0. -1.
</event>
<event>
 8    1  0.1051655E+005  0.1043930E+01  0.7957747E-01            NaN
         13   -1    0    0    0    0  0.00000000000E+00  0.00000000000E+00  0.74505805969E-08  0.10566000000E+00  0.10566000000E+00 0.  1.
     999900   -1    0    0    0    0 -0.00000000000E+00 -0.00000000000E+00 -0.74505805969E-08  0.93827000000E+00  0.93827000000E+00 0.  1.
     999902    2    1    2    0    0  0.31957468281E-02 -0.23353149666E-01 -0.50050589678E-02  0.10198336722E+01  0.10195489620E+01 0.  0.
     999903    2    3    3    0    0 -0.76416518522E-01  0.80756478349E-01  0.59871460859E-01  0.12776535070E+00  0.19449933562E-01 0.  0.
         14    1    1    2    0    0 -0.31957468281E-02  0.23353149666E-01  0.50050589678E-02  0.24096327778E-01  0.00000000000E+00 0.  1.
     999901    1    3    3    0    0  0.79612265350E-01 -0.10410962802E+00 -0.64876519827E-01  0.89206832152E+00  0.88000000000E+00 0.  1.
        -11    1    4    4    0    0 -0.34686547985E-01  0.34105827597E-01  0.15563708686E-01  0.51076944273E-01  0.51100000000E-03 0.  1.
         11    1    4    4    0    0 -0.41729970537E-01  0.46650650752E-01  0.44307752173E-01  0.76688406426E-01  0.51100000000E-03 0. -1.
</event>
<event>
 8    1  0.1051655E+005  0.1043930E+01  0.7957747E-01            NaN
         13   -1    0    0    0    0  0.00000000000E+00  0.00000000000E+00  0.74505805969E-08  0.10566000000E+00  0.10566000000E+00 0.  1.
     999900   -1    0    0    0    0 -0.00000000000E+00 -0.00000000000E+00 -0.74505805969E-08  0.93827000000E+00  0.93827000000E+00 0. -1.
     999902    2    1    2    0    0 -0.18399884561E-01  0.36411100064E-02  0.13929082270E-01  0.10205669358E+01  0.10202994844E+01 0.  0.
     999903    2    3    3    0    0  0.11605822815E+00  0.94792876013E-02 -0.49633542343E-01  0.12806860215E+00  0.19460450065E-01 0.  0.
         14    1    1    2    0    0  0.18399884561E-01 -0.36411100064E-02 -0.13929082270E-01  0.23363064158E-01  0.00000000000E+00 0. -1.
     999901    1    3    3    0    0 -0.13445811271E+00 -0.58381775949E-02  0.63562624612E-01  0.89249833369E+00  0.88000000000E+00 0. -1.
        -11    1    4    4    0    0  0.63152114034E-01  0.23922535805E-02 -0.36924007884E-01  0.73195326786E-01  0.51100000000E-03 0.  1.
         11    1    4    4    0    0  0.52906114118E-01  0.70870340208E-02 -0.12709534458E-01  0.54873275366E-01  0.51100000000E-03 0. -1.
</event>
<event>
 8    1  0.1051655E+005  0.1043930E+01  0.7957747E-01            NaN
         13   -1    0    0    0    0  0.00000000000E+00  0.00000000000E+00  0.74505805969E-08  0.10566000000E+00  0.10566000000E+00 0.  1.
     999900   -1    0    0    0    0 -0.00000000000E+00 -0.00000000000E+00 -0.74505805969E-08  0.93827000000E+00  0.93827000000E+00 0. -1.
     999902    2    1    2    0    0 -0.95310810362E-02 -0.13508845418E-01 -0.17381183871E-01  0.10199417536E+01  0.10196596221E+01 0.  0.
     999903    2    3    3    0    0 -0.57425969288E-01 -0.96792358598E-01  0.63826831716E-01  0.13099585784E+00  0.20482863365E-01 0.  0.
         14    1    1    2    0    0  0.95310810362E-02  0.13508845418E-01  0.17381183871E-01  0.23988246351E-01  0.00000000000E+00 0.  1.
     999901    1    3    3    0    0  0.47894888251E-01  0.83283513180E-01 -0.81208015587E-01  0.88894589581E+00  0.88000000000E+00 0. -1.
        -11    1    4    4    0    0 -0.42257738996E-01 -0.52889665719E-01  0.42015237646E-01  0.79677942747E-01  0.51100000000E-03 0. -1.
         11    1    4    4    0    0 -0.15168230292E-01 -0.43902692878E-01  0.21811594070E-01  0.51317915089E-01  0.51100000000E-03 0.  1.
</event>
<event>
 8    1  0.1051655E+005  0.1043930E+01  0.7957747E-01            NaN
         13   -1    0    0    0    0  0.00000000000E+00  0.00000000000E+00  0.74505805969E-08  0.10566000000E+00  0.10566000000E+00 0.  1.
     999900   -1    0    0    0    0 -0.00000000000E+00 -0.00000000000E+00 -0.74505805969E-08  0.93827000000E+00  0.93827000000E+00 0. -1.
     999902    2    1    2    0    0  0.15657919940E-01  0.83070550462E-02 -0.15004720800E-01  0.10207067516E+01  0.10204425283E+01 0.  0.
     999903    2    3    3    0    0  0.84362062988E-01  0.76442868471E-01 -0.67384715390E-01  0.13385478414E+00  0.20394449164E-01 0.  0.
         14    1    1    2    0    0 -0.15657919940E-01 -0.83070550462E-02  0.15004720800E-01  0.23223248409E-01  0.00000000000E+00 0.  1.
     999901    1    3    3    0    0 -0.68704143048E-01 -0.68135813425E-01  0.52379994590E-01  0.88685196745E+00  0.88000000000E+00 0. -1.
        -11    1    4    4    0    0  0.31058785495E-01  0.17547394628E-01 -0.27001416669E-01  0.44742561815E-01  0.51100000000E-03 0.  1.
         11    1    4    4    0    0  0.53303277493E-01  0.58895473843E-01 -0.40383298721E-01  0.89112222323E-01  0.51100000000E-03 0. -1.
</event>
<event>
 8    1  0.1051655E+005  0.1043930E+01  0.7957747E-01            NaN
         13   -1    0    0    0    0  0.00000000000E+00  0.00000000000E+00  0.74505805969E-08  0.10566000000E+00  0.10566000000E+00 0.  1.
     999900   -1    0    0    0    0 -0.00000000000E+00 -0.00000000000E+00 -0.74505805969E-08  0.93827000000E+00  0.93827000000E+00 0. -1.
     999902    2    1    2    0    0  0.77495256818E-02  0.12145153332E-01  0.19144709898E-01  0.10199700373E+01  0.10196885785E+01 0.  0.
     999903    2    3    3    0    0  0.12690412051E+00  0.17180389944E-01  0.24268007370E-01  0.13191068155E+00  0.20289655563E-01 0.  0.
         14    1    1    2    0    0 -0.77495256818E-02 -0.12145153332E-01 -0.19144709898E-01  0.23959962747E-01  0.00000000000E+00 0. -1.
     999901    1    3    3    0    0 -0.11915459483E+00 -0.50352366118E-02 -0.51232974713E-02  0.88805935570E+00  0.88000000000E+00 0. -1.
        -11    1    4    4    0    0  0.17915120277E-01  0.90540532215E-02  0.62169234036E-03  0.20089177102E-01  0.51100000000E-03 0. -1.
         11    1    4    4    0    0  0.10898900024E+00  0.81263367225E-02  0.23646315029E-01  0.11182150445E+00  0.51100000000E-03 0.  1.
</event>
<event>
 8    1  0.1051655E+005  0.1043930E+01  0.7957747E-01            NaN
         13   -1    0    0    0    0  0.00000000000E+00  0.00000000000E+00  0.74505805969E-08  0.10566000000E+00  0.10566000000E+00 0. -1.
     999900   -1    0    0    0    0 -0.00000000000E+00 -0.00000000000E+00 -0.74505805969E-08  0.93827000000E+00  0.93827000000E+00 0. -1.
     999902    2    1    2    0    0  0.13769708272E-02 -0.18307378387E-01  0.14560223960E-01  0.10204980501E+01  0.10202290008E+01 0.  0.
     999903    2    3    3    0    0 -0.78073434331E-01  0.77188183287E-01 -0.61397914471E-01  0.12853313606E+00  0.26411860503E-01 0.  0.
         14    1    1    2    0    0 -0.13769708272E-02  0.18307378387E-01 -0.14560223960E-01  0.23431949852E-01  0.00000000000E+00 0.  1.
     999901    1    3    3    0    0  0.79450405159E-01 -0.95495561674E-01  0.75958138432E-01  0.89196491409E+00  0.88000000000E+00 0.  1.
        -11    1    4    4    0    0 -0.51183067177E-01  0.35094303789E-01 -0.25881841826E-01  0.67241708644E-01  0.51100000000E-03 0. -1.
         11    1    4    4    0    0 -0.26890367154E-01  0.42093879498E-01 -0.35516072646E-01  0.61291427411E-01  0.51100000000E-03 0.  1.
</event>
<event>
 8    1  0.1051655E+005  0.1043930E+01  0.7957747E-01            NaN
         13   -1    0    0    0    0  0.00000000000E+00  0.00000000000E+00  0.74505805969E-08  0.10566000000E+00  0.10566000000E+00 0. -1.
     999900   -1    0    0    0    0 -0.00000000000E+00 -0.00000000000E+00 -0.74505805969E-08  0.93827000000E+00  0.93827000000E+00 0. -1.
     999902    2    1    2    0    0 -0.76915870631E-02 -0.17988053636E-01 -0.73581309397E-02  0.10230285006E+01  0.10228149590E+01 0.  0.
     999903    2    3    3    0    0 -0.71249781842E-01  0.10891372507E+00 -0.87948406497E-03  0.13163314590E+00  0.19692147828E-01 0.  0.
         14    1    1    2    0    0  0.76915870631E-02  0.17988053636E-01  0.73581309397E-02  0.20901499374E-01  0.00000000000E+00 0. -1.
     999901    1    3    3    0    0  0.63558194779E-01 -0.12690177871E+00 -0.64786468748E-02  0.89139535473E+00  0.88000000000E+00 0. -1.
        -11    1    4    4    0    0 -0.39761083122E-01  0.59420893876E-01 -0.10239863391E-01  0.72228126678E-01  0.51100000000E-03 0.  1.
         11    1    4    4    0    0 -0.31488698719E-01  0.49492831194E-01  0.93603793260E-02  0.59405019222E-01  0.51100000000E-03 0. -1.
</event>
<event>
 8    1  0.1051655E+005  0.1043930E+01  0.7957747E-01            NaN
         13   -1    0    0    0    0  0.00000000000E+00  0.00000000000E+00  0.74505805969E-08  0.10566000000E+00  0.10566000000E+00 0. -1.
     999900   -1    0    0    0    0 -0.00000000000E+00 -0.00000000000E+00 -0.74505805969E-08  0.93827000000E+00  0.93827000000E+00 0.  1.
     999902    2    1    2    0    0  0.11651873123E-01  0.15403536119E-01  0.13923258970E-01  0.10201205016E+01  0.10198426083E+01 0.  0.
     999903    2    3    3    0    0  0.66444884904E-01 -0.10480843193E+00 -0.29671943874E-01  0.12919192250E+00  0.20258293420E-01 0.  0.
         14    1    1    2    0    0 -0.11651873123E-01 -0.15403536119E-01 -0.13923258970E-01  0.23809498369E-01  0.00000000000E+00 0.  1.
     999901    1    3    3    0    0 -0.54793011781E-01  0.12021196805E+00  0.43595202844E-01  0.89092857913E+00  0.88000000000E+00 0. -1.
        -11    1    4    4    0    0  0.51858404017E-01 -0.73313395656E-01 -0.29354048891E-01  0.94477877607E-01  0.51100000000E-03 0. -1.
         11    1    4    4    0    0  0.14586480887E-01 -0.31495036275E-01 -0.31789498268E-03  0.34714044893E-01  0.51100000000E-03 0.  1.
</event>
<event>
 8    1  0.1051655E+005  0.1043930E+01  0.7957747E-01            NaN
         13   -1    0    0    0    0  0.00000000000E+00  0.00000000000E+00  0.74505805969E-08  0.10566000000E+00  0.10566000000E+00 0. -1.
     999900   -1    0    0    0    0 -0.00000000000E+00 -0.00000000000E+00 -0.74505805969E-08  0.93827000000E+00  0.93827000000E+00 0. -1.
     999902    2    1    2    0    0  0.12259058380E-02 -0.13568427617E-01  0.18767411711E-01  0.10207390359E+01  0.10204755551E+01 0.  0.
     999903    2    3    3    0    0  0.17269659425E-01  0.90206856817E-01  0.91953691283E-01  0.13147926329E+00  0.19894652047E-01 0.  0.
         14    1    1    2    0    0 -0.12259058380E-02  0.13568427617E-01 -0.18767411711E-01  0.23190964091E-01  0.00000000000E+00 0.  1.
     999901    1    3    3    0    0 -0.16043753587E-01 -0.10377528443E+00 -0.73186279572E-01  0.88925977262E+00  0.88000000000E+00 0. -1.
        -11    1    4    4    0    0  0.16903916332E-01  0.37187888116E-01  0.37027265057E-01  0.55135840327E-01  0.51100000000E-03 0. -1.
         11    1    4    4    0    0  0.36574309215E-03  0.53018968701E-01  0.54926426226E-01  0.76343422959E-01  0.51100000000E-03 0.  1.
</event>
<event>
 8    1  0.1051655E+005  0.1043930E+01  0.7957747E-01            NaN
         13   -1    0    0    0    0  0.00000000000E+00  0.00000000000E+00  0.74505805969E-08  0.10566000000E+00  0.10566000000E+00 0. -1.
     999900   -1    0    0    0    0 -0.00000000000E+00 -0.00000000000E+00 -0.74505805969E-08  0.93827000000E+00  0.93827000000E+00 0.  1.
     999902    2    1    2    0    0  0.15765641167E-01 -0.17702292866E-01 -0.89406639652E-03  0.10202081542E+01  0.10199323271E+01 0.  0.
     999903    2    3    3    0    0  0.11286248864E+00 -0.42919945376E-01  0.51959607335E-01  0.13293297781E+00  0.19781626364E-01 0.  0.
         14    1    1    2    0    0 -0.15765641167E-01  0.17702292866E-01  0.89406639652E-03  0.23721845815E-01  0.00000000000E+00 0. -1.
     999901    1    3    3    0    0 -0.97096847473E-01  0.25217652510E-01 -0.52853673732E-01  0.88727517638E+00  0.88000000000E+00 0.  1.
        -11    1    4    4    0    0  0.44843792848E-01 -0.26997519345E-01  0.18984372122E-01  0.55682127416E-01  0.51100000000E-03 0.  1.
         11    1    4    4    0    0  0.68018695792E-01 -0.15922426031E-01  0.32975235213E-01  0.77250850392E-01  0.51100000000E-03 0. -1.
</event>
<event>
 8    1  0.1051655E+005  0.1043930E+01  0.7957747E-01            NaN
         13   -1    0    0    0    0  0.00000000000E+00  0.00000000000E+00  0.74505805969E-08  0.10566000000E+00  0.10566000000E+00 0.  1.
     999900   -1    0    0    0    0 -0.00000000000E+00 -0.00000000000E+00 -0.74505805969E-08  0.93827000000E+00  0.93827000000E+00 0.  1.
     999902    2    1    2    0    0 -0.22768861913E-01  0.16948717011E-02  0.87640976272E-02  0.10194738541E+01  0.10191804728E+01 0.  0.
     999903    2    3    3    0    0 -0.11442860416E+00 -0.52009043999E-01 -0.35328769045E-01  0.13198875579E+00  0.19340724514E-01 0.  0.
         14    1    1    2    0    0  0.22768861913E-01 -0.16948717011E-02 -0.87640976272E-02  0.24456145855E-01  0.00000000000E+00 0.  1.
     999901    1    3    3    0    0  0.91659742248E-01  0.53703915700E-01  0.44092866673E-01  0.88748509835E+00  0.88000000000E+00 0. -1.
        -11    1    4    4    0    0 -0.45440310105E-01 -0.10717258963E-01 -0.10730519808E-01  0.47907062094E-01  0.51100000000E-03 0.  1.
         11    1    4    4    0    0 -0.68988294056E-01 -0.41291785036E-01 -0.24598249238E-01  0.84081693696E-01  0.51100000000E-03 0. -1.
</event>
<event>
 8    1  0.1051655E+005  0.1043930E+01  0.7957747E-01            NaN
         13   -1    0    0    0    0  0.00000000000E+00  0.00000000000E+00  0.74505805969E-08  0.10566000000E+00  0.10566000000E+00 0.  1.
     999900   -1    0    0    0    0 -0.00000000000E+00 -0.00000000000E+00 -0.74505805969E-08  0.93827000000E+00  0.93827000000E+00 0. -1.
     999902    2    1    2    0    0  0.19314714203E-02 -0.92428607575E-03  0.23742730581E-01  0.10200909115E+01  0.10198123188E+01 0.  0.
     999903    2    3    3    0    0  0.83332838001E-01  0.60211333462E-01  0.80920817191E-01  0.13237863824E+00  0.20153377881E-01 0.  0.
         14    1    1    2    0    0 -0.19314714203E-02  0.92428607575E-03 -0.23742730581E-01  0.23839088532E-01  0.00000000000E+00 0. -1.
     999901    1    3    3    0    0 -0.81401366580E-01 -0.61135619538E-01 -0.57178086611E-01  0.88771227323E+00  0.88000000000E+00 0. -1.
        -11    1    4    4    0    0  0.19694525360E-01  0.24978816682E-01  0.20823152163E-01  0.38022104084E-01  0.51100000000E-03 0.  1.
         11    1    4    4    0    0  0.63638312641E-01  0.35232516779E-01  0.60097665028E-01  0.94356534152E-01  0.51100000000E-03 0. -1.
</event>
<event>
 8    1  0.1168779E+005  0.1043930E+01  0.7957747E-01            NaN
         13   -1    0    0    0    0  0.00000000000E+00  0.00000000000E+00  0.74505805969E-08  0.10566000000E+00  0.10566000000E+00 0. -1.
     999900   -1    0    0    0    0 -0.00000000000E+00 -0.00000000000E+00 -0.74505805969E-08  0.93827000000E+00  0.93827000000E+00 0.  1.
     999902    2    1    2    0    0  0.19807801709E-01  0.68424608023E-03  0.19035294664E-01  0.10164498318E+01  0.10160782947E+01 0.  0.
     999903    2    3    3    0    0 -0.79714467920E-01 -0.50529461749E-01 -0.78011516417E-01  0.12406784545E+00  0.19985261592E-01 0.  0.
         14    1    1    2    0    0 -0.19807801709E-01 -0.68424608023E-03 -0.19035294664E-01  0.27480168198E-01  0.00000000000E+00 0. -1.
     999901    1    3    3    0    0  0.99522269629E-01  0.51213707829E-01  0.97046811081E-01  0.89238198635E+00  0.88000000000E+00 0. -1.
        -11    1    4    4    0    0 -0.31335900833E-01 -0.30797941197E-01 -0.40385384117E-01  0.59679914831E-01  0.51100000000E-03 0.  1.
         11    1    4    4    0    0 -0.48378567087E-01 -0.19731520551E-01 -0.37626132300E-01  0.64387930620E-01  0.51100000000E-03 0. -1.
</event>
<event>
 8    1  0.1051655E+005  0.1043930E+01  0.7957747E-01            NaN
         13   -1    0    0    0    0  0.00000000000E+00  0.00000000000E+00  0.74505805969E-08  0.10566000000E+00  0.10566000000E+00 0. -1.
     999900   -1    0    0    0    0 -0.00000000000E+00 -0.00000000000E+00 -0.74505805969E-08  0.93827000000E+00  0.93827000000E+00 0. -1.
     999902    2    1    2    0    0  0.88714156076E-03  0.10405318493E-01 -0.19710773643E-01  0.10216236720E+01  0.10213801226E+01 0.  0.
     999903    2    3    3    0    0 -0.79886613886E-01 -0.91878838554E-01 -0.46682151836E-01  0.13161586098E+00  0.17886293930E-01 0.  0.
         14    1    1    2    0    0 -0.88714156076E-03 -0.10405318493E-01  0.19710773643E-01  0.22306328042E-01  0.00000000000E+00 0. -1.
     999901    1    3    3    0    0  0.80773755446E-01  0.10228415705E+00  0.26971378193E-01  0.89000781097E+00  0.88000000000E+00 0.  1.
        -11    1    4    4    0    0 -0.29578306422E-01 -0.24703775692E-01 -0.87847861147E-02  0.39529562765E-01  0.51100000000E-03 0.  1.
         11    1    4    4    0    0 -0.50308307463E-01 -0.67175062862E-01 -0.37897365721E-01  0.92086298220E-01  0.51100000000E-03 0. -1.
</event>
<event>
 8    1  0.1051655E+005  0.1043930E+01  0.7957747E-01            NaN
         13   -1    0    0    0    0  0.00000000000E+00  0.00000000000E+00  0.74505805969E-08  0.10566000000E+00  0.10566000000E+00 0. -1.
     999900   -1    0    0    0    0 -0.00000000000E+00 -0.00000000000E+00 -0.74505805969E-08  0.93827000000E+00  0.93827000000E+00 0.  1.
     999902    2    1    2    0    0  0.13601764887E-01 -0.16241451366E-01 -0.94317039735E-02  0.10207405673E+01  0.10204771217E+01 0.  0.
     999903    2    3    3    0    0  0.49341234320E-01 -0.12208625467E+00 -0.10911153969E-01  0.13367652176E+00  0.20266923950E-01 0.  0.
         14    1    1    2    0    0 -0.13601764887E-01  0.16241451366E-01  0.94317039735E-02  0.23189432731E-01  0.00000000000E+00 0. -1.
     999901    1    3    3    0    0 -0.35739469433E-01  0.10584480330E+00  0.14794499951E-02  0.88706404551E+00  0.88000000000E+00 0. -1.
        -11    1    4    4    0    0  0.21931591024E-01 -0.59366353037E-01 -0.15210633624E-01  0.65092112072E-01  0.51100000000E-03 0.  1.
         11    1    4    4    0    0  0.27409643296E-01 -0.62719901630E-01  0.42994796553E-02  0.68584409689E-01  0.51100000000E-03 0. -1.
</event>
<event>
 8    1  0.1051655E+005  0.1043930E+01  0.7957747E-01            NaN
         13   -1    0    0    0    0  0.00000000000E+00  0.00000000000E+00  0.74505805969E-08  0.10566000000E+00  0.10566000000E+00 0. -1.
     999900   -1    0    0    0    0 -0.00000000000E+00 -0.00000000000E+00 -0.74505805969E-08  0.93827000000E+00  0.93827000000E+00 0. -1.
     999902    2    1    2    0    0 -0.22023829237E-01  0.56616369315E-02 -0.63343544877E-02  0.10203243389E+01  0.10200512386E+01 0.  0.
     999903    2    3    3    0    0 -0.75153391810E-01  0.11296389956E-01 -0.10724047397E+00  0.13294812459E+00  0.19976081876E-01 0.  0.
         14    1    1    2    0    0  0.22023829237E-01 -0.56616369315E-02  0.63343544877E-02  0.23605661054E-01  0.00000000000E+00 0. -1.
     999901    1    3    3    0    0  0.53129562572E-01 -0.56347530243E-02  0.10090611948E+00  0.88737621436E+00  0.88000000000E+00 0.  1.
        -11    1    4    4    0    0 -0.63664065788E-01  0.14175039748E-01 -0.79860284720E-01  0.10311145049E+00  0.51100000000E-03 0. -1.
         11    1    4    4    0    0 -0.11489326022E-01 -0.28786497920E-02 -0.27380189251E-01  0.29836674102E-01  0.51100000000E-03 0.  1.
</event>
<event>
 8    1  0.1051655E+005  0.1043930E+01  0.7957747E-01            NaN
         13   -1    0    0    0    0  0.00000000000E+00  0.00000000000E+00  0.74505805969E-08  0.10566000000E+00  0.10566000000E+00 0.  1.
     999900   -1    0    0    0    0 -0.00000000000E+00 -0.00000000000E+00 -0.74505805969E-08  0.93827000000E+00  0.93827000000E+00 0.  1.
     999902    2    1    2    0    0  0.13274348890E-01 -0.17566276751E-01 -0.67871090324E-02  0.10208898770E+01  0.10206298515E+01 0.  0.
     999903    2    3    3    0    0  0.63176499480E-01  0.10566823767E+00 -0.38081385698E-01  0.13035279081E+00  0.19611516970E-01 0.  0.
         14    1    1    2    0    0 -0.13274348890E-01  0.17566276751E-01  0.67871090324E-02  0.23040122968E-01  0.00000000000E+00 0. -1.
     999901    1    3    3    0    0 -0.49902150589E-01 -0.12323451442E+00  0.31294276666E-01  0.89053708622E+00  0.88000000000E+00 0.  1.
        -11    1    4    4    0    0  0.47669665500E-01  0.66112533122E-01 -0.18565484925E-01  0.83595468754E-01  0.51100000000E-03 0.  1.
         11    1    4    4    0    0  0.15506833980E-01  0.39555704547E-01 -0.19515900773E-01  0.46757322060E-01  0.51100000000E-03 0. -1.
</event>
<event>
 8    1  0.1051655E+005  0.1043930E+01  0.7957747E-01            NaN
         13   -1    0    0    0    0  0.00000000000E+00  0.00000000000E+00  0.74505805969E-08  0.10566000000E+00  0.10566000000E+00 0.  1.
     999900   -1    0    0    0    0 -0.00000000000E+00 -0.00000000000E+00 -0.74505805969E-08  0.93827000000E+00  0.93827000000E+00 0. -1.
     999902    2    1    2    0    0 -0.42626039756E-02  0.94895322758E-02 -0.20131636722E-01  0.10212693775E+01  0.10210179419E+01 0.  0.
     999903    2    3    3    0    0  0.53419726849E-01  0.60858604577E-01  0.99734456037E-01  0.12979087911E+00  0.18473592280E-01 0.  0.
         14    1    1    2    0    0  0.42626039756E-02 -0.94895322758E-02  0.20131636722E-01  0.22660622510E-01  0.00000000000E+00 0.  1.
     999901    1    3    3    0    0 -0.57682330825E-01 -0.51369072301E-01 -0.11986609276E+00  0.89147849838E+00  0.88000000000E+00 0. -1.
        -11    1    4    4    0    0  0.12414881105E-01  0.73878783362E-02  0.10023687920E-01  0.17591061926E-01  0.51100000000E-03 0.  1.
         11    1    4    4    0    0  0.41004845744E-01  0.53470726241E-01  0.89710768117E-01  0.11219981718E+00  0.51100000000E-03 0. -1.
</event>
<event>
 8    1  0.1051655E+005  0.1043930E+01  0.7957747E-01            NaN
         13   -1    0    0    0    0  0.00000000000E+00  0.00000000000E+00  0.74505805969E-08  0.10566000000E+00  0.10566000000E+00 0. -1.
     999900   -1    0    0    0    0 -0.00000000000E+00 -0.00000000000E+00 -0.74505805969E-08  0.93827000000E+00  0.93827000000E+00 0. -1.
     999902    2    1    2    0    0 -0.79692285620E-02  0.46452106505E-02 -0.22797256393E-01  0.10193372880E+01  0.10190405807E+01 0.  0.
     999903    2    3    3    0    0  0.71809780328E-01  0.83673375737E-01  0.62070519244E-01  0.12815117919E+00  0.20300172700E-01 0.  0.
         14    1    1    2    0    0  0.79692285620E-02 -0.46452106505E-02  0.22797256393E-01  0.24592712028E-01  0.00000000000E+00 0. -1.
     999901    1    3    3    0    0 -0.79779008890E-01 -0.79028165087E-01 -0.84867775636E-01  0.89118610878E+00  0.88000000000E+00 0. -1.
        -11    1    4    4    0    0  0.44656773180E-01  0.62060131109E-01  0.50213918827E-01  0.91473417062E-01  0.51100000000E-03 0.  1.
         11    1    4    4    0    0  0.27153007149E-01  0.21613244628E-01  0.11856600417E-01  0.36677762132E-01  0.51100000000E-03 0. -1.
</event>
<event>
 8    1  0.1051655E+005  0.1043930E+01  0.7957747E-01            NaN
         13   -1    0    0    0    0  0.00000000000E+00  0.00000000000E+00  0.74505805969E-08  0.10566000000E+00  0.10566000000E+00 0. -1.
     999900   -1    0    0    0    0 -0.00000000000E+00 -0.00000000000E+00 -0.74505805969E-08  0.93827000000E+00  0.93827000000E+00 0.  1.
     999902    2    1    2    0    0  0.18195394368E-01  0.14706352687E-01  0.42201505029E-02  0.10201569300E+01  0.10198798964E+01 0.  0.
     999903    2    3    3    0    0 -0.10097859969E+00  0.75384709863E-02  0.77512536039E-01  0.12907579278E+00  0.19971502137E-01 0.  0.
         14    1    1    2    0    0 -0.18195394368E-01 -0.14706352687E-01 -0.42201505029E-02  0.23773069970E-01  0.00000000000E+00 0.  1.
     999901    1    3    3    0    0  0.11917399406E+00  0.71678817004E-02 -0.73292385536E-01  0.89108113725E+00  0.88000000000E+00 0.  1.
        -11    1    4    4    0    0 -0.37080006219E-01  0.12118413591E-01  0.26191594603E-01  0.46989823984E-01  0.51100000000E-03 0.  1.
         11    1    4    4    0    0 -0.63898593472E-01 -0.45799426046E-02  0.51320941436E-01  0.82085968794E-01  0.51100000000E-03 0. -1.
</event>
<event>
 8    1  0.1051655E+005  0.1043930E+01  0.7957747E-01            NaN
         13   -1    0    0    0    0  0.00000000000E+00  0.00000000000E+00  0.74505805969E-08  0.10566000000E+00  0.10566000000E+00 0.  1.
     999900   -1    0    0    0    0 -0.00000000000E+00 -0.00000000000E+00 -0.74505805969E-08  0.93827000000E+00  0.93827000000E+00 0.  1.
     999902    2    1    2    0    0  0.23827325518E-01  0.48840621049E-03  0.10071614976E-02  0.10200763974E+01  0.10197974614E+01 0.  0.
     999903    2    3    3    0    0 -0.12405650107E+00 -0.38343675368E-02 -0.13351100668E-01  0.12761100748E+00  0.26487723758E-01 0.  0.
         14    1    1    2    0    0 -0.23827325518E-01 -0.48840621049E-03 -0.10071614976E-02  0.23853602584E-01  0.00000000000E+00 0.  1.
     999901    1    3    3    0    0  0.14788382659E+00  0.43227737473E-02  0.14358262165E-01  0.89246538993E+00  0.88000000000E+00 0.  1.
        -11    1    4    4    0    0 -0.33207377400E-01 -0.15427942161E-02 -0.15552426423E-01  0.36704893631E-01  0.51100000000E-03 0.  1.
         11    1    4    4    0    0 -0.90849123667E-01 -0.22915733208E-02  0.22013257551E-02  0.90906113851E-01  0.51100000000E-03 0. -1.
</event>
<event>
 8    1  0.1051655E+005  0.1043930E+01  0.7957747E-01            NaN
         13   -1    0    0    0    0  0.00000000000E+00  0.00000000000E+00  0.74505805969E-08  0.10566000000E+00  0.10566000000E+00 0. -1.
     999900   -1    0    0    0    0 -0.00000000000E+00 -0.00000000000E+00 -0.74505805969E-08  0.93827000000E+00  0.93827000000E+00 0. -1.
     999902    2    1    2    0    0 -0.11139101862E-01 -0.21073812731E-01 -0.91077483822E-02  0.10184126284E+01  0.10180928963E+01 0.  0.
     999903    2    3    3    0    0 -0.53424422581E-01  0.73909437012E-03 -0.11737186098E+00  0.13050217719E+00  0.19998732806E-01 0.  0.
         14    1    1    2    0    0  0.11139101862E-01  0.21073812731E-01  0.91077483822E-02  0.25517371610E-01  0.00000000000E+00 0.  1.
     999901    1    3    3    0    0  0.42285320719E-01 -0.21812907101E-01  0.10826411260E+00  0.88791045120E+00  0.88000000000E+00 0. -1.
        -11    1    4    4    0    0 -0.29376989238E-01 -0.88179222254E-02 -0.72092191398E-01  0.78347357522E-01  0.51100000000E-03 0. -1.
         11    1    4    4    0    0 -0.24047433343E-01  0.95570165955E-02 -0.45279669583E-01  0.52154819673E-01  0.51100000000E-03 0.  1.
</event>
<event>
 8    1  0.1051655E+005  0.1043930E+01  0.7957747E-01            NaN
         13   -1    0    0    0    0  0.00000000000E+00  0.00000000000E+00  0.74505805969E-08  0.10566000000E+00  0.10566000000E+00 0. -1.
     999900   -1    0    0    0    0 -0.00000000000E+00 -0.00000000000E+00 -0.74505805969E-08  0.93827000000E+00  0.93827000000E+00 0.  1.
     999902    2    1    2    0    0  0.18121576176E-01  0.13495875618E-01 -0.39495119291E-02  0.10209925017E+01  0.10207348136E+01 0.  0.
     999903    2    3    3    0    0 -0.95874239638E-01  0.59525223586E-01 -0.63021047679E-01  0.13048523438E+00  0.17877971649E-01 0.  0.
         14    1    1    2    0    0 -0.18121576176E-01 -0.13495875618E-01  0.39495119291E-02  0.22937498257E-01  0.00000000000E+00 0. -1.
     999901    1    3    3    0    0  0.11399581581E+00 -0.46029347968E-01  0.59071535750E-01  0.89050726737E+00  0.88000000000E+00 0. -1.
        -11    1    4    4    0    0 -0.68374999495E-01  0.39954593910E-01 -0.52925785263E-01  0.95251824114E-01  0.51100000000E-03 0. -1.
         11    1    4    4    0    0 -0.27499240144E-01  0.19570629676E-01 -0.10095262417E-01  0.35233410261E-01  0.51100000000E-03 0.  1.
</event>
<event>
 8    1  0.1051655E+005  0.1043930E+01  0.7957747E-01            NaN
         13   -1    0    0    0    0  0.00000000000E+00  0.00000000000E+00  0.74505805969E-08  0.10566000000E+00  0.10566000000E+00 0. -1.
     999900   -1    0    0    0    0 -0.00000000000E+00 -0.00000000000E+00 -0.74505805969E-08  0.93827000000E+00  0.93827000000E+00 0. -1.
     999902    2    1    2    0    0 -0.17708461826E-01 -0.15470567670E-01 -0.10931293109E-02  0.10203901823E+01  0.10201186211E+01 0.  0.
     999903    2    3    3    0    0 -0.71783819778E-01 -0.17285285676E-01  0.10745518329E+00  0.13207144803E+00  0.21084427548E-01 0.  0.
         14    1    1    2    0    0  0.17708461826E-01  0.15470567670E-01  0.10931293109E-02  0.23539817670E-01  0.00000000000E+00 0. -1.
     999901    1    3    3    0    0  0.54075357952E-01  0.18147180059E-02 -0.10854831261E+00  0.88831873430E+00  0.88000000000E+00 0.  1.
        -11    1    4    4    0    0 -0.54568935612E-01 -0.68372033502E-02  0.89707319531E-01  0.10522442864E+00  0.51100000000E-03 0.  1.
         11    1    4    4    0    0 -0.17214884166E-01 -0.10448082325E-01  0.17747863764E-01  0.26847019393E-01  0.51100000000E-03 0. -1.
</event>
<event>
 8    1  0.1051655E+005  0.1043930E+01  0.7957747E-01            NaN
         13   -1    0    0    0    0  0.00000000000E+00  0.00000000000E+00  0.74505805969E-08  0.10566000000E+00  0.10566000000E+00 0. -1.
     999900   -1    0    0    0    0 -0.00000000000E+00 -0.00000000000E+00 -0.74505805969E-08  0.93827000000E+00  0.93827000000E+00 0. -1.
     999902    2    1    2    0    0  0.21600396550E-01  0.12889866655E-01 -0.98108528548E-02  0.10169303958E+01  0.10165719115E+01 0.  0.
     999903    2    3    3    0    0 -0.18541198820E-01 -0.10499214590E+00  0.62602728649E-01  0.12521786176E+00  0.19831402297E-01 0.  0.
         14    1    1    2    0    0 -0.21600396550E-01 -0.12889866655E-01  0.98108528548E-02  0.26999604205E-01  0.00000000000E+00 0. -1.
     999901    1    3    3    0    0  0.40141595370E-01  0.11788201255E+00 -0.72413581504E-01  0.89171253403E+00  0.88000000000E+00 0.  1.
        -11    1    4    4    0    0 -0.12026824706E-01 -0.32247677274E-01  0.28131634072E-01  0.44454551608E-01  0.51100000000E-03 0. -1.
         11    1    4    4    0    0 -0.65143741144E-02 -0.72744468621E-01  0.34471094577E-01  0.80763310156E-01  0.51100000000E-03 0.  1.
</event>
<event>
 8    1  0.1051655E+005  0.1043930E+01  0.7957747E-01            NaN
         13   -1    0    0    0    0  0.00000000000E+00  0.00000000000E+00  0.74505805969E-08  0.10566000000E+00  0.10566000000E+00 0. -1.
     999900   -1    0    0    0    0 -0.00000000000E+00 -0.00000000000E+00 -0.74505805969E-08  0.93827000000E+00  0.93827000000E+00 0. -1.
     999902    2    1    2    0    0 -0.33570846134E-02  0.14530643359E-01 -0.18843537604E-01  0.10198990091E+01  0.10196158592E+01 0.  0.
     999903    2    3    3    0    0  0.47130092098E-01 -0.20448265758E-01 -0.11996538634E+00  0.13198115966E+00  0.19696584217E-01 0.  0.
         14    1    1    2    0    0  0.33570846134E-02 -0.14530643359E-01  0.18843537604E-01  0.24030990886E-01  0.00000000000E+00 0. -1.
     999901    1    3    3    0    0 -0.50487176712E-01  0.34978909117E-01  0.10112184874E+00  0.88791784946E+00  0.88000000000E+00 0.  1.
        -11    1    4    4    0    0  0.25810821515E-01 -0.18832096292E-01 -0.55271500028E-01  0.63843920575E-01  0.51100000000E-03 0.  1.
         11    1    4    4    0    0  0.21319270583E-01 -0.16161694659E-02 -0.64693886315E-01  0.68137239080E-01  0.51100000000E-03 0. -1.
</event>
<event>
 8    1  0.1051655E+005  0.1043930E+01  0.7957747E-01            NaN
         13   -1    0    0    0    0  0.00000000000E+00  0.00000000000E+00  0.74505805969E-08  0.10566000000E+00  0.10566000000E+00 0. -1.
     999900   -1    0    0    0    0 -0.00000000000E+00 -0.00000000000E+00 -0.74505805969E-08  0.93827000000E+00  0.93827000000E+00 0.  1.
     999902    2    1    2    0    0  0.16967867002E-01 -0.15426937311E-01  0.88970153942E-02  0.10193321182E+01  0.10190352847E+01 0.  0.
     999903    2    3    3    0    0 -0.26632852181E-01  0.25454403259E-01  0.12309303462E+00  0.12994298093E+00  0.19391948306E-01 0.  0.
         14    1    1    2    0    0 -0.16967867002E-01  0.15426937311E-01 -0.88970153942E-02  0.24597881785E-01  0.00000000000E+00 0. -1.
     999901    1    3    3    0    0  0.43600719182E-01 -0.40881340570E-01 -0.11419601923E+00  0.88938913729E+00  0.88000000000E+00 0.  1.
        -11    1    4    4    0    0 -0.29822124682E-02  0.72844103775E-02  0.55540639473E-01  0.56097949872E-01  0.51100000000E-03 0. -1.
         11    1    4    4    0    0 -0.23650639712E-01  0.18169992881E-01  0.67552395148E-01  0.73845031054E-01  0.51100000000E-03 0.  1.
</event>
<event>
 8    1  0.1051655E+005  0.1043930E+01  0.7957747E-01            NaN
         13   -1    0    0    0    0  0.00000000000E+00  0.00000000000E+00  0.74505805969E-08  0.10566000000E+00  0.10566000000E+00 0. -1.
     999900   -1    0    0    0    0 -0.00000000000E+00 -0.00000000000E+00 -0.74505805969E-08  0.93827000000E+00  0.93827000000E+00 0.  1.
     999902    2    1    2    0    0  0.20824175199E-02 -0.10840778833E-01  0.20772819730E-01  0.10204062038E+01  0.10201350164E+01 0.  0.
     999903    2    3    3    0    0  0.65005955790E-01  0.47108367288E-01  0.10336006670E+00  0.13240950979E+00  0.20099809376E-01 0.  0.
         14    1    1    2    0    0 -0.20824175199E-02  0.10840778833E-01 -0.20772819730E-01  0.23523796207E-01  0.00000000000E+00 0.  1.
     999901    1    3    3    0    0 -0.62923538270E-01 -0.57949146122E-01 -0.82587246969E-01  0.88799669401E+00  0.88000000000E+00 0.  1.
        -11    1    4    4    0    0  0.54262456200E-01  0.45689323086E-01  0.81807403234E-01  0.10828038023E+00  0.51100000000E-03 0.  1.
         11    1    4    4    0    0  0.10743499590E-01  0.14190442022E-02  0.21552663466E-01  0.24129129561E-01  0.51100000000E-03 0. -1.
</event>
<event>
 8    1  0.1051655E+005  0.1043930E+01  0.7957747E-01            NaN
         13   -1    0    0    0    0  0.00000000000E+00  0.00000000000E+00  0.74505805969E-08  0.10566000000E+00  0.10566000000E+00 0.  1.
     999900   -1    0    0    0    0 -0.00000000000E+00 -0.00000000000E+00 -0.74505805969E-08  0.93827000000E+00  0.93827000000E+00 0.  1.
     999902    2    1    2    0    0  0.62489509022E-02 -0.17116988875E-01  0.19511970612E-01  0.10172324778E+01  0.10168820758E+01 0.  0.
     999903    2    3    3    0    0 -0.24299720930E-01 -0.97436509090E-01  0.81658881043E-01  0.13086535003E+00  0.19318831344E-01 0.  0.
         14    1    1    2    0    0 -0.62489509022E-02  0.17116988875E-01 -0.19511970612E-01  0.26697522220E-01  0.00000000000E+00 0. -1.
     999901    1    3    3    0    0  0.30548671832E-01  0.80319520216E-01 -0.62146910430E-01  0.88636712775E+00  0.88000000000E+00 0. -1.
        -11    1    4    4    0    0 -0.15791739305E-01 -0.87725892263E-01  0.73954849659E-01  0.11582224360E+00  0.51100000000E-03 0. -1.
         11    1    4    4    0    0 -0.85079816250E-02 -0.97106168271E-02  0.77040313835E-02  0.15043106430E-01  0.51100000000E-03 0.  1.
</event>
<event>
 8    1  0.1051655E+005  0.1043930E+01  0.7957747E-01            NaN
         13   -1    0    0    0    0  0.00000000000E+00  0.00000000000E+00  0.74505805969E-08  0.10566000000E+00  0.10566000000E+00 0.  1.
     999900   -1    0    0    0    0 -0.00000000000E+00 -0.00000000000E+00 -0.74505805969E-08  0.93827000000E+00  0.93827000000E+00 0. -1.
     999902    2    1    2    0    0  0.74683426830E-02  0.22335111593E-01 -0.66516597898E-02  0.10194580174E+01  0.10191642514E+01 0.  0.
     999903    2    3    3    0    0 -0.12354915816E+00 -0.11866543905E-01 -0.28251656191E-01  0.12883918842E+00  0.19904046037E-01 0.  0.
         14    1    1    2    0    0 -0.74683426830E-02 -0.22335111593E-01  0.66516597898E-02  0.24471982556E-01  0.00000000000E+00 0. -1.
     999901    1    3    3    0    0  0.13101750084E+00  0.34201655498E-01  0.21599996401E-01  0.89061882902E+00  0.88000000000E+00 0. -1.
        -11    1    4    4    0    0 -0.71386048212E-01  0.12475461333E-02 -0.10323150445E-01  0.72141200480E-01  0.51100000000E-03 0. -1.
         11    1    4    4    0    0 -0.52163109950E-01 -0.13114090039E-01 -0.17928505746E-01  0.56697987940E-01  0.51100000000E-03 0.  1.
</event>
<event>
 8    1  0.1051655E+005  0.1043930E+01  0.7957747E-01            NaN
         13   -1    0    0    0    0  0.00000000000E+00  0.00000000000E+00  0.74505805969E-08  0.10566000000E+00  0.10566000000E+00 0. -1.
     999900   -1    0    0    0    0 -0.00000000000E+00 -0.00000000000E+00 -0.74505805969E-08  0.93827000000E+00  0.93827000000E+00 0. -1.
     999902    2    1    2    0    0 -0.20956973925E-02 -0.29331188421E-01 -0.28241918469E-03  0.10145226825E+01  0.10140963874E+01 0.  0.
     999903    2    3    3    0    0  0.45706758888E-01  0.85255343868E-01 -0.73373779796E-01  0.12280664295E+00  0.18443929189E-01 0.  0.
         14    1    1    2    0    0  0.20956973925E-02  0.29331188421E-01  0.28241918469E-03  0.29407317497E-01  0.00000000000E+00 0. -1.
     999901    1    3    3    0    0 -0.47802456280E-01 -0.11458653229E+00  0.73091360611E-01  0.89171603956E+00  0.88000000000E+00 0. -1.
        -11    1    4    4    0    0  0.70852540802E-02  0.13432898935E-01 -0.20874023589E-01  0.25819170803E-01  0.51100000000E-03 0. -1.
         11    1    4    4    0    0  0.38621504807E-01  0.71822444933E-01 -0.52499756207E-01  0.96987472142E-01  0.51100000000E-03 0.  1.
</event>
<event>
 8    1  0.1051655E+005  0.1043930E+01  0.7957747E-01            NaN
         13   -1    0    0    0    0  0.00000000000E+00  0.00000000000E+00  0.74505805969E-08  0.10566000000E+00  0.10566000000E+00 0.  1.
     999900   -1    0    0    0    0 -0.00000000000E+00 -0.00000000000E+00 -0.74505805969E-08  0.93827000000E+00  0.93827000000E+00 0.  1.
     999902    2    1    2    0    0 -0.12970996305E-01  0.20354890240E-02  0.19069712859E-01  0.10207773779E+01  0.10205147776E+01 0.  0.
     999903    2    3    3    0    0 -0.93518302131E-01  0.23603124885E-01 -0.86278341571E-01  0.13058007172E+00  0.17447709544E-01 0.  0.
         14    1    1    2    0    0  0.12970996305E-01 -0.20354890240E-02 -0.19069712859E-01  0.23152622081E-01  0.00000000000E+00 0. -1.
     999901    1    3    3    0    0  0.80547305825E-01 -0.21567635861E-01  0.10534805443E+00  0.89019730620E+00  0.88000000000E+00 0. -1.
        -11    1    4    4    0    0 -0.37518285339E-01  0.87634374887E-02 -0.23399133396E-01  0.45079930524E-01  0.51100000000E-03 0. -1.
         11    1    4    4    0    0 -0.56000016792E-01  0.14839687396E-01 -0.62879208175E-01  0.85500141195E-01  0.51100000000E-03 0.  1.
</event>
<event>
 8    1  0.1051655E+005  0.1043930E+01  0.7957747E-01            NaN
         13   -1    0    0    0    0  0.00000000000E+00  0.00000000000E+00  0.74505805969E-08  0.10566000000E+00  0.10566000000E+00 0.  1.
     999900   -1    0    0    0    0 -0.00000000000E+00 -0.00000000000E+00 -0.74505805969E-08  0.93827000000E+00  0.93827000000E+00 0. -1.
     999902    2    1    2    0    0 -0.11853396391E-01 -0.35245628424E-02  0.20431928932E-01  0.10200471763E+01  0.10197675483E+01 0.  0.
     999903    2    3    3    0    0 -0.19491677147E-01  0.27774942861E-01  0.12700930756E+00  0.13303153942E+00  0.20363038663E-01 0.  0.
         14    1    1    2    0    0  0.11853396391E-01  0.35245628424E-02 -0.20431928932E-01  0.23882823726E-01  0.00000000000E+00 0. -1.
     999901    1    3    3    0    0  0.76382807557E-02 -0.31299505704E-01 -0.10657737863E+00  0.88701563686E+00  0.88000000000E+00 0.  1.
        -11    1    4    4    0    0 -0.18525692150E-02  0.18470330763E-01  0.76588073635E-01  0.78807228572E-01  0.51100000000E-03 0.  1.
         11    1    4    4    0    0 -0.17639107932E-01  0.93046120986E-02  0.50421233928E-01  0.54224310847E-01  0.51100000000E-03 0. -1.
</event>
<event>
 8    1  0.1051655E+005  0.1043930E+01  0.7957747E-01            NaN
         13   -1    0    0    0    0  0.00000000000E+00  0.00000000000E+00  0.74505805969E-08  0.10566000000E+00  0.10566000000E+00 0. -1.
     999900   -1    0    0    0    0 -0.00000000000E+00 -0.00000000000E+00 -0.74505805969E-08  0.93827000000E+00  0.93827000000E+00 0. -1.
     999902    2    1    2    0    0 -0.44832626276E-02  0.22679930888E-01 -0.24681653423E-02  0.10206798226E+01  0.10204149791E+01 0.  0.
     999903    2    3    3    0    0 -0.55010803958E-01 -0.10235185560E+00  0.52086468893E-01  0.12873689383E+00  0.18923442994E-01 0.  0.
         14    1    1    2    0    0  0.44832626276E-02 -0.22679930888E-01  0.24681653423E-02  0.23250177398E-01  0.00000000000E+00 0. -1.
     999901    1    3    3    0    0  0.50527541330E-01  0.12503178649E+00 -0.54554634235E-01  0.89194292877E+00  0.88000000000E+00 0. -1.
        -11    1    4    4    0    0 -0.17904656060E-01 -0.30862709759E-01  0.25709541754E-01  0.43980964297E-01  0.51100000000E-03 0. -1.
         11    1    4    4    0    0 -0.37106147897E-01 -0.71489145843E-01  0.26376927138E-01  0.84755929535E-01  0.51100000000E-03 0.  1.
</event>
<event>
 8    1  0.1051655E+005  0.1043930E+01  0.7957747E-01            NaN
         13   -1    0    0    0    0  0.00000000000E+00  0.00000000000E+00  0.74505805969E-08  0.10566000000E+00  0.10566000000E+00 0. -1.
     999900   -1    0    0    0    0 -0.00000000000E+00 -0.00000000000E+00 -0.74505805969E-08  0.93827000000E+00  0.93827000000E+00 0.  1.
     999902    2    1    2    0    0 -0.74887951010E-02  0.17157298997E-01 -0.14597884874E-02  0.10251527280E+01  0.10249807461E+01 0.  0.
     999903    2    3    3    0    0  0.17077619437E-02  0.55816249678E-01  0.12197929089E+00  0.13564932866E+00  0.20085387274E-01 0.  0.
         14    1    1    2    0    0  0.74887951010E-02 -0.17157298997E-01  0.14597884874E-02  0.18777271990E-01  0.00000000000E+00 0.  1.
     999901    1    3    3    0    0 -0.91965570447E-02 -0.38658950681E-01 -0.12343907938E+00  0.88950339935E+00  0.88000000000E+00 0.  1.
        -11    1    4    4    0    0  0.27151230718E-02  0.36237675187E-02  0.25951361203E-01  0.26348393758E-01  0.51100000000E-03 0.  1.
         11    1    4    4    0    0 -0.10073611281E-02  0.52192482159E-01  0.96027929688E-01  0.10930093491E+00  0.51100000000E-03 0. -1.
</event>
<event>
 8    1  0.1051655E+005  0.1043930E+01  0.7957747E-01            NaN
         13   -1    0    0    0    0  0.00000000000E+00  0.00000000000E+00  0.74505805969E-08  0.10566000000E+00  0.10566000000E+00 0. -1.
     999900   -1    0    0    0    0 -0.00000000000E+00 -0.00000000000E+00 -0.74505805969E-08  0.93827000000E+00  0.93827000000E+00 0.  1.
     999902    2    1    2    0    0 -0.15950327500E-01  0.18433599154E-01  0.33050352492E-02  0.10193305329E+01  0.10190336606E+01 0.  0.
     999903    2    3    3    0    0 -0.66801806308E-06  0.42185409061E-01  0.12223800444E+00  0.13086917115E+00  0.20124648786E-01 0.  0.
         14    1    1    2    0    0  0.15950327500E-01 -0.18433599154E-01 -0.33050352492E-02  0.24599467131E-01  0.00000000000E+00 0.  1.
     999901    1    3    3    0    0 -0.15949659482E-01 -0.23751809907E-01 -0.11893296919E+00  0.88846136172E+00  0.88000000000E+00 0.  1.
        -11    1    4    4    0    0 -0.12186234845E-02  0.18660940310E-01  0.83154821547E-01  0.85233216553E-01  0.51100000000E-03 0.  1.
         11    1    4    4    0    0  0.12179554664E-02  0.23524468751E-01  0.39083182895E-01  0.45635954595E-01  0.51100000000E-03 0. -1.
</event>
<event>
 8    1  0.1051655E+005  0.1043930E+01  0.7957747E-01            NaN
         13   -1    0    0    0    0  0.00000000000E+00  0.00000000000E+00  0.74505805969E-08  0.10566000000E+00  0.10566000000E+00 0.  1.
     999900   -1    0    0    0    0 -0.00000000000E+00 -0.00000000000E+00 -0.74505805969E-08  0.93827000000E+00  0.93827000000E+00 0. -1.
     999902    2    1    2    0    0  0.97791917267E-02 -0.68355290621E-02 -0.19852116246E-01  0.10207683168E+01  0.10205055086E+01 0.  0.
     999903    2    3    3    0    0 -0.23167810318E-01  0.67929254321E-01 -0.10971175287E+00  0.13242714808E+00  0.18685550689E-01 0.  0.
         14    1    1    2    0    0 -0.97791917267E-02  0.68355290621E-02  0.19852116246E-01  0.23161683182E-01  0.00000000000E+00 0.  1.
     999901    1    3    3    0    0  0.32947002044E-01 -0.74764783383E-01  0.89859636620E-01  0.88834116874E+00  0.88000000000E+00 0.  1.
        -11    1    4    4    0    0 -0.11638602177E-02  0.41126828504E-02 -0.93317960986E-03  0.44046198495E-02  0.51100000000E-03 0.  1.
         11    1    4    4    0    0 -0.22003950100E-01  0.63816571471E-01 -0.10877857326E+00  0.12802252823E+00  0.51100000000E-03 0. -1.
</event>
<event>
 8    1  0.1051655E+005  0.1043930E+01  0.7957747E-01            NaN
         13   -1    0    0    0    0  0.00000000000E+00  0.00000000000E+00  0.74505805969E-08  0.10566000000E+00  0.10566000000E+00 0. -1.
     999900   -1    0    0    0    0 -0.00000000000E+00 -0.00000000000E+00 -0.74505805969E-08  0.93827000000E+00  0.93827000000E+00 0. -1.
     999902    2    1    2    0    0  0.18108632613E-01  0.14643878503E-01  0.48353018800E-02  0.10201445865E+01  0.10198672617E+01 0.  0.
     999903    2    3    3    0    0 -0.57103115173E-01  0.99355600871E-02  0.11445605504E+00  0.13014701074E+00  0.21876351459E-01 0.  0.
         14    1    1    2    0    0 -0.18108632613E-01 -0.14643878503E-01 -0.48353018800E-02  0.23785413534E-01  0.00000000000E+00 0.  1.
     999901    1    3    3    0    0  0.75211747786E-01  0.47083184162E-02 -0.10962075316E+00  0.88999757572E+00  0.88000000000E+00 0. -1.
        -11    1    4    4    0    0 -0.12574944130E-01 -0.30231930441E-02  0.43447580643E-01  0.45334559673E-01  0.51100000000E-03 0.  1.
         11    1    4    4    0    0 -0.44528171043E-01  0.12958753131E-01  0.71008474398E-01  0.84812451070E-01  0.51100000000E-03 0. -1.
</event>
<event>
 8    1  0.1051655E+005  0.1043930E+01  0.7957747E-01            NaN
         13   -1    0    0    0    0  0.00000000000E+00  0.00000000000E+00  0.74505805969E-08  0.10566000000E+00  0.10566000000E+00 0.  1.
     999900   -1    0    0    0    0 -0.00000000000E+00 -0.00000000000E+00 -0.74505805969E-08  0.93827000000E+00  0.93827000000E+00 0.  1.
     999902    2    1    2    0    0  0.14255542233E-01  0.35514167623E-02 -0.18053459355E-01  0.10206542521E+01  0.10203888190E+01 0.  0.
     999903    2    3    3    0    0  0.93343375234E-01  0.70233535825E-02 -0.93920670403E-01  0.13384944078E+00  0.18228199939E-01 0.  0.
         14    1    1    2    0    0 -0.14255542233E-01 -0.35514167623E-02  0.18053459355E-01  0.23275747894E-01  0.00000000000E+00 0.  1.
     999901    1    3    3    0    0 -0.79087833002E-01 -0.34719368202E-02  0.75867211049E-01  0.88680481132E+00  0.88000000000E+00 0.  1.
        -11    1    4    4    0    0  0.42292873274E-01  0.14676771148E-02 -0.55076754899E-01  0.69458989750E-01  0.51100000000E-03 0.  1.
         11    1    4    4    0    0  0.51050501960E-01  0.55556764677E-02 -0.38843915504E-01  0.64390451032E-01  0.51100000000E-03 0. -1.
</event>
<event>
 8    1  0.1051655E+005  0.1043930E+01  0.7957747E-01            NaN
         13   -1    0    0    0    0  0.00000000000E+00  0.00000000000E+00  0.74505805969E-08  0.10566000000E+00  0.10566000000E+00 0. -1.
     999900   -1    0    0    0    0 -0.00000000000E+00 -0.00000000000E+00 -0.74505805969E-08  0.93827000000E+00  0.93827000000E+00 0.  1.
     999902    2    1    2    0    0 -0.19870776576E-01  0.94753504580E-02  0.21950168835E-01  0.10128423829E+01  0.10123651775E+01 0.  0.
     999903    2    3    3    0    0  0.89534945860E-01 -0.34026872925E-01  0.74974826637E-01  0.12341915970E+00  0.20898079852E-01 0.  0.
         14    1    1    2    0    0  0.19870776576E-01 -0.94753504580E-02 -0.21950168835E-01  0.31087617148E-01  0.00000000000E+00 0.  1.
     999901    1    3    3    0    0 -0.10940572244E+00  0.43502223383E-01 -0.53024657802E-01  0.88942322315E+00  0.88000000000E+00 0. -1.
        -11    1    4    4    0    0  0.71197305233E-01 -0.22044473327E-01  0.47940881083E-01  0.88620563510E-01  0.51100000000E-03 0.  1.
         11    1    4    4    0    0  0.18337640627E-01 -0.11982399598E-01  0.27033945553E-01  0.34798596194E-01  0.51100000000E-03 0. -1.
</event>
<event>
 8    1  0.1051655E+005  0.1043930E+01  0.7957747E-01            NaN
         13   -1    0    0    0    0  0.00000000000E+00  0.00000000000E+00  0.74505805969E-08  0.10566000000E+00  0.10566000000E+00 0.  1.
     999900   -1    0    0    0    0 -0.00000000000E+00 -0.00000000000E+00 -0.74505805969E-08  0.93827000000E+00  0.93827000000E+00 0.  1.
     999902    2    1    2    0    0 -0.16370464429E-01 -0.14964913186E-01 -0.29131728688E-02  0.10215597674E+01  0.10213148050E+01 0.  0.
     999903    2    3    3    0    0  0.18100826536E-02  0.21949905385E-01  0.12753862983E+00  0.13099202207E+00  0.20192399556E-01 0.  0.
         14    1    1    2    0    0  0.16370464429E-01  0.14964913186E-01  0.29131728688E-02  0.22370232642E-01  0.00000000000E+00 0.  1.
     999901    1    3    3    0    0 -0.18180547083E-01 -0.36914818571E-01 -0.13045180270E+00  0.89056774529E+00  0.88000000000E+00 0.  1.
        -11    1    4    4    0    0  0.10981358824E-01  0.10704122374E-01  0.63396291449E-01  0.65226676811E-01  0.51100000000E-03 0.  1.
         11    1    4    4    0    0 -0.91712761708E-02  0.11245783011E-01  0.64142338386E-01  0.65765345257E-01  0.51100000000E-03 0. -1.
</event>
<event>
 8    1  0.1051655E+005  0.1043930E+01  0.7957747E-01            NaN
         13   -1    0    0    0    0  0.00000000000E+00  0.00000000000E+00  0.74505805969E-08  0.10566000000E+00  0.10566000000E+00 0.  1.
     999900   -1    0    0    0    0 -0.00000000000E+00 -0.00000000000E+00 -0.74505805969E-08  0.93827000000E+00  0.93827000000E+00 0.  1.
     999902    2    1    2    0    0  0.19749291942E-01  0.13729285194E-01 -0.21413401505E-02  0.10197822643E+01  0.10194963234E+01 0.  0.
     999903    2    3    3    0    0 -0.19176271105E-01 -0.12382845928E+00  0.17121511015E-01  0.12803768762E+00  0.19982157300E-01 0.  0.
         14    1    1    2    0    0 -0.19749291942E-01 -0.13729285194E-01  0.21413401505E-02  0.24147735749E-01  0.00000000000E+00 0.  1.
     999901    1    3    3    0    0  0.38925563047E-01  0.13755774447E+00 -0.19262851166E-01  0.89174457663E+00  0.88000000000E+00 0.  1.
        -11    1    4    4    0    0  0.23536015256E-03 -0.36770410289E-01 -0.19417129688E-02  0.36825939736E-01  0.51100000000E-03 0.  1.
         11    1    4    4    0    0 -0.19411631258E-01 -0.87058048988E-01  0.19063223984E-01  0.91211747880E-01  0.51100000000E-03 0. -1.
</event>
<event>
 8    1  0.1051655E+005  0.1043930E+01  0.7957747E-01            NaN
         13   -1    0    0    0    0  0.00000000000E+00  0.00000000000E+00  0.74505805969E-08  0.10566000000E+00  0.10566000000E+00 0.  1.
     999900   -1    0    0    0    0 -0.00000000000E+00 -0.00000000000E+00 -0.74505805969E-08  0.93827000000E+00  0.93827000000E+00 0.  1.
     999902    2    1    2    0    0 -0.11607740758E-01 -0.15601211093E-01 -0.78707975504E-02  0.10229517520E+01  0.10227366231E+01 0.  0.
     999903    2    3    3    0    0 -0.11497086969E+00 -0.46718043463E-01  0.48765750061E-01  0.13454875104E+00  0.18010873527E-01 0.  0.
         14    1    1    2    0    0  0.11607740758E-01  0.15601211093E-01  0.78707975504E-02  0.20978247953E-01  0.00000000000E+00 0.  1.
     999901    1    3    3    0    0  0.10336312893E+00  0.31116832370E-01 -0.56636547612E-01  0.88840300101E+00  0.88000000000E+00 0. -1.
        -11    1    4    4    0    0 -0.30140482868E-01 -0.19589855517E-01  0.93126334696E-02  0.37137547171E-01  0.51100000000E-03 0.  1.
         11    1    4    4    0    0 -0.84830386818E-01 -0.27128187946E-01  0.39453116592E-01  0.97411203866E-01  0.51100000000E-03 0. -1.
</event>
<event>
 8    1  0.1051655E+005  0.1043930E+01  0.7957747E-01            NaN
         13   -1    0    0    0    0  0.00000000000E+00  0.00000000000E+00  0.74505805969E-08  0.10566000000E+00  0.10566000000E+00 0. -1.
     999900   -1    0    0    0    0 -0.00000000000E+00 -0.00000000000E+00 -0.74505805969E-08  0.93827000000E+00  0.93827000000E+00 0. -1.
     999902    2    1    2    0    0  0.53995744992E-02  0.23676139769E-01  0.29384980790E-02  0.10194688109E+01  0.10191753072E+01 0.  0.
     999903    2    3    3    0    0  0.81584702375E-01  0.49499907645E-02  0.99989918783E-01  0.13066409638E+00  0.19863437632E-01 0.  0.
         14    1    1    2    0    0 -0.53995744992E-02 -0.23676139769E-01 -0.29384980790E-02  0.24461189058E-01  0.00000000000E+00 0. -1.
     999901    1    3    3    0    0 -0.76185127876E-01  0.18726149005E-01 -0.97051420704E-01  0.88880471456E+00  0.88000000000E+00 0. -1.
        -11    1    4    4    0    0  0.22637837955E-01  0.29544825216E-03  0.15134661398E-01  0.27237439189E-01  0.51100000000E-03 0. -1.
         11    1    4    4    0    0  0.58946864420E-01  0.46545425123E-02  0.84855257385E-01  0.10342665719E+00  0.51100000000E-03 0.  1.
</event>
<event>
 8    1  0.1051655E+005  0.1043930E+01  0.7957747E-01            NaN
         13   -1    0    0    0    0  0.00000000000E+00  0.00000000000E+00  0.74505805969E-08  0.10566000000E+00  0.10566000000E+00 0.  1.
     999900   -1    0    0    0    0 -0.00000000000E+00 -0.00000000000E+00 -0.74505805969E-08  0.93827000000E+00  0.93827000000E+00 0. -1.
     999902    2    1    2    0    0  0.24036811373E-01 -0.44457552569E-02  0.96240647292E-03  0.10194665729E+01  0.10191730147E+01 0.  0.
     999903    2    3    3    0    0  0.62639086900E-01  0.30791996732E-02 -0.11377051121E+00  0.13114770950E+00  0.17968188717E-01 0.  0.
         14    1    1    2    0    0 -0.24036811373E-01  0.44457552569E-02 -0.96240647292E-03  0.24463427131E-01  0.00000000000E+00 0.  1.
     999901    1    3    3    0    0 -0.38602275527E-01 -0.75249549301E-02  0.11473291769E+00  0.88831886337E+00  0.88000000000E+00 0.  1.
        -11    1    4    4    0    0  0.39529230208E-01 -0.11323859253E-02 -0.54070714502E-01  0.66990638350E-01  0.51100000000E-03 0. -1.
         11    1    4    4    0    0  0.23109856692E-01  0.42115855985E-02 -0.59699796713E-01  0.64157071147E-01  0.51100000000E-03 0.  1.
</event>
<event>
 8    1  0.1051655E+005  0.1043930E+01  0.7957747E-01            NaN
         13   -1    0    0    0    0  0.00000000000E+00  0.00000000000E+00  0.74505805969E-08  0.10566000000E+00  0.10566000000E+00 0.  1.
     999900   -1    0    0    0    0 -0.00000000000E+00 -0.00000000000E+00 -0.74505805969E-08  0.93827000000E+00  0.93827000000E+00 0. -1.
     999902    2    1    2    0    0  0.66127012894E-02 -0.13237563578E-01 -0.17871582052E-01  0.10207275356E+01  0.10204637905E+01 0.  0.
     999903    2    3    3    0    0 -0.50245851394E-01  0.34785049273E-01  0.11089684970E+00  0.12824763369E+00  0.20364160599E-01 0.  0.
         14    1    1    2    0    0 -0.66127012894E-02  0.13237563578E-01  0.17871582052E-01  0.23202464371E-01  0.00000000000E+00 0.  1.
     999901    1    3    3    0    0  0.56858552683E-01 -0.48022612850E-01 -0.12876843175E+00  0.89247990194E+00  0.88000000000E+00 0.  1.
        -11    1    4    4    0    0 -0.14067523475E-01  0.21580557131E-01  0.40451438525E-01  0.47960355113E-01  0.51100000000E-03 0.  1.
         11    1    4    4    0    0 -0.36178327919E-01  0.13204492141E-01  0.70445411176E-01  0.80287278572E-01  0.51100000000E-03 0. -1.
</event>
<event>
 8    1  0.1051655E+005  0.1043930E+01  0.7957747E-01            NaN
         13   -1    0    0    0    0  0.00000000000E+00  0.00000000000E+00  0.74505805969E-08  0.10566000000E+00  0.10566000000E+00 0.  1.
     999900   -1    0    0    0    0 -0.00000000000E+00 -0.00000000000E+00 -0.74505805969E-08  0.93827000000E+00  0.93827000000E+00 0. -1.
     999902    2    1    2    0    0  0.10895637036E-01  0.18311768353E-01  0.60900966605E-02  0.10217686588E+01  0.10215282997E+01 0.  0.
     999903    2    3    3    0    0  0.36150023223E-01  0.12498728798E+00 -0.27666628114E-01  0.13432459466E+00  0.18681758045E-01 0.  0.
         14    1    1    2    0    0 -0.10895637036E-01 -0.18311768353E-01 -0.60900966605E-02  0.22161341204E-01  0.00000000000E+00 0.  1.
     999901    1    3    3    0    0 -0.25254386187E-01 -0.10667551962E+00  0.33756724774E-01  0.88744406414E+00  0.88000000000E+00 0. -1.
        -11    1    4    4    0    0  0.18718085977E-01  0.35561770751E-01 -0.55831780675E-02  0.40576338917E-01  0.51100000000E-03 0.  1.
         11    1    4    4    0    0  0.17431937246E-01  0.89425517226E-01 -0.22083450046E-01  0.93748255739E-01  0.51100000000E-03 0. -1.
</event>
<event>
 8    1  0.1051655E+005  0.1043930E+01  0.7957747E-01            NaN
         13   -1    0    0    0    0  0.00000000000E+00  0.00000000000E+00  0.74505805969E-08  0.10566000000E+00  0.10566000000E+00 0.  1.
     999900   -1    0    0    0    0 -0.00000000000E+00 -0.00000000000E+00 -0.74505805969E-08  0.93827000000E+00  0.93827000000E+00 0.  1.
     999902    2    1    2    0    0  0.94898095303E-02  0.17437947472E-01 -0.10355530375E-01  0.10215385841E+01  0.10212931525E+01 0.  0.
     999903    2    3    3    0    0  0.45541833061E-01  0.82952122093E-01  0.89088646990E-01  0.13278608768E+00  0.27207442720E-01 0.  0.
         14    1    1    2    0    0 -0.94898095303E-02 -0.17437947472E-01  0.10355530375E-01  0.22391415907E-01  0.00000000000E+00 0.  1.
     999901    1    3    3    0    0 -0.36052023531E-01 -0.65514174621E-01 -0.99444177365E-01  0.88875249642E+00  0.88000000000E+00 0.  1.
        -11    1    4    4    0    0  0.91167393374E-02  0.22973407676E-01  0.40439625228E-01  0.47397434593E-01  0.51100000000E-03 0. -1.
         11    1    4    4    0    0  0.36425093724E-01  0.59978714417E-01  0.48649021762E-01  0.85388653083E-01  0.51100000000E-03 0.  1.
</event>
<event>
 8    1  0.1051655E+005  0.1043930E+01  0.7957747E-01            NaN
         13   -1    0    0    0    0  0.00000000000E+00  0.00000000000E+00  0.74505805969E-08  0.10566000000E+00  0.10566000000E+00 0. -1.
     999900   -1    0    0    0    0 -0.00000000000E+00 -0.00000000000E+00 -0.74505805969E-08  0.93827000000E+00  0.93827000000E+00 0.  1.
     999902    2    1    2    0    0  0.14479963737E-01 -0.82694227744E-02 -0.15970393113E-01  0.10208409082E+01  0.10205797635E+01 0.  0.
     999903    2    3    3    0    0  0.24683917511E-01  0.11503285067E+00  0.49989622521E-01  0.12974142165E+00  0.22181560250E-01 0.  0.
         14    1    1    2    0    0 -0.14479963737E-01  0.82694227744E-02  0.15970393113E-01  0.23089091776E-01  0.00000000000E+00 0.  1.
     999901    1    3    3    0    0 -0.10203953774E-01 -0.12330227344E+00 -0.65960015634E-01  0.89109948657E+00  0.88000000000E+00 0.  1.
        -11    1    4    4    0    0  0.12429589815E-01  0.74176647657E-01  0.20742134493E-01  0.78020298800E-01  0.51100000000E-03 0.  1.
         11    1    4    4    0    0  0.12254327696E-01  0.40856203014E-01  0.29247488028E-01  0.51721122850E-01  0.51100000000E-03 0. -1.
</event>
<event>
 8    1  0.1051655E+005  0.1043930E+01  0.7957747E-01            NaN
         13   -1    0    0    0    0  0.00000000000E+00  0.00000000000E+00  0.74505805969E-08  0.10566000000E+00  0.10566000000E+00 0. -1.
     999900   -1    0    0    0    0 -0.00000000000E+00 -0.00000000000E+00 -0.74505805969E-08  0.93827000000E+00  0.93827000000E+00 0. -1.
     999902    2    1    2    0    0 -0.71025756018E-03 -0.70383633423E-02 -0.22154270184E-01  0.10206737167E+01  0.10204087325E+01 0.  0.
     999903    2    3    3    0    0  0.29073334018E-01  0.46124471649E-01  0.11424164477E+00  0.12808355603E+00  0.19532493192E-01 0.  0.
         14    1    1    2    0    0  0.71025756018E-03  0.70383633423E-02  0.22154270184E-01  0.23256283274E-01  0.00000000000E+00 0. -1.
     999901    1    3    3    0    0 -0.29783591579E-01 -0.53162834991E-01 -0.13639591495E+00  0.89259016069E+00  0.88000000000E+00 0. -1.
        -11    1    4    4    0    0  0.19771878573E-01  0.24568225065E-01  0.44878518694E-01  0.54853144179E-01  0.51100000000E-03 0.  1.
         11    1    4    4    0    0  0.93014554458E-02  0.21556246584E-01  0.69363126076E-01  0.73230411853E-01  0.51100000000E-03 0. -1.
</event>
<event>
 8    1  0.1051655E+005  0.1043930E+01  0.7957747E-01            NaN
         13   -1    0    0    0    0  0.00000000000E+00  0.00000000000E+00  0.74505805969E-08  0.10566000000E+00  0.10566000000E+00 0. -1.
     999900   -1    0    0    0    0 -0.00000000000E+00 -0.00000000000E+00 -0.74505805969E-08  0.93827000000E+00  0.93827000000E+00 0. -1.
     999902    2    1    2    0    0 -0.21114547164E-02  0.10637552525E-01  0.20951891463E-01  0.10203376809E+01  0.10200648928E+01 0.  0.
     999903    2    3    3    0    0  0.41578651547E-01  0.12314562875E+00  0.13274330674E-01  0.13206641741E+00  0.19279538560E-01 0.  0.
         14    1    1    2    0    0  0.21114547164E-02 -0.10637552525E-01 -0.20951891463E-01  0.23592319102E-01  0.00000000000E+00 0.  1.
     999901    1    3    3    0    0 -0.43690106264E-01 -0.11250807623E+00  0.76775607883E-02  0.88827126349E+00  0.88000000000E+00 0.  1.
        -11    1    4    4    0    0  0.19460113333E-01  0.80585157134E-01  0.14090083329E-01  0.84091944504E-01  0.51100000000E-03 0. -1.
         11    1    4    4    0    0  0.22118538214E-01  0.42560471618E-01 -0.81575265489E-03  0.47974472905E-01  0.51100000000E-03 0.  1.
</event>
<event>
 8    1  0.1051655E+005  0.1043930E+01  0.7957747E-01            NaN
         13   -1    0    0    0    0  0.00000000000E+00  0.00000000000E+00  0.74505805969E-08  0.10566000000E+00  0.10566000000E+00 0.  1.
     999900   -1    0    0    0    0 -0.00000000000E+00 -0.00000000000E+00 -0.74505805969E-08  0.93827000000E+00  0.93827000000E+00 0.  1.
     999902    2    1    2    0    0 -0.11421745547E-01  0.20292048832E-01 -0.59399776198E-02  0.10198986278E+01  0.10196154687E+01 0.  0.
     999903    2    3    3    0    0  0.45508442680E-01  0.11890381143E+00  0.28097782029E-01  0.13190994815E+00  0.20040317813E-01 0.  0.
         14    1    1    2    0    0  0.11421745547E-01 -0.20292048832E-01  0.59399776198E-02  0.24031372230E-01  0.00000000000E+00 0.  1.
     999901    1    3    3    0    0 -0.56930188227E-01 -0.98611762597E-01 -0.34037759648E-01  0.88798867962E+00  0.88000000000E+00 0.  1.
        -11    1    4    4    0    0  0.39963998065E-02  0.12311115789E-01  0.93885114805E-02  0.15998126522E-01  0.51100000000E-03 0. -1.
         11    1    4    4    0    0  0.41512042874E-01  0.10659269564E+00  0.18709270548E-01  0.11591182163E+00  0.51100000000E-03 0.  1.
</event>
<event>
 8    1  0.1051655E+005  0.1043930E+01  0.7957747E-01            NaN
         13   -1    0    0    0    0  0.00000000000E+00  0.00000000000E+00  0.74505805969E-08  0.10566000000E+00  0.10566000000E+00 0.  1.
     999900   -1    0    0    0    0 -0.00000000000E+00 -0.00000000000E+00 -0.74505805969E-08  0.93827000000E+00  0.93827000000E+00 0. -1.
     999902    2    1    2    0    0  0.18927594473E-01 -0.13254477638E-01  0.63004418208E-02  0.10199794138E+01  0.10196981779E+01 0.  0.
     999903    2    3    3    0    0 -0.95993590312E-01 -0.70562147555E-01  0.47143191729E-01  0.12972148607E+00  0.20282933063E-01 0.  0.
         14    1    1    2    0    0 -0.18927594473E-01  0.13254477638E-01 -0.63004418208E-02  0.23950586155E-01  0.00000000000E+00 0. -1.
     999901    1    3    3    0    0  0.11492118479E+00  0.57307669916E-01 -0.40842749909E-01  0.89025792777E+00  0.88000000000E+00 0. -1.
        -11    1    4    4    0    0 -0.20232267677E-01 -0.20863112333E-01  0.19452959568E-01  0.34975603905E-01  0.51100000000E-03 0. -1.
         11    1    4    4    0    0 -0.75761322635E-01 -0.49699035222E-01  0.27690232162E-01  0.94745882167E-01  0.51100000000E-03 0.  1.
</event>
<event>
 8    1  0.1051655E+005  0.1043930E+01  0.7957747E-01            NaN
         13   -1    0    0    0    0  0.00000000000E+00  0.00000000000E+00  0.74505805969E-08  0.10566000000E+00  0.10566000000E+00 0.  1.
     999900   -1    0    0    0    0 -0.00000000000E+00 -0.00000000000E+00 -0.74505805969E-08  0.93827000000E+00  0.93827000000E+00 0.  1.
     999902    2    1    2    0    0 -0.59007579264E-02  0.18481426329E-01 -0.85434226130E-02  0.10227316007E+01  0.10225118850E+01 0.  0.
     999903    2    3    3    0    0 -0.41130861170E-02 -0.95515152774E-01 -0.88471688481E-01  0.13178438368E+00  0.19995555314E-01 0.  0.
         14    1    1    2    0    0  0.59007579264E-02 -0.18481426329E-01  0.85434226130E-02  0.21198399307E-01  0.00000000000E+00 0.  1.
     999901    1    3    3    0    0 -0.17876718094E-02  0.11399657910E+00  0.79928265868E-01  0.89094721701E+00  0.88000000000E+00 0.  1.
        -11    1    4    4    0    0  0.56575683195E-03 -0.15509357810E-01 -0.25518962060E-01  0.29872040541E-01  0.51100000000E-03 0.  1.
         11    1    4    4    0    0 -0.46788429489E-02 -0.80005794964E-01 -0.62952726422E-01  0.10191234314E+00  0.51100000000E-03 0. -1.
</event>
<event>
 8    1  0.1051655E+005  0.1043930E+01  0.7957747E-01            NaN
         13   -1    0    0    0    0  0.00000000000E+00  0.00000000000E+00  0.74505805969E-08  0.10566000000E+00  0.10566000000E+00 0. -1.
     999900   -1    0    0    0    0 -0.00000000000E+00 -0.00000000000E+00 -0.74505805969E-08  0.93827000000E+00  0.93827000000E+00 0. -1.
     999902    2    1    2    0    0 -0.42508513405E-02  0.20908780429E-01  0.93121277040E-02  0.10206499107E+01  0.10203843774E+01 0.  0.
     999903    2    3    3    0    0  0.11099728559E+00  0.42474784748E-01  0.53523955400E-01  0.13177314121E+00  0.19360841787E-01 0.  0.
         14    1    1    2    0    0  0.42508513405E-02 -0.20908780429E-01 -0.93121277040E-02  0.23280089316E-01  0.00000000000E+00 0.  1.
     999901    1    3    3    0    0 -0.11524813693E+00 -0.21566004318E-01 -0.44211827696E-01  0.88887676948E+00  0.88000000000E+00 0. -1.
        -11    1    4    4    0    0  0.54620689759E-01  0.19230351200E-01  0.36524172730E-01  0.68465337738E-01  0.51100000000E-03 0. -1.
         11    1    4    4    0    0  0.56376595829E-01  0.23244433547E-01  0.16999782670E-01  0.63307803469E-01  0.51100000000E-03 0.  1.
</event>
<event>
 8    1  0.1051655E+005  0.1043930E+01  0.7957747E-01            NaN
         13   -1    0    0    0    0  0.00000000000E+00  0.00000000000E+00  0.74505805969E-08  0.10566000000E+00  0.10566000000E+00 0.  1.
     999900   -1    0    0    0    0 -0.00000000000E+00 -0.00000000000E+00 -0.74505805969E-08  0.93827000000E+00  0.93827000000E+00 0. -1.
     999902    2    1    2    0    0  0.22285017102E-01  0.45410708757E-02  0.94003954146E-03  0.10211675971E+01  0.10209138722E+01 0.  0.
     999903    2    3    3    0    0 -0.10769469710E+00 -0.60495871507E-02 -0.67533794022E-01  0.12892572740E+00  0.20646659867E-01 0.  0.
         14    1    1    2    0    0 -0.22285017102E-01 -0.45410708757E-02 -0.94003954146E-03  0.22762402911E-01  0.00000000000E+00 0.  1.
     999901    1    3    3    0    0  0.12997971420E+00  0.10590658026E-01  0.68473833564E-01  0.89224186969E+00  0.88000000000E+00 0.  1.
        -11    1    4    4    0    0 -0.10132737787E+00 -0.10682955431E-01 -0.61744609537E-01  0.11913866279E+00  0.51100000000E-03 0.  1.
         11    1    4    4    0    0 -0.63673192216E-02  0.46333682805E-02 -0.57891844855E-02  0.97870646110E-02  0.51100000000E-03 0. -1.
</event>
<event>
 8    1  0.1051655E+005  0.1043930E+01  0.7957747E-01            NaN
         13   -1    0    0    0    0  0.00000000000E+00  0.00000000000E+00  0.74505805969E-08  0.10566000000E+00  0.10566000000E+00 0.  1.
     999900   -1    0    0    0    0 -0.00000000000E+00 -0.00000000000E+00 -0.74505805969E-08  0.93827000000E+00  0.93827000000E+00 0. -1.
     999902    2    1    2    0    0 -0.22318150742E-01  0.56311281593E-02  0.48264530230E-02  0.10204118346E+01  0.10201407785E+01 0.  0.
     999903    2    3    3    0    0  0.12402777041E+00  0.25165136302E-01 -0.47579537749E-03  0.12809640830E+00  0.19806350477E-01 0.  0.
         14    1    1    2    0    0  0.22318150742E-01 -0.56311281593E-02 -0.48264530230E-02  0.23518165440E-01  0.00000000000E+00 0.  1.
     999901    1    3    3    0    0 -0.14634592115E+00 -0.19534008143E-01  0.53022484005E-02  0.89231542626E+00  0.88000000000E+00 0. -1.
        -11    1    4    4    0    0  0.64081535601E-01  0.21281205057E-01  0.53733911617E-02  0.67738226632E-01  0.51100000000E-03 0. -1.
         11    1    4    4    0    0  0.59946234808E-01  0.38839312457E-02 -0.58491865392E-02  0.60358181664E-01  0.51100000000E-03 0.  1.
</event>
<event>
 8    1  0.1051655E+005  0.1043930E+01  0.7957747E-01            NaN
         13   -1    0    0    0    0  0.00000000000E+00  0.00000000000E+00  0.74505805969E-08  0.10566000000E+00  0.10566000000E+00 0.  1.
     999900   -1    0    0    0    0 -0.00000000000E+00 -0.00000000000E+00 -0.74505805969E-08  0.93827000000E+00  0.93827000000E+00 0.  1.
     999902    2    1    2    0    0  0.45017336706E-02 -0.18302260225E-01  0.14182685072E-01  0.10203421453E+01  0.10200694616E+01 0.  0.
     999903    2    3    3    0    0 -0.11428795399E+00 -0.72677146107E-02 -0.56993453845E-01  0.12944439925E+00  0.19825302350E-01 0.  0.
         14    1    1    2    0    0 -0.45017336706E-02  0.18302260225E-01 -0.14182685072E-01  0.23587854740E-01  0.00000000000E+00 0. -1.
     999901    1    3    3    0    0  0.11878968766E+00 -0.11034545614E-01  0.71176138917E-01  0.89089774601E+00  0.88000000000E+00 0. -1.
        -11    1    4    4    0    0 -0.32534175036E-01 -0.10407437068E-01 -0.20663816447E-01  0.39925452067E-01  0.51100000000E-03 0.  1.
         11    1    4    4    0    0 -0.81753778955E-01  0.31397224574E-02 -0.36329637398E-01  0.89518947185E-01  0.51100000000E-03 0. -1.
</event>
<event>
 8    1  0.1051655E+005  0.1043930E+01  0.7957747E-01            NaN
         13   -1    0    0    0    0  0.00000000000E+00  0.00000000000E+00  0.74505805969E-08  0.10566000000E+00  0.10566000000E+00 0.  1.
     999900   -1    0    0    0    0 -0.00000000000E+00 -0.00000000000E+00 -0.74505805969E-08  0.93827000000E+00  0.93827000000E+00 0. -1.
     999902    2    1    2    0    0 -0.18706875359E-03  0.24198534522E-01 -0.63345251843E-02  0.10189153987E+01  0.10186082954E+01 0.  0.
     999903    2    3    3    0    0 -0.10491782802E+00  0.48182158698E-01  0.56510922443E-01  0.13015598445E+00  0.20440765180E-01 0.  0.
         14    1    1    2    0    0  0.18706875359E-03 -0.24198534522E-01  0.63345251843E-02  0.25014601277E-01  0.00000000000E+00 0.  1.
     999901    1    3    3    0    0  0.10473075926E+00 -0.23983624176E-01 -0.62845447627E-01  0.88875941427E+00  0.88000000000E+00 0. -1.
        -11    1    4    4    0    0 -0.55765006215E-01  0.14387309931E-01  0.27313783350E-01  0.63741936644E-01  0.51100000000E-03 0.  1.
         11    1    4    4    0    0 -0.49152821803E-01  0.33794848767E-01  0.29197139093E-01  0.66414047810E-01  0.51100000000E-03 0. -1.
</event>
<event>
 8    1  0.1051655E+005  0.1043930E+01  0.7957747E-01            NaN
         13   -1    0    0    0    0  0.00000000000E+00  0.00000000000E+00  0.74505805969E-08  0.10566000000E+00  0.10566000000E+00 0.  1.
     999900   -1    0    0    0    0 -0.00000000000E+00 -0.00000000000E+00 -0.74505805969E-08  0.93827000000E+00  0.93827000000E+00 0. -1.
     999902    2    1    2    0    0 -0.18787679961E-01 -0.14022714191E-01 -0.34572828549E-02  0.10202326112E+01  0.10199573593E+01 0.  0.
     999903    2    3    3    0    0 -0.54304553218E-01 -0.11663041102E+00  0.27389917207E-01  0.13302275017E+00  0.19829453426E-01 0.  0.
         14    1    1    2    0    0  0.18787679961E-01  0.14022714191E-01  0.34572828549E-02  0.23697388808E-01  0.00000000000E+00 0.  1.
     999901    1    3    3    0    0  0.35516873257E-01  0.10260769683E+00 -0.30847200062E-01  0.88720986102E+00  0.88000000000E+00 0.  1.
        -11    1    4    4    0    0 -0.17259109706E-01 -0.32293943900E-01 -0.99310963464E-03  0.36633633019E-01  0.51100000000E-03 0. -1.
         11    1    4    4    0    0 -0.37045443512E-01 -0.84336467125E-01  0.28383026842E-01  0.96389117155E-01  0.51100000000E-03 0.  1.
</event>
<event>
 8    1  0.1116876E+005  0.1043930E+01  0.7957747E-01            NaN
         13   -1    0    0    0    0  0.00000000000E+00  0.00000000000E+00  0.74505805969E-08  0.10566000000E+00  0.10566000000E+00 0.  1.
     999900   -1    0    0    0    0 -0.00000000000E+00 -0.00000000000E+00 -0.74505805969E-08  0.93827000000E+00  0.93827000000E+00 0. -1.
     999902    2    1    2    0    0  0.15106415855E-01  0.55970685106E-02 -0.17033299386E-01  0.10204850802E+01  0.10202157295E+01 0.  0.
     999903    2    3    3    0    0  0.67394302498E-01  0.77326528331E-01 -0.83064017898E-01  0.13355825444E+00  0.20415490821E-01 0.  0.
         14    1    1    2    0    0 -0.15106415855E-01 -0.55970685106E-02  0.17033299386E-01  0.23444919788E-01  0.00000000000E+00 0.  1.
     999901    1    3    3    0    0 -0.52287886643E-01 -0.71729459821E-01  0.66030718512E-01  0.88692682578E+00  0.88000000000E+00 0.  1.
        -11    1    4    4    0    0  0.23325191190E-01  0.13369332817E-01 -0.22629641523E-01  0.35144919981E-01  0.51100000000E-03 0.  1.
         11    1    4    4    0    0  0.44069111308E-01  0.63957195514E-01 -0.60434376375E-01  0.98413334454E-01  0.51100000000E-03 0. -1.
</event>
<event>
 8    1  0.1051655E+005  0.1043930E+01  0.7957747E-01            NaN
         13   -1    0    0    0    0  0.00000000000E+00  0.00000000000E+00  0.74505805969E-08  0.10566000000E+00  0.10566000000E+00 0. -1.
     999900   -1    0    0    0    0 -0.00000000000E+00 -0.00000000000E+00 -0.74505805969E-08  0.93827000000E+00  0.93827000000E+00 0.  1.
     999902    2    1    2    0    0  0.20500063740E-01 -0.12506900263E-01 -0.60627454823E-02  0.10191624396E+01  0.10188614460E+01 0.  0.
     999903    2    3    3    0    0  0.93766399884E-01 -0.16325027659E-01  0.88285571322E-01  0.13108353597E+00  0.18163342864E-01 0.  0.
         14    1    1    2    0    0 -0.20500063740E-01  0.12506900263E-01  0.60627454823E-02  0.24767560443E-01  0.00000000000E+00 0. -1.
     999901    1    3    3    0    0 -0.73266336144E-01  0.38181273962E-02 -0.94348316804E-01  0.88807890358E+00  0.88000000000E+00 0.  1.
        -11    1    4    4    0    0  0.31078147122E-01 -0.14166544315E-01  0.31960591041E-01  0.46779084077E-01  0.51100000000E-03 0.  1.
         11    1    4    4    0    0  0.62688252762E-01 -0.21584833440E-02  0.56324980281E-01  0.84304451895E-01  0.51100000000E-03 0. -1.
</event>
<event>
 8    1  0.1051655E+005  0.1043930E+01  0.7957747E-01            NaN
         13   -1    0    0    0    0  0.00000000000E+00  0.00000000000E+00  0.74505805969E-08  0.10566000000E+00  0.10566000000E+00 0.  1.
     999900   -1    0    0    0    0 -0.00000000000E+00 -0.00000000000E+00 -0.74505805969E-08  0.93827000000E+00  0.93827000000E+00 0. -1.
     999902    2    1    2    0    0 -0.96987899037E-02 -0.20741828395E-01  0.49607597284E-02  0.10205014041E+01  0.10202324326E+01 0.  0.
     999903    2    3    3    0    0  0.12392141869E+00 -0.32412861065E-01  0.10108134065E-01  0.13032329345E+00  0.21791623822E-01 0.  0.
         14    1    1    2    0    0  0.96987899037E-02  0.20741828395E-01 -0.49607597284E-02  0.23428595943E-01  0.00000000000E+00 0. -1.
     999901    1    3    3    0    0 -0.13362020859E+00  0.11671032669E-01 -0.51473743369E-02  0.89017811061E+00  0.88000000000E+00 0.  1.
        -11    1    4    4    0    0  0.40215062121E-01 -0.17978942861E-01  0.10875671356E-01  0.45376590399E-01  0.51100000000E-03 0. -1.
         11    1    4    4    0    0  0.83706356565E-01 -0.14433918204E-01 -0.76753729044E-03  0.84946703048E-01  0.51100000000E-03 0.  1.
</event>
<event>
 8    1  0.1135573E+005  0.1043930E+01  0.7957747E-01            NaN
         13   -1    0    0    0    0  0.00000000000E+00  0.00000000000E+00  0.74505805969E-08  0.10566000000E+00  0.10566000000E+00 0.  1.
     999900   -1    0    0    0    0 -0.00000000000E+00 -0.00000000000E+00 -0.74505805969E-08  0.93827000000E+00  0.93827000000E+00 0.  1.
     999902    2    1    2    0    0  0.71880097835E-02 -0.16039465369E-01 -0.27923835477E-01  0.10109349622E+01  0.10103963703E+01 0.  0.
     999903    2    3    3    0    0  0.13580668199E-01 -0.82243988469E-02  0.11632337161E+00  0.11913386433E+00  0.20240443748E-01 0.  0.
         14    1    1    2    0    0 -0.71880097835E-02  0.16039465369E-01  0.27923835477E-01  0.32995037835E-01  0.00000000000E+00 0.  1.
     999901    1    3    3    0    0 -0.63926584152E-02 -0.78150665226E-02 -0.14424720708E+00  0.89180109783E+00  0.88000000000E+00 0.  1.
        -11    1    4    4    0    0  0.44866521397E-02  0.67718001657E-02  0.40002409290E-01  0.40822067499E-01  0.51100000000E-03 0.  1.
         11    1    4    4    0    0  0.90940160590E-02 -0.14996199013E-01  0.76320962318E-01  0.78311796832E-01  0.51100000000E-03 0. -1.
</event>
<event>
 8    1  0.1051655E+005  0.1043930E+01  0.7957747E-01            NaN
         13   -1    0    0    0    0  0.00000000000E+00  0.00000000000E+00  0.74505805969E-08  0.10566000000E+00  0.10566000000E+00 0.  1.
     999900   -1    0    0    0    0 -0.00000000000E+00 -0.00000000000E+00 -0.74505805969E-08  0.93827000000E+00  0.93827000000E+00 0. -1.
     999902    2    1    2    0    0 -0.95677721611E-02 -0.21643120360E-01 -0.12072604827E-02  0.10202356040E+01  0.10199604224E+01 0.  0.
     999903    2    3    3    0    0 -0.46331650530E-01 -0.30766387240E-01  0.11747494403E+00  0.13146100806E+00  0.19708925416E-01 0.  0.
         14    1    1    2    0    0  0.95677721611E-02  0.21643120360E-01  0.12072604827E-02  0.23694395981E-01  0.00000000000E+00 0. -1.
     999901    1    3    3    0    0  0.36763878369E-01  0.91232668802E-02 -0.11868220451E+00  0.88877459596E+00  0.88000000000E+00 0. -1.
        -11    1    4    4    0    0 -0.41732472942E-01 -0.19420890025E-01  0.83563389372E-01  0.95403728604E-01  0.51100000000E-03 0. -1.
         11    1    4    4    0    0 -0.45991775878E-02 -0.11345497215E-01  0.33911554658E-01  0.36057279458E-01  0.51100000000E-03 0.  1.
</event>
<event>
 8    1  0.1051655E+005  0.1043930E+01  0.7957747E-01            NaN
         13   -1    0    0    0    0  0.00000000000E+00  0.00000000000E+00  0.74505805969E-08  0.10566000000E+00  0.10566000000E+00 0.  1.
     999900   -1    0    0    0    0 -0.00000000000E+00 -0.00000000000E+00 -0.74505805969E-08  0.93827000000E+00  0.93827000000E+00 0. -1.
     999902    2    1    2    0    0 -0.18063010630E-02  0.82470228764E-02  0.21824879598E-01  0.10205291137E+01  0.10202607855E+01 0.  0.
     999903    2    3    3    0    0  0.37335703883E-01 -0.80090595998E-01 -0.90060156036E-01  0.12819851765E+00  0.22706163716E-01 0.  0.
         14    1    1    2    0    0  0.18063010630E-02 -0.82470228764E-02 -0.21824879598E-01  0.23400886294E-01  0.00000000000E+00 0. -1.
     999901    1    3    3    0    0 -0.39142004946E-01  0.88337618874E-01  0.11188503563E+00  0.89233059606E+00  0.88000000000E+00 0.  1.
        -11    1    4    4    0    0  0.17425675423E-01 -0.47624816445E-01 -0.36533986585E-01  0.62504164678E-01  0.51100000000E-03 0. -1.
         11    1    4    4    0    0  0.19910028461E-01 -0.32465779553E-01 -0.53526169451E-01  0.65694352971E-01  0.51100000000E-03 0.  1.
</event>
<event>
 8    1  0.1051655E+005  0.1043930E+01  0.7957747E-01            NaN
         13   -1    0    0    0    0  0.00000000000E+00  0.00000000000E+00  0.74505805969E-08  0.10566000000E+00  0.10566000000E+00 0.  1.
     999900   -1    0    0    0    0 -0.00000000000E+00 -0.00000000000E+00 -0.74505805969E-08  0.93827000000E+00  0.93827000000E+00 0.  1.
     999902    2    1    2    0    0 -0.19816219828E-01 -0.60027773924E-03  0.10825961196E-01  0.10213414113E+01  0.10210915895E+01 0.  0.
     999903    2    3    3    0    0 -0.64711841555E-01  0.75451089739E-01 -0.82907154090E-01  0.13196785414E+00  0.25718260982E-01 0.  0.
         14    1    1    2    0    0  0.19816219828E-01  0.60027773924E-03 -0.10825961196E-01  0.22588588655E-01  0.00000000000E+00 0.  1.
     999901    1    3    3    0    0  0.44895621727E-01 -0.76051367478E-01  0.93733115286E-01  0.88937355720E+00  0.88000000000E+00 0. -1.
        -11    1    4    4    0    0 -0.24487685619E-01  0.31050033332E-01 -0.17437810538E-01  0.43221402965E-01  0.51100000000E-03 0.  1.
         11    1    4    4    0    0 -0.40224155936E-01  0.44401056407E-01 -0.65469343553E-01  0.88746451180E-01  0.51100000000E-03 0. -1.
</event>
<event>
 8    1  0.1051655E+005  0.1043930E+01  0.7957747E-01            NaN
         13   -1    0    0    0    0  0.00000000000E+00  0.00000000000E+00  0.74505805969E-08  0.10566000000E+00  0.10566000000E+00 0. -1.
     999900   -1    0    0    0    0 -0.00000000000E+00 -0.00000000000E+00 -0.74505805969E-08  0.93827000000E+00  0.93827000000E+00 0.  1.
     999902    2    1    2    0    0  0.35662359982E-02  0.23249590756E-01  0.40745302176E-02  0.10200581901E+01  0.10197788231E+01 0.  0.
     999903    2    3    3    0    0 -0.51933849790E-01  0.11469101985E+00 -0.36416980595E-01  0.13265672692E+00  0.20505022168E-01 0.  0.
         14    1    1    2    0    0 -0.35662359982E-02 -0.23249590756E-01 -0.40745302176E-02  0.23871809860E-01  0.00000000000E+00 0.  1.
     999901    1    3    3    0    0  0.55500085788E-01 -0.91441429091E-01  0.40491510813E-01  0.88740146322E+00  0.88000000000E+00 0. -1.
        -11    1    4    4    0    0 -0.12147319873E-01  0.51255863843E-01 -0.14844730060E-01  0.54729773341E-01  0.51100000000E-03 0. -1.
         11    1    4    4    0    0 -0.39786529917E-01  0.63435156004E-01 -0.21572250535E-01  0.77926953579E-01  0.51100000000E-03 0.  1.
</event>
<event>
 8    1  0.1051655E+005  0.1043930E+01  0.7957747E-01            NaN
         13   -1    0    0    0    0  0.00000000000E+00  0.00000000000E+00  0.74505805969E-08  0.10566000000E+00  0.10566000000E+00 0. -1.
     999900   -1    0    0    0    0 -0.00000000000E+00 -0.00000000000E+00 -0.74505805969E-08  0.93827000000E+00  0.93827000000E+00 0.  1.
     999902    2    1    2    0    0  0.92282812437E-02 -0.38166068109E-02 -0.22527879611E-01  0.10192879014E+01  0.10189899867E+01 0.  0.
     999903    2    3    3    0    0 -0.42852561157E-01  0.77043599047E-01 -0.95047611168E-01  0.13108190139E+00  0.19399957008E-01 0.  0.
         14    1    1    2    0    0 -0.92282812437E-02  0.38166068109E-02  0.22527879611E-01  0.24642098572E-01  0.00000000000E+00 0. -1.
     999901    1    3    3    0    0  0.52080842400E-01 -0.80860205858E-01  0.72519731557E-01  0.88820600004E+00  0.88000000000E+00 0. -1.
        -11    1    4    4    0    0 -0.32784347526E-01  0.68321899030E-01 -0.87531041916E-01  0.11577840796E+00  0.51100000000E-03 0.  1.
         11    1    4    4    0    0 -0.10068213631E-01  0.87217000171E-02 -0.75165692514E-02  0.15303493432E-01  0.51100000000E-03 0. -1.
</event>
<event>
 8    1  0.1051655E+005  0.1043930E+01  0.7957747E-01            NaN
         13   -1    0    0    0    0  0.00000000000E+00  0.00000000000E+00  0.74505805969E-08  0.10566000000E+00  0.10566000000E+00 0. -1.
     999900   -1    0    0    0    0 -0.00000000000E+00 -0.00000000000E+00 -0.74505805969E-08  0.93827000000E+00  0.93827000000E+00 0.  1.
     999902    2    1    2    0    0  0.11559267716E-01 -0.34334584627E-03 -0.19783137904E-01  0.10210147845E+01  0.10207576025E+01 0.  0.
     999903    2    3    3    0    0  0.12863166081E+00  0.87562302456E-02 -0.27067881894E-01  0.13318495000E+00  0.19564890632E-01 0.  0.
         14    1    1    2    0    0 -0.11559267716E-01  0.34334584627E-03  0.19783137904E-01  0.22915215509E-01  0.00000000000E+00 0. -1.
     999901    1    3    3    0    0 -0.11707239310E+00 -0.90995760918E-02  0.72847439902E-02  0.88782983449E+00  0.88000000000E+00 0. -1.
        -11    1    4    4    0    0  0.61406281518E-01  0.37469371240E-03 -0.22062584095E-01  0.65252513693E-01  0.51100000000E-03 0. -1.
         11    1    4    4    0    0  0.67225379295E-01  0.83815365332E-02 -0.50052977992E-02  0.67932436311E-01  0.51100000000E-03 0.  1.
</event>
<event>
 8    1  0.1051655E+005  0.1043930E+01  0.7957747E-01            NaN
         13   -1    0    0    0    0  0.00000000000E+00  0.00000000000E+00  0.74505805969E-08  0.10566000000E+00  0.10566000000E+00 0.  1.
     999900   -1    0    0    0    0 -0.00000000000E+00 -0.00000000000E+00 -0.74505805969E-08  0.93827000000E+00  0.93827000000E+00 0.  1.
     999902    2    1    2    0    0 -0.45841920423E-02  0.43362832067E-02  0.10502197616E-01  0.10316778849E+01  0.10316051299E+01 0.  0.
     999903    2    3    3    0    0  0.82998453586E-01  0.16207213218E-01 -0.10872744337E+00  0.13925010294E+00  0.20433236866E-01 0.  0.
         14    1    1    2    0    0  0.45841920423E-02 -0.43362832067E-02 -0.10502197616E-01  0.12252115062E-01  0.00000000000E+00 0. -1.
     999901    1    3    3    0    0 -0.87582645628E-01 -0.11870930011E-01  0.11922964099E+00  0.89242778200E+00  0.88000000000E+00 0. -1.
        -11    1    4    4    0    0  0.46862684501E-02  0.32290644723E-03 -0.16776157405E-01  0.17428882891E-01  0.51100000000E-03 0. -1.
         11    1    4    4    0    0  0.78312185136E-01  0.15884306771E-01 -0.91951285965E-01  0.12182122005E+00  0.51100000000E-03 0.  1.
</event>
<event>
 7    1  0.1051655E+005  0.1043930E+01  0.7957747E-01            NaN
         13   -1    0    0    0    0  0.00000000000E+00  0.00000000000E+00  0.74505805969E-08  0.10566000000E+00  0.10566000000E+00 0. -1.
     999900   -1    0    0    0    0 -0.00000000000E+00 -0.00000000000E+00 -0.74505805969E-08  0.93827000000E+00  0.93827000000E+00 0. -1.
     999903    2    1    2    0    0 -0.90054536318E-01 -0.15654854742E-01 -0.54433385616E-01  0.10829646257E+00  0.20254292069E-01 0.  0.
         14    1    1    2    0    0 -0.33880446386E-01  0.29935142759E-01  0.44747918547E-02  0.45431499881E-01  0.00000000000E+00 0. -1.
     999901    1    1    2    0    0  0.12393498270E+00 -0.14280288016E-01  0.49958593762E-01  0.89020203755E+00  0.88000000000E+00 0. -1.
        -11    1    3    3    0    0 -0.61972301371E-01 -0.63475000467E-02 -0.26827706969E-01  0.67829520685E-01  0.51100000000E-03 0. -1.
         11    1    3    3    0    0 -0.28082234947E-01 -0.93073546957E-02 -0.27605678647E-01  0.40466941886E-01  0.51100000000E-03 0.  1.
</event>
<event>
 8    1  0.1051655E+005  0.1043930E+01  0.7957747E-01            NaN
         13   -1    0    0    0    0  0.00000000000E+00  0.00000000000E+00  0.74505805969E-08  0.10566000000E+00  0.10566000000E+00 0. -1.
     999900   -1    0    0    0    0 -0.00000000000E+00 -0.00000000000E+00 -0.74505805969E-08  0.93827000000E+00  0.93827000000E+00 0. -1.
     999902    2    1    2    0    0  0.54206721912E-02 -0.21781285557E-01  0.91874779444E-02  0.10196767974E+01  0.10193883231E+01 0.  0.
     999903    2    3    3    0    0 -0.65579465764E-02 -0.79938429887E-01  0.10366108180E+00  0.13263057389E+00  0.20300000343E-01 0.  0.
         14    1    1    2    0    0 -0.54206721912E-02  0.21781285557E-01 -0.91874779444E-02  0.24253202644E-01  0.00000000000E+00 0. -1.
     999901    1    3    3    0    0  0.11978618768E-01  0.58157144330E-01 -0.94473603854E-01  0.88704622347E+00  0.88000000000E+00 0. -1.
        -11    1    4    4    0    0 -0.13757740082E-01 -0.45463339512E-01  0.58437306089E-01  0.75308502280E-01  0.51100000000E-03 0. -1.
         11    1    4    4    0    0  0.71997935061E-02 -0.34475090375E-01  0.45223775710E-01  0.57322071608E-01  0.51100000000E-03 0.  1.
</event>
<event>
 8    1  0.1051655E+005  0.1043930E+01  0.7957747E-01            NaN
         13   -1    0    0    0    0  0.00000000000E+00  0.00000000000E+00  0.74505805969E-08  0.10566000000E+00  0.10566000000E+00 0. -1.
     999900   -1    0    0    0    0 -0.00000000000E+00 -0.00000000000E+00 -0.74505805969E-08  0.93827000000E+00  0.93827000000E+00 0. -1.
     999902    2    1    2    0    0 -0.57374760033E-02  0.42042225706E-02  0.21293299353E-01  0.10214800843E+01  0.10212333543E+01 0.  0.
     999903    2    3    3    0    0 -0.35261546941E-01 -0.12457442511E+00 -0.72709218097E-02  0.13115906039E+00  0.19689305032E-01 0.  0.
         14    1    1    2    0    0  0.57374760033E-02 -0.42042225706E-02 -0.21293299353E-01  0.22449915716E-01  0.00000000000E+00 0.  1.
     999901    1    3    3    0    0  0.29524070937E-01  0.12877864768E+00  0.28564221163E-01  0.89032102390E+00  0.88000000000E+00 0.  1.
        -11    1    4    4    0    0 -0.23868884499E-01 -0.50626008811E-01 -0.63373987966E-02  0.56330632518E-01  0.51100000000E-03 0.  1.
         11    1    4    4    0    0 -0.11392662441E-01 -0.73948416301E-01 -0.93352301316E-03  0.74828427868E-01  0.51100000000E-03 0. -1.
</event>
<event>
 8    1  0.1051655E+005  0.1043930E+01  0.7957747E-01            NaN
         13   -1    0    0    0    0  0.00000000000E+00  0.00000000000E+00  0.74505805969E-08  0.10566000000E+00  0.10566000000E+00 0. -1.
     999900   -1    0    0    0    0 -0.00000000000E+00 -0.00000000000E+00 -0.74505805969E-08  0.93827000000E+00  0.93827000000E+00 0. -1.
     999902    2    1    2    0    0  0.21927104022E-01  0.97025799935E-02 -0.27404855145E-02  0.10197960362E+01  0.10195104252E+01 0.  0.
     999903    2    3    3    0    0 -0.35829135127E-01 -0.34300648765E-02 -0.12293752024E+00  0.12965246535E+00  0.20015884144E-01 0.  0.
         14    1    1    2    0    0 -0.21927104022E-01 -0.97025799935E-02  0.27404855145E-02  0.24133963831E-01  0.00000000000E+00 0.  1.
     999901    1    3    3    0    0  0.57756239150E-01  0.13132644870E-01  0.12019703473E+00  0.89014357082E+00  0.88000000000E+00 0.  1.
        -11    1    4    4    0    0 -0.24613972267E-01 -0.74411579519E-02 -0.55505369148E-01  0.61174550163E-01  0.51100000000E-03 0. -1.
         11    1    4    4    0    0 -0.11215162861E-01  0.40110930754E-02 -0.67432151093E-01  0.68477915182E-01  0.51100000000E-03 0.  1.
</event>
<event>
 8    1  0.1051655E+005  0.1043930E+01  0.7957747E-01            NaN
         13   -1    0    0    0    0  0.00000000000E+00  0.00000000000E+00  0.74505805969E-08  0.10566000000E+00  0.10566000000E+00 0. -1.
     999900   -1    0    0    0    0 -0.00000000000E+00 -0.00000000000E+00 -0.74505805969E-08  0.93827000000E+00  0.93827000000E+00 0.  1.
     999902    2    1    2    0    0  0.85654140412E-02  0.87403646355E-02 -0.20788970994E-01  0.10198065341E+01  0.10195211746E+01 0.  0.
     999903    2    3    3    0    0  0.77247397853E-01 -0.96993476306E-01  0.30694983098E-01  0.12933056164E+00  0.20231590765E-01 0.  0.
         14    1    1    2    0    0 -0.85654140412E-02 -0.87403646355E-02  0.20788970994E-01  0.24123465892E-01  0.00000000000E+00 0. -1.
     999901    1    3    3    0    0 -0.68681983812E-01  0.10573384094E+00 -0.51483954092E-01  0.89047597247E+00  0.88000000000E+00 0.  1.
        -11    1    4    4    0    0  0.33352880263E-01 -0.27996239432E-01  0.63712126515E-02  0.44012015585E-01  0.51100000000E-03 0. -1.
         11    1    4    4    0    0  0.43894517590E-01 -0.68997236873E-01  0.24323770446E-01  0.85318546052E-01  0.51100000000E-03 0.  1.
</event>
<event>
 8    1  0.1051655E+005  0.1043930E+01  0.7957747E-01            NaN
         13   -1    0    0    0    0  0.00000000000E+00  0.00000000000E+00  0.74505805969E-08  0.10566000000E+00  0.10566000000E+00 0. -1.
     999900   -1    0    0    0    0 -0.00000000000E+00 -0.00000000000E+00 -0.74505805969E-08  0.93827000000E+00  0.93827000000E+00 0. -1.
     999902    2    1    2    0    0  0.13582963372E-01 -0.10472990050E-01  0.16494262033E-01  0.10201341791E+01  0.10198566086E+01 0.  0.
     999903    2    3    3    0    0  0.12629360409E+00  0.21027732286E-01 -0.22501304422E-01  0.13153042133E+00  0.20042531628E-01 0.  0.
         14    1    1    2    0    0 -0.13582963372E-01  0.10472990050E-01 -0.16494262033E-01  0.23795820947E-01  0.00000000000E+00 0.  1.
     999901    1    3    3    0    0 -0.11271064072E+00 -0.31500722336E-01  0.38995566455E-01  0.88860375772E+00  0.88000000000E+00 0.  1.
        -11    1    4    4    0    0  0.36870523401E-01  0.15430627550E-03  0.45071035617E-03  0.36877141526E-01  0.51100000000E-03 0. -1.
         11    1    4    4    0    0  0.89423080692E-01  0.20873426011E-01 -0.22952014778E-01  0.94653279802E-01  0.51100000000E-03 0.  1.
</event>
<event>
 8    1  0.1051655E+005  0.1043930E+01  0.7957747E-01            NaN
         13   -1    0    0    0    0  0.00000000000E+00  0.00000000000E+00  0.74505805969E-08  0.10566000000E+00  0.10566000000E+00 0.  1.
     999900   -1    0    0    0    0 -0.00000000000E+00 -0.00000000000E+00 -0.74505805969E-08  0.93827000000E+00  0.93827000000E+00 0. -1.
     999902    2    1    2    0    0 -0.18550079469E-01 -0.12257708755E-01  0.80610097453E-02  0.10202796987E+01  0.10200055524E+01 0.  0.
     999903    2    3    3    0    0  0.10554829699E+00  0.43135345421E-01  0.55810494720E-01  0.12856852867E+00  0.20345864929E-01 0.  0.
         14    1    1    2    0    0  0.18550079469E-01  0.12257708755E-01 -0.80610097453E-02  0.23650301274E-01  0.00000000000E+00 0. -1.
     999901    1    3    3    0    0 -0.12409837646E+00 -0.55393054176E-01 -0.47749484975E-01  0.89171117006E+00  0.88000000000E+00 0.  1.
        -11    1    4    4    0    0  0.88524576251E-01  0.37819601786E-01  0.38408445729E-01  0.10364551464E+00  0.51100000000E-03 0. -1.
         11    1    4    4    0    0  0.17023720743E-01  0.53157436348E-02  0.17402048991E-01  0.24923014032E-01  0.51100000000E-03 0.  1.
</event>
<event>
 8    1  0.1051655E+005  0.1043930E+01  0.7957747E-01            NaN
         13   -1    0    0    0    0  0.00000000000E+00  0.00000000000E+00  0.74505805969E-08  0.10566000000E+00  0.10566000000E+00 0.  1.
     999900   -1    0    0    0    0 -0.00000000000E+00 -0.00000000000E+00 -0.74505805969E-08  0.93827000000E+00  0.93827000000E+00 0. -1.
     999902    2    1    2    0    0 -0.24243085714E-01  0.71487225630E-03  0.21857400531E-02  0.10195780862E+01  0.10192872304E+01 0.  0.
     999903    2    3    3    0    0 -0.44144541681E-01 -0.11952850824E+00  0.22900051328E-01  0.13093663925E+00  0.19600671045E-01 0.  0.
         14    1    1    2    0    0  0.24243085714E-01 -0.71487225630E-03 -0.21857400531E-02  0.24351913823E-01  0.00000000000E+00 0. -1.
     999901    1    3    3    0    0  0.19901455967E-01  0.12024338050E+00 -0.20714311275E-01  0.88864144693E+00  0.88000000000E+00 0. -1.
        -11    1    4    4    0    0 -0.12095050103E-01 -0.58344850885E-01  0.64685902349E-02  0.59937597904E-01  0.51100000000E-03 0. -1.
         11    1    4    4    0    0 -0.32049491578E-01 -0.61183657354E-01  0.16431461093E-01  0.70999041348E-01  0.51100000000E-03 0.  1.
</event>
<event>
 8    1  0.1051655E+005  0.1043930E+01  0.7957747E-01            NaN
         13   -1    0    0    0    0  0.00000000000E+00  0.00000000000E+00  0.74505805969E-08  0.10566000000E+00  0.10566000000E+00 0.  1.
     999900   -1    0    0    0    0 -0.00000000000E+00 -0.00000000000E+00 -0.74505805969E-08  0.93827000000E+00  0.93827000000E+00 0. -1.
     999902    2    1    2    0    0  0.11522519014E-01  0.57942797078E-02 -0.20328042841E-01  0.10198557098E+01  0.10195715264E+01 0.  0.
     999903    2    3    3    0    0  0.10748639859E+00 -0.60754403787E-01 -0.41678928274E-01  0.13188405838E+00  0.20294046678E-01 0.  0.
         14    1    1    2    0    0 -0.11522519014E-01 -0.57942797078E-02  0.20328042841E-01  0.24074290177E-01  0.00000000000E+00 0.  1.
     999901    1    3    3    0    0 -0.95963879579E-01  0.66548683495E-01  0.21350885433E-01  0.88797165144E+00  0.88000000000E+00 0. -1.
        -11    1    4    4    0    0  0.25838849712E-01 -0.23276937762E-01 -0.63948837816E-02  0.35364072809E-01  0.51100000000E-03 0.  1.
         11    1    4    4    0    0  0.81647548880E-01 -0.37477466025E-01 -0.35284044493E-01  0.96519985571E-01  0.51100000000E-03 0. -1.
</event>
<event>
 8    1  0.1051655E+005  0.1043930E+01  0.7957747E-01            NaN
         13   -1    0    0    0    0  0.00000000000E+00  0.00000000000E+00  0.74505805969E-08  0.10566000000E+00  0.10566000000E+00 0.  1.
     999900   -1    0    0    0    0 -0.00000000000E+00 -0.00000000000E+00 -0.74505805969E-08  0.93827000000E+00  0.93827000000E+00 0.  1.
     999902    2    1    2    0    0  0.16368233008E-01 -0.66331819371E-02 -0.21181076582E-01  0.10163518173E+01  0.10159775885E+01 0.  0.
     999903    2    3    3    0    0  0.38281582484E-02  0.12271581379E+00 -0.24709694561E-01  0.12680088156E+00  0.19851166491E-01 0.  0.
         14    1    1    2    0    0 -0.16368233008E-01  0.66331819371E-02  0.21181076582E-01  0.27578182674E-01  0.00000000000E+00 0.  1.
     999901    1    3    3    0    0  0.12540074760E-01 -0.12934899572E+00  0.35286179793E-02  0.88955093576E+00  0.88000000000E+00 0.  1.
        -11    1    4    4    0    0  0.67839754394E-02  0.29242651543E-01  0.18024126461E-03  0.30024133625E-01  0.51100000000E-03 0. -1.
         11    1    4    4    0    0 -0.29558171909E-02  0.93473162245E-01 -0.24889935826E-01  0.96776747940E-01  0.51100000000E-03 0.  1.
</event>
<event>
 8    1  0.1297130E+005  0.1043930E+01  0.7957747E-01            NaN
         13   -1    0    0    0    0  0.00000000000E+00  0.00000000000E+00  0.74505805969E-08  0.10566000000E+00  0.10566000000E+00 0. -1.
     999900   -1    0    0    0    0 -0.00000000000E+00 -0.00000000000E+00 -0.74505805969E-08  0.93827000000E+00  0.93827000000E+00 0. -1.
     999902    2    1    2    0    0 -0.13719848414E-01  0.10814552394E-01 -0.14290429739E-01  0.10213599941E+01  0.10211105877E+01 0.  0.
     999903    2    3    3    0    0 -0.77550771787E-01 -0.34386175879E-01  0.97569028700E-01  0.13083765802E+00  0.20056073883E-01 0.  0.
         14    1    1    2    0    0  0.13719848414E-01 -0.10814552394E-01  0.14290429739E-01  0.22570005895E-01  0.00000000000E+00 0. -1.
     999901    1    3    3    0    0  0.63830923372E-01  0.45200728273E-01 -0.11185945844E+00  0.89052233608E+00  0.88000000000E+00 0. -1.
        -11    1    4    4    0    0 -0.39577257679E-01 -0.66821781095E-02  0.46414778478E-01  0.61364514272E-01  0.51100000000E-03 0. -1.
         11    1    4    4    0    0 -0.37973514108E-01 -0.27703997769E-01  0.51154250222E-01  0.69473143753E-01  0.51100000000E-03 0.  1.
</event>
<event>
 8    1  0.1051655E+005  0.1043930E+01  0.7957747E-01            NaN
         13   -1    0    0    0    0  0.00000000000E+00  0.00000000000E+00  0.74505805969E-08  0.10566000000E+00  0.10566000000E+00 0.  1.
     999900   -1    0    0    0    0 -0.00000000000E+00 -0.00000000000E+00 -0.74505805969E-08  0.93827000000E+00  0.93827000000E+00 0. -1.
     999902    2    1    2    0    0  0.63981591910E-02  0.12906765596E-01  0.17981031865E-01  0.10208900663E+01  0.10206300451E+01 0.  0.
     999903    2    3    3    0    0 -0.83582134136E-01  0.10026688827E+00  0.10736878252E-02  0.13183770420E+00  0.18455498202E-01 0.  0.
         14    1    1    2    0    0 -0.63981591910E-02 -0.12906765596E-01 -0.17981031865E-01  0.23039933727E-01  0.00000000000E+00 0.  1.
     999901    1    3    3    0    0  0.89980293327E-01 -0.87360122673E-01  0.16907344040E-01  0.88905236207E+00  0.88000000000E+00 0. -1.
        -11    1    4    4    0    0 -0.56483814583E-01  0.54907385747E-01  0.43603075558E-02  0.78895600146E-01  0.51100000000E-03 0. -1.
         11    1    4    4    0    0 -0.27098319553E-01  0.45359502522E-01 -0.32866197306E-02  0.52942104056E-01  0.51100000000E-03 0.  1.
</event>
<event>
 8    1  0.1051655E+005  0.1043930E+01  0.7957747E-01            NaN
         13   -1    0    0    0    0  0.00000000000E+00  0.00000000000E+00  0.74505805969E-08  0.10566000000E+00  0.10566000000E+00 0. -1.
     999900   -1    0    0    0    0 -0.00000000000E+00 -0.00000000000E+00 -0.74505805969E-08  0.93827000000E+00  0.93827000000E+00 0.  1.
     999902    2    1    2    0    0  0.17370852498E-01  0.58860658996E-02 -0.15041145715E-01  0.10202102118E+01  0.10199344331E+01 0.  0.
     999903    2    3    3    0    0 -0.24617821924E-01 -0.12396829663E+00 -0.13025791501E-01  0.12968830532E+00  0.25984794929E-01 0.  0.
         14    1    1    2    0    0 -0.17370852498E-01 -0.58860658996E-02  0.15041145715E-01  0.23719788210E-01  0.00000000000E+00 0.  1.
     999901    1    3    3    0    0  0.41988674422E-01  0.12985436253E+00 -0.20153542135E-02  0.89052190647E+00  0.88000000000E+00 0.  1.
        -11    1    4    4    0    0  0.42970096699E-02 -0.34235922896E-01 -0.70544085788E-02  0.35221989013E-01  0.51100000000E-03 0. -1.
         11    1    4    4    0    0 -0.28914831594E-01 -0.89732373734E-01 -0.59713829227E-02  0.94466316309E-01  0.51100000000E-03 0.  1.
</event>
<event>
 8    1  0.1051655E+005  0.1043930E+01  0.7957747E-01            NaN
         13   -1    0    0    0    0  0.00000000000E+00  0.00000000000E+00  0.74505805969E-08  0.10566000000E+00  0.10566000000E+00 0.  1.
     999900   -1    0    0    0    0 -0.00000000000E+00 -0.00000000000E+00 -0.74505805969E-08  0.93827000000E+00  0.93827000000E+00 0.  1.
     999902    2    1    2    0    0 -0.67586590166E-02 -0.96985841396E-02 -0.21052113670E-01  0.10197859843E+01  0.10195001325E+01 0.  0.
     999903    2    3    3    0    0  0.59811184459E-01 -0.72444400446E-01  0.85484198745E-01  0.12865267920E+00  0.20454698436E-01 0.  0.
         14    1    1    2    0    0  0.67586590166E-02  0.96985841396E-02  0.21052113670E-01  0.24144015738E-01  0.00000000000E+00 0.  1.
     999901    1    3    3    0    0 -0.66569843476E-01  0.62745816307E-01 -0.10653631242E+00  0.89113330506E+00  0.88000000000E+00 0. -1.
        -11    1    4    4    0    0  0.42637432326E-01 -0.63846898764E-01  0.71230359701E-01  0.10473014075E+00  0.51100000000E-03 0.  1.
         11    1    4    4    0    0  0.17173752133E-01 -0.85975016822E-02  0.14253839045E-01  0.23922538453E-01  0.51100000000E-03 0. -1.
</event>
<event>
 8    1  0.1051655E+005  0.1043930E+01  0.7957747E-01            NaN
         13   -1    0    0    0    0  0.00000000000E+00  0.00000000000E+00  0.74505805969E-08  0.10566000000E+00  0.10566000000E+00 0. -1.
     999900   -1    0    0    0    0 -0.00000000000E+00 -0.00000000000E+00 -0.74505805969E-08  0.93827000000E+00  0.93827000000E+00 0. -1.
     999902    2    1    2    0    0 -0.17544911973E-01 -0.11514019601E-01 -0.12964013907E-01  0.10192629726E+01  0.10189644474E+01 0.  0.
     999903    2    3    3    0    0 -0.12368734666E+00 -0.13218433599E-01 -0.41128637816E-01  0.13243583754E+00  0.19349405813E-01 0.  0.
         14    1    1    2    0    0  0.17544911973E-01  0.11514019601E-01  0.12964013907E-01  0.24667027387E-01  0.00000000000E+00 0. -1.
     999901    1    3    3    0    0  0.10614243469E+00  0.17044139978E-02  0.28164623909E-01  0.88682713508E+00  0.88000000000E+00 0.  1.
        -11    1    4    4    0    0 -0.40441814521E-01 -0.10203973487E-02 -0.22383083733E-01  0.46236837380E-01  0.51100000000E-03 0.  1.
         11    1    4    4    0    0 -0.83245532137E-01 -0.12198036250E-01 -0.18745554083E-01  0.86199000157E-01  0.51100000000E-03 0. -1.
</event>
<event>
 8    1  0.1051655E+005  0.1043930E+01  0.7957747E-01            NaN
         13   -1    0    0    0    0  0.00000000000E+00  0.00000000000E+00  0.74505805969E-08  0.10566000000E+00  0.10566000000E+00 0.  1.
     999900   -1    0    0    0    0 -0.00000000000E+00 -0.00000000000E+00 -0.74505805969E-08  0.93827000000E+00  0.93827000000E+00 0.  1.
     999902    2    1    2    0    0  0.15834908398E-01 -0.11736893238E-01  0.12072058695E-01  0.10208165064E+01  0.10205548031E+01 0.  0.
     999903    2    3    3    0    0  0.32870121245E-01 -0.10038444669E+00 -0.76313590454E-01  0.13179422870E+00  0.19709708866E-01 0.  0.
         14    1    1    2    0    0 -0.15834908398E-01  0.11736893238E-01 -0.12072058695E-01  0.23113493634E-01  0.00000000000E+00 0.  1.
     999901    1    3    3    0    0 -0.17035212848E-01  0.88647553448E-01  0.88385649149E-01  0.88902227767E+00  0.88000000000E+00 0. -1.
        -11    1    4    4    0    0  0.16316656572E-01 -0.22824745724E-01 -0.22237368146E-01  0.35804524324E-01  0.51100000000E-03 0.  1.
         11    1    4    4    0    0  0.16553464674E-01 -0.77559700963E-01 -0.54076222308E-01  0.95989704376E-01  0.51100000000E-03 0. -1.
</event>
<event>
 8    1  0.1051655E+005  0.1043930E+01  0.7957747E-01            NaN
         13   -1    0    0    0    0  0.00000000000E+00  0.00000000000E+00  0.74505805969E-08  0.10566000000E+00  0.10566000000E+00 0. -1.
     999900   -1    0    0    0    0 -0.00000000000E+00 -0.00000000000E+00 -0.74505805969E-08  0.93827000000E+00  0.93827000000E+00 0.  1.
     999902    2    1    2    0    0 -0.55148331456E-02  0.17971514037E-01  0.23939971796E-02  0.10249795403E+01  0.10248043414E+01 0.  0.
     999903    2    3    3    0    0 -0.29426017611E-02  0.12313164903E+00  0.56895368827E-01  0.13704053906E+00  0.19312287614E-01 0.  0.
         14    1    1    2    0    0  0.55148331456E-02 -0.17971514037E-01 -0.23939971796E-02  0.18950459728E-01  0.00000000000E+00 0.  1.
     999901    1    3    3    0    0 -0.25722313845E-02 -0.10516013500E+00 -0.54501371647E-01  0.88793900121E+00  0.88000000000E+00 0.  1.
        -11    1    4    4    0    0 -0.10745734183E-01  0.54075573059E-01  0.26873204499E-01  0.61335704494E-01  0.51100000000E-03 0.  1.
         11    1    4    4    0    0  0.78031324214E-02  0.69056075973E-01  0.30022164328E-01  0.75704834564E-01  0.51100000000E-03 0. -1.
</event>
<event>
 8    1  0.1051655E+005  0.1043930E+01  0.7957747E-01            NaN
         13   -1    0    0    0    0  0.00000000000E+00  0.00000000000E+00  0.74505805969E-08  0.10566000000E+00  0.10566000000E+00 0.  1.
     999900   -1    0    0    0    0 -0.00000000000E+00 -0.00000000000E+00 -0.74505805969E-08  0.93827000000E+00  0.93827000000E+00 0. -1.
     999902    2    1    2    0    0  0.19054995180E-01  0.10207614317E-01 -0.13854002943E-01  0.10182546883E+01  0.10179309351E+01 0.  0.
     999903    2    3    3    0    0 -0.12198168309E+00  0.24518623062E-01  0.11410518495E-01  0.12655157315E+00  0.20109869405E-01 0.  0.
         14    1    1    2    0    0 -0.19054995180E-01 -0.10207614317E-01  0.13854002943E-01  0.25675311661E-01  0.00000000000E+00 0.  1.
     999901    1    3    3    0    0  0.14103667827E+00 -0.14311008746E-01 -0.25264521438E-01  0.89170311519E+00  0.88000000000E+00 0. -1.
        -11    1    4    4    0    0 -0.37671712192E-01 -0.13351792466E-02  0.62580542175E-02  0.38214721858E-01  0.51100000000E-03 0.  1.
         11    1    4    4    0    0 -0.84309970903E-01  0.25853802309E-01  0.51524642776E-02  0.88336851295E-01  0.51100000000E-03 0. -1.
</event>
<event>
 8    1  0.1051655E+005  0.1043930E+01  0.7957747E-01            NaN
         13   -1    0    0    0    0  0.00000000000E+00  0.00000000000E+00  0.74505805969E-08  0.10566000000E+00  0.10566000000E+00 0.  1.
     999900   -1    0    0    0    0 -0.00000000000E+00 -0.00000000000E+00 -0.74505805969E-08  0.93827000000E+00  0.93827000000E+00 0.  1.
     999902    2    1    2    0    0  0.19180669357E-01 -0.96466041143E-04 -0.13487996347E-01  0.10204814728E+01  0.10202120382E+01 0.  0.
     999903    2    3    3    0    0  0.11209046513E+00  0.54194003830E-01 -0.43629820674E-01  0.13341427419E+00  0.19863153872E-01 0.  0.
         14    1    1    2    0    0 -0.19180669357E-01  0.96466041143E-04  0.13487996347E-01  0.23448527207E-01  0.00000000000E+00 0.  1.
     999901    1    3    3    0    0 -0.92909795769E-01 -0.54290469871E-01  0.30141824326E-01  0.88706719861E+00  0.88000000000E+00 0. -1.
        -11    1    4    4    0    0  0.79203913515E-01  0.28058402719E-01 -0.30664055303E-01  0.89448752300E-01  0.51100000000E-03 0. -1.
         11    1    4    4    0    0  0.32886551610E-01  0.26135601111E-01 -0.12965765370E-01  0.43965521888E-01  0.51100000000E-03 0.  1.
</event>
<event>
 8    1  0.1051655E+005  0.1043930E+01  0.7957747E-01            NaN
         13   -1    0    0    0    0  0.00000000000E+00  0.00000000000E+00  0.74505805969E-08  0.10566000000E+00  0.10566000000E+00 0.  1.
     999900   -1    0    0    0    0 -0.00000000000E+00 -0.00000000000E+00 -0.74505805969E-08  0.93827000000E+00  0.93827000000E+00 0.  1.
     999902    2    1    2    0    0  0.42826624963E-02 -0.20747858870E-01 -0.96818166737E-02  0.10206372453E+01  0.10203714197E+01 0.  0.
     999903    2    3    3    0    0 -0.73720266562E-01 -0.32922944549E-01  0.10035168339E+00  0.13027773323E+00  0.19576246756E-01 0.  0.
         14    1    1    2    0    0 -0.42826624963E-02  0.20747858870E-01  0.96818166737E-02  0.23292754665E-01  0.00000000000E+00 0.  1.
     999901    1    3    3    0    0  0.78002929058E-01  0.12175085678E-01 -0.11003350007E+00  0.89035951210E+00  0.88000000000E+00 0.  1.
        -11    1    4    4    0    0 -0.53081891779E-01 -0.20170118667E-01  0.56188325682E-01  0.79886857404E-01  0.51100000000E-03 0.  1.
         11    1    4    4    0    0 -0.20638374783E-01 -0.12752825882E-01  0.44163357710E-01  0.50390875830E-01  0.51100000000E-03 0. -1.
</event>
<event>
 8    1  0.1051655E+005  0.1043930E+01  0.7957747E-01            NaN
         13   -1    0    0    0    0  0.00000000000E+00  0.00000000000E+00  0.74505805969E-08  0.10566000000E+00  0.10566000000E+00 0.  1.
     999900   -1    0    0    0    0 -0.00000000000E+00 -0.00000000000E+00 -0.74505805969E-08  0.93827000000E+00  0.93827000000E+00 0. -1.
     999902    2    1    2    0    0 -0.11754230748E-01  0.28153387105E-02  0.19741744698E-01  0.10207821155E+01  0.10205196239E+01 0.  0.
     999903    2    3    3    0    0  0.90745970079E-01  0.44930839485E-01 -0.76594148561E-01  0.12861586929E+00  0.20536962189E-01 0.  0.
         14    1    1    2    0    0  0.11754230748E-01 -0.28153387105E-02 -0.19741744698E-01  0.23147884488E-01  0.00000000000E+00 0. -1.
     999901    1    3    3    0    0 -0.10250020083E+00 -0.42115500775E-01  0.96335893260E-01  0.89216624623E+00  0.88000000000E+00 0. -1.
        -11    1    4    4    0    0  0.28097341110E-01  0.14036633801E-01 -0.12485237214E-01  0.33802809575E-01  0.51100000000E-03 0.  1.
         11    1    4    4    0    0  0.62648628970E-01  0.30894205684E-01 -0.64108911347E-01  0.94813059711E-01  0.51100000000E-03 0. -1.
</event>
<event>
 8    1  0.1096831E+005  0.1043930E+01  0.7957747E-01            NaN
         13   -1    0    0    0    0  0.00000000000E+00  0.00000000000E+00  0.74505805969E-08  0.10566000000E+00  0.10566000000E+00 0.  1.
     999900   -1    0    0    0    0 -0.00000000000E+00 -0.00000000000E+00 -0.74505805969E-08  0.93827000000E+00  0.93827000000E+00 0.  1.
     999902    2    1    2    0    0  0.17635034149E-01  0.97226111694E-02  0.10956011874E-01  0.10210049527E+01  0.10207475475E+01 0.  0.
     999903    2    3    3    0    0  0.12563431211E-01  0.12603784875E+00 -0.32298052637E-01  0.13228347229E+00  0.20306986849E-01 0.  0.
         14    1    1    2    0    0 -0.17635034149E-01 -0.97226111694E-02 -0.10956011874E-01  0.22925047297E-01  0.00000000000E+00 0. -1.
     999901    1    3    3    0    0  0.50716029380E-02 -0.11631523758E+00  0.43254064511E-01  0.88872148041E+00  0.88000000000E+00 0.  1.
        -11    1    4    4    0    0 -0.36100610764E-02  0.60061316667E-01 -0.18632375009E-01  0.62990640735E-01  0.51100000000E-03 0. -1.
         11    1    4    4    0    0  0.16173492288E-01  0.65976532086E-01 -0.13665677629E-01  0.69292831555E-01  0.51100000000E-03 0.  1.
</event>
<event>
 8    1  0.1051655E+005  0.1043930E+01  0.7957747E-01            NaN
         13   -1    0    0    0    0  0.00000000000E+00  0.00000000000E+00  0.74505805969E-08  0.10566000000E+00  0.10566000000E+00 0.  1.
     999900   -1    0    0    0    0 -0.00000000000E+00 -0.00000000000E+00 -0.74505805969E-08  0.93827000000E+00  0.93827000000E+00 0.  1.
     999902    2    1    2    0    0  0.11521925462E-01  0.29252627910E-02  0.21410064655E-01  0.10194411699E+01  0.10191469944E+01 0.  0.
     999903    2    3    3    0    0  0.69461249563E-01  0.26682493912E-01 -0.10263575226E+00  0.12853784410E+00  0.21238150867E-01 0.  0.
         14    1    1    2    0    0 -0.11521925462E-01 -0.29252627910E-02 -0.21410064655E-01  0.24488830051E-01  0.00000000000E+00 0. -1.
     999901    1    3    3    0    0 -0.57939324101E-01 -0.23757231121E-01  0.12404581692E+00  0.89090332585E+00  0.88000000000E+00 0. -1.
        -11    1    4    4    0    0  0.24607463078E-01  0.13805501810E-02 -0.44496459516E-01  0.50868744710E-01  0.51100000000E-03 0. -1.
         11    1    4    4    0    0  0.44853786486E-01  0.25301943731E-01 -0.58139292745E-01  0.77669099393E-01  0.51100000000E-03 0.  1.
</event>
<event>
 8    1  0.1051655E+005  0.1043930E+01  0.7957747E-01            NaN
         13   -1    0    0    0    0  0.00000000000E+00  0.00000000000E+00  0.74505805969E-08  0.10566000000E+00  0.10566000000E+00 0.  1.
     999900   -1    0    0    0    0 -0.00000000000E+00 -0.00000000000E+00 -0.74505805969E-08  0.93827000000E+00  0.93827000000E+00 0.  1.
     999902    2    1    2    0    0  0.18259348477E-01 -0.87776234196E-02  0.11535492000E-01  0.10206165263E+01  0.10203502221E+01 0.  0.
     999903    2    3    3    0    0 -0.70750896841E-01 -0.97191858689E-01 -0.45168934749E-01  0.12991158483E+00  0.19617349648E-01 0.  0.
         14    1    1    2    0    0 -0.18259348477E-01  0.87776234196E-02 -0.11535492000E-01  0.23313473687E-01  0.00000000000E+00 0. -1.
     999901    1    3    3    0    0  0.89010245318E-01  0.88414235270E-01  0.56704426749E-01  0.89070494148E+00  0.88000000000E+00 0. -1.
        -11    1    4    4    0    0 -0.57766261275E-02 -0.18440926494E-01 -0.11042688996E-01  0.22262957589E-01  0.51100000000E-03 0.  1.
         11    1    4    4    0    0 -0.64974270714E-01 -0.78750932196E-01 -0.34126245753E-01  0.10764862724E+00  0.51100000000E-03 0. -1.
</event>
<event>
 8    1  0.1051655E+005  0.1043930E+01  0.7957747E-01            NaN
         13   -1    0    0    0    0  0.00000000000E+00  0.00000000000E+00  0.74505805969E-08  0.10566000000E+00  0.10566000000E+00 0. -1.
     999900   -1    0    0    0    0 -0.00000000000E+00 -0.00000000000E+00 -0.74505805969E-08  0.93827000000E+00  0.93827000000E+00 0. -1.
     999902    2    1    2    0    0  0.17357374780E-02  0.22158337304E-01 -0.96967965368E-02  0.10196806173E+01  0.10193922350E+01 0.  0.
     999903    2    3    3    0    0  0.52527453977E-01  0.97222864242E-01 -0.71640201447E-01  0.13285962802E+00  0.17548320211E-01 0.  0.
         14    1    1    2    0    0 -0.17357374780E-02 -0.22158337304E-01  0.96967965368E-02  0.24249382667E-01  0.00000000000E+00 0. -1.
     999901    1    3    3    0    0 -0.50791716499E-01 -0.75064526939E-01  0.61943404911E-01  0.88682098931E+00  0.88000000000E+00 0.  1.
        -11    1    4    4    0    0  0.49895799085E-01  0.84929634878E-01 -0.58035110279E-01  0.11432833766E+00  0.51100000000E-03 0. -1.
         11    1    4    4    0    0  0.26316548913E-02  0.12293229364E-01 -0.13605091169E-01  0.18531290359E-01  0.51100000000E-03 0.  1.
</event>
<event>
 8    1  0.1051655E+005  0.1043930E+01  0.7957747E-01            NaN
         13   -1    0    0    0    0  0.00000000000E+00  0.00000000000E+00  0.74505805969E-08  0.10566000000E+00  0.10566000000E+00 0.  1.
     999900   -1    0    0    0    0 -0.00000000000E+00 -0.00000000000E+00 -0.74505805969E-08  0.93827000000E+00  0.93827000000E+00 0. -1.
     999902    2    1    2    0    0 -0.13627777603E-01 -0.53770353203E-02  0.17379628837E-01  0.10211993966E+01  0.10209463881E+01 0.  0.
     999903    2    3    3    0    0 -0.12076611050E+00  0.49566216218E-01  0.14301452785E-01  0.13299510794E+00  0.21021511618E-01 0.  0.
         14    1    1    2    0    0  0.13627777603E-01  0.53770353203E-02 -0.17379628837E-01  0.22730603374E-01  0.00000000000E+00 0. -1.
     999901    1    3    3    0    0  0.10713833289E+00 -0.54943251538E-01  0.30781760527E-02  0.88820428868E+00  0.88000000000E+00 0.  1.
        -11    1    4    4    0    0 -0.57832615412E-01  0.28978695164E-01  0.16433379916E-01  0.66743488635E-01  0.51100000000E-03 0.  1.
         11    1    4    4    0    0 -0.62933495085E-01  0.20587521054E-01 -0.21319271311E-02  0.66251619309E-01  0.51100000000E-03 0. -1.
</event>
<event>
 8    1  0.1051655E+005  0.1043930E+01  0.7957747E-01            NaN
         13   -1    0    0    0    0  0.00000000000E+00  0.00000000000E+00  0.74505805969E-08  0.10566000000E+00  0.10566000000E+00 0. -1.
     999900   -1    0    0    0    0 -0.00000000000E+00 -0.00000000000E+00 -0.74505805969E-08  0.93827000000E+00  0.93827000000E+00 0.  1.
     999902    2    1    2    0    0  0.15751021706E-01 -0.17075608792E-01 -0.70220195273E-02  0.10196610928E+01  0.10193722403E+01 0.  0.
     999903    2    3    3    0    0 -0.10566041937E+00  0.50969885733E-01 -0.46779329545E-01  0.12783623829E+00  0.19792540903E-01 0.  0.
         14    1    1    2    0    0 -0.15751021706E-01  0.17075608792E-01  0.70220195273E-02  0.24268907240E-01  0.00000000000E+00 0.  1.
     999901    1    3    3    0    0  0.12141144107E+00 -0.68045494525E-01  0.39757310018E-01  0.89182485447E+00  0.88000000000E+00 0. -1.
        -11    1    4    4    0    0 -0.64571200906E-01  0.26591136174E-01 -0.18220199829E-01  0.72171776424E-01  0.51100000000E-03 0. -1.
         11    1    4    4    0    0 -0.41089218461E-01  0.24378749560E-01 -0.28559129716E-01  0.55664461867E-01  0.51100000000E-03 0.  1.
</event>
<event>
 8    1  0.1051655E+005  0.1043930E+01  0.7957747E-01            NaN
         13   -1    0    0    0    0  0.00000000000E+00  0.00000000000E+00  0.74505805969E-08  0.10566000000E+00  0.10566000000E+00 0.  1.
     999900   -1    0    0    0    0 -0.00000000000E+00 -0.00000000000E+00 -0.74505805969E-08  0.93827000000E+00  0.93827000000E+00 0. -1.
     999902    2    1    2    0    0  0.12691595928E-01  0.74117148643E-03  0.19611329765E-01  0.10205584319E+01  0.10202907834E+01 0.  0.
     999903    2    3    3    0    0 -0.64031227872E-01  0.93189518428E-01  0.63891209515E-01  0.13129255694E+00  0.19270816434E-01 0.  0.
         14    1    1    2    0    0 -0.12691595928E-01 -0.74117148643E-03 -0.19611329765E-01  0.23371568145E-01  0.00000000000E+00 0. -1.
     999901    1    3    3    0    0  0.76722823800E-01 -0.92448346942E-01 -0.44279879749E-01  0.88926587492E+00  0.88000000000E+00 0.  1.
        -11    1    4    4    0    0 -0.10984019764E-01  0.72320840633E-02  0.11633477587E-01  0.17565609919E-01  0.51100000000E-03 0.  1.
         11    1    4    4    0    0 -0.53047208108E-01  0.85957434365E-01  0.52257731928E-01  0.11372694702E+00  0.51100000000E-03 0. -1.
</event>
<event>
 8    1  0.1051655E+005  0.1043930E+01  0.7957747E-01            NaN
         13   -1    0    0    0    0  0.00000000000E+00  0.00000000000E+00  0.74505805969E-08  0.10566000000E+00  0.10566000000E+00 0. -1.
     999900   -1    0    0    0    0 -0.00000000000E+00 -0.00000000000E+00 -0.74505805969E-08  0.93827000000E+00  0.93827000000E+00 0.  1.
     999902    2    1    2    0    0  0.19727852413E-01  0.19596044309E-01 -0.18442333635E-01  0.10105636579E+01  0.10100126702E+01 0.  0.
     999903    2    3    3    0    0 -0.43744628792E-01  0.72186000119E-01  0.83994598295E-01  0.12079526989E+00  0.20297623616E-01 0.  0.
         14    1    1    2    0    0 -0.19727852413E-01 -0.19596044309E-01  0.18442333635E-01  0.33366342072E-01  0.00000000000E+00 0. -1.
     999901    1    3    3    0    0  0.63472481206E-01 -0.52589955810E-01 -0.10243693193E+00  0.88976838803E+00  0.88000000000E+00 0.  1.
        -11    1    4    4    0    0 -0.83201960347E-02  0.32685432240E-01  0.31383577691E-01  0.46073346009E-01  0.51100000000E-03 0. -1.
         11    1    4    4    0    0 -0.35424432758E-01  0.39500567879E-01  0.52611020604E-01  0.74721923884E-01  0.51100000000E-03 0.  1.
</event>
<event>
 8    1  0.1051655E+005  0.1043930E+01  0.7957747E-01            NaN
         13   -1    0    0    0    0  0.00000000000E+00  0.00000000000E+00  0.74505805969E-08  0.10566000000E+00  0.10566000000E+00 0.  1.
     999900   -1    0    0    0    0 -0.00000000000E+00 -0.00000000000E+00 -0.74505805969E-08  0.93827000000E+00  0.93827000000E+00 0. -1.
     999902    2    1    2    0    0  0.14733460979E-01  0.59073217377E-02 -0.12978151451E-01  0.10234262506E+01  0.10232208397E+01 0.  0.
     999903    2    3    3    0    0 -0.10975428697E+00 -0.65984019974E-01 -0.23348333074E-01  0.13170145842E+00  0.20005876417E-01 0.  0.
         14    1    1    2    0    0 -0.14733460979E-01 -0.59073217377E-02  0.12978151451E-01  0.20503749355E-01  0.00000000000E+00 0.  1.
     999901    1    3    3    0    0  0.12448774795E+00  0.71891341712E-01  0.10370181623E-01  0.89172479223E+00  0.88000000000E+00 0. -1.
        -11    1    4    4    0    0 -0.88976804159E-01 -0.53352195154E-01 -0.10728539791E-01  0.10430096401E+00  0.51100000000E-03 0. -1.
         11    1    4    4    0    0 -0.20777482815E-01 -0.12631824820E-01 -0.12619793283E-01  0.27400494410E-01  0.51100000000E-03 0.  1.
</event>
<event>
 8    1  0.1051655E+005  0.1043930E+01  0.7957747E-01            NaN
         13   -1    0    0    0    0  0.00000000000E+00  0.00000000000E+00  0.74505805969E-08  0.10566000000E+00  0.10566000000E+00 0.  1.
     999900   -1    0    0    0    0 -0.00000000000E+00 -0.00000000000E+00 -0.74505805969E-08  0.93827000000E+00  0.93827000000E+00 0.  1.
     999902    2    1    2    0    0  0.11250020155E-01  0.38270391177E-02 -0.17564754897E-01  0.10227231663E+01  0.10225032739E+01 0.  0.
     999903    2    3    3    0    0  0.10011726451E+00 -0.11928816701E-01  0.83408547155E-01  0.13236299093E+00  0.19930185902E-01 0.  0.
         14    1    1    2    0    0 -0.11250020155E-01 -0.38270391177E-02  0.17564754897E-01  0.21206833721E-01  0.00000000000E+00 0.  1.
     999901    1    3    3    0    0 -0.88867244354E-01  0.15755855818E-01 -0.10097330205E+00  0.89036017534E+00  0.88000000000E+00 0.  1.
        -11    1    4    4    0    0  0.83243081887E-01 -0.23230798269E-02  0.69587566583E-01  0.10852418130E+00  0.51100000000E-03 0. -1.
         11    1    4    4    0    0  0.16874182622E-01 -0.96057368737E-02  0.13820980571E-01  0.23838809639E-01  0.51100000000E-03 0.  1.
</event>
<event>
 8    1  0.1051655E+005  0.1043930E+01  0.7957747E-01            NaN
         13   -1    0    0    0    0  0.00000000000E+00  0.00000000000E+00  0.74505805969E-08  0.10566000000E+00  0.10566000000E+00 0.  1.
     999900   -1    0    0    0    0 -0.00000000000E+00 -0.00000000000E+00 -0.74505805969E-08  0.93827000000E+00  0.93827000000E+00 0. -1.
     999902    2    1    2    0    0  0.54103183110E-02 -0.13687478732E-01  0.18773227258E-01  0.10200751749E+01  0.10197962099E+01 0.  0.
     999903    2    3    3    0    0  0.10013024843E-01 -0.12763538068E+00  0.30261801571E-01  0.13264219344E+00  0.16944727188E-01 0.  0.
         14    1    1    2    0    0 -0.54103183110E-02  0.13687478732E-01 -0.18773227258E-01  0.23854825087E-01  0.00000000000E+00 0. -1.
     999901    1    3    3    0    0 -0.46027065318E-02  0.11394790194E+00 -0.11488574313E-01  0.88743298147E+00  0.88000000000E+00 0. -1.
        -11    1    4    4    0    0 -0.30824396978E-02 -0.23783158224E-01  0.10175753733E-01  0.26056614028E-01  0.51100000000E-03 0.  1.
         11    1    4    4    0    0  0.13095464541E-01 -0.10385222245E+00  0.20086047838E-01  0.10658557941E+00  0.51100000000E-03 0. -1.
</event>
<event>
 8    1  0.1051655E+005  0.1043930E+01  0.7957747E-01            NaN
         13   -1    0    0    0    0  0.00000000000E+00  0.00000000000E+00  0.74505805969E-08  0.10566000000E+00  0.10566000000E+00 0. -1.
     999900   -1    0    0    0    0 -0.00000000000E+00 -0.00000000000E+00 -0.74505805969E-08  0.93827000000E+00  0.93827000000E+00 0.  1.
     999902    2    1    2    0    0 -0.21940307100E-01 -0.29253508049E-02 -0.99384631632E-02  0.10196666984E+01  0.10193779810E+01 0.  0.
     999903    2    3    3    0    0 -0.11834435949E+00  0.51217281735E-01 -0.20237874143E-01  0.13268798175E+00  0.23831315135E-01 0.  0.
         14    1    1    2    0    0  0.21940307100E-01  0.29253508049E-02  0.99384631632E-02  0.24263301569E-01  0.00000000000E+00 0. -1.
     999901    1    3    3    0    0  0.96404052386E-01 -0.54142632540E-01  0.10299410980E-01  0.88697871668E+00  0.88000000000E+00 0. -1.
        -11    1    4    4    0    0 -0.46150959073E-01  0.21159852939E-01  0.36896754057E-02  0.50907025305E-01  0.51100000000E-03 0.  1.
         11    1    4    4    0    0 -0.72193400413E-01  0.30057428795E-01 -0.23927549549E-01  0.81780956447E-01  0.51100000000E-03 0. -1.
</event>
<event>
 8    1  0.1051655E+005  0.1043930E+01  0.7957747E-01            NaN
         13   -1    0    0    0    0  0.00000000000E+00  0.00000000000E+00  0.74505805969E-08  0.10566000000E+00  0.10566000000E+00 0.  1.
     999900   -1    0    0    0    0 -0.00000000000E+00 -0.00000000000E+00 -0.74505805969E-08  0.93827000000E+00  0.93827000000E+00 0. -1.
     999902    2    1    2    0    0  0.58833057403E-02 -0.20253060576E-01 -0.10133081169E-01  0.10205317291E+01  0.10202634615E+01 0.  0.
     999903    2    3    3    0    0 -0.91257383833E-01 -0.92140869054E-01 -0.16174977285E-01  0.13225211368E+00  0.20276632600E-01 0.  0.
         14    1    1    2    0    0 -0.58833057403E-02  0.20253060576E-01  0.10133081169E-01  0.23398270943E-01  0.00000000000E+00 0.  1.
     999901    1    3    3    0    0  0.97140689573E-01  0.71887808478E-01  0.60418961156E-02  0.88827961537E+00  0.88000000000E+00 0. -1.
        -11    1    4    4    0    0 -0.53863409225E-01 -0.59783366938E-01 -0.83690247401E-03  0.80475333753E-01  0.51100000000E-03 0.  1.
         11    1    4    4    0    0 -0.37393974607E-01 -0.32357502116E-01 -0.15338074811E-01  0.51776779931E-01  0.51100000000E-03 0. -1.
</event>
<event>
 8    1  0.1051655E+005  0.1043930E+01  0.7957747E-01            NaN
         13   -1    0    0    0    0  0.00000000000E+00  0.00000000000E+00  0.74505805969E-08  0.10566000000E+00  0.10566000000E+00 0.  1.
     999900   -1    0    0    0    0 -0.00000000000E+00 -0.00000000000E+00 -0.74505805969E-08  0.93827000000E+00  0.93827000000E+00 0. -1.
     999902    2    1    2    0    0  0.12779929930E-01  0.62578469216E-02  0.27721710650E-01  0.10127694400E+01  0.10122899575E+01 0.  0.
     999903    2    3    3    0    0 -0.12532234862E-01  0.84261961555E-01 -0.84842672310E-01  0.12181709118E+00  0.19595652148E-01 0.  0.
         14    1    1    2    0    0 -0.12779929930E-01 -0.62578469216E-02 -0.27721710650E-01  0.31160559984E-01  0.00000000000E+00 0. -1.
     999901    1    3    3    0    0  0.25312164792E-01 -0.78004114633E-01  0.11256438296E+00  0.89095234884E+00  0.88000000000E+00 0.  1.
        -11    1    4    4    0    0 -0.65993449821E-02  0.74046068990E-01 -0.65160984672E-01  0.98856394490E-01  0.51100000000E-03 0. -1.
         11    1    4    4    0    0 -0.59328898803E-02  0.10215892565E-01 -0.19681687637E-01  0.22960696690E-01  0.51100000000E-03 0.  1.
</event>
<event>
 8    1  0.1051655E+005  0.1043930E+01  0.7957747E-01            NaN
         13   -1    0    0    0    0  0.00000000000E+00  0.00000000000E+00  0.74505805969E-08  0.10566000000E+00  0.10566000000E+00 0. -1.
     999900   -1    0    0    0    0 -0.00000000000E+00 -0.00000000000E+00 -0.74505805969E-08  0.93827000000E+00  0.93827000000E+00 0.  1.
     999902    2    1    2    0    0  0.88615623967E-02  0.18716332923E-01  0.27910377609E-03  0.10232199468E+01  0.10230103387E+01 0.  0.
     999903    2    3    3    0    0  0.46898240990E-01 -0.33899342916E-01  0.11819881337E+00  0.13298387910E+00  0.19108693302E-01 0.  0.
         14    1    1    2    0    0 -0.88615623967E-02 -0.18716332923E-01 -0.27910377609E-03  0.20710053238E-01  0.00000000000E+00 0. -1.
     999901    1    3    3    0    0 -0.38036678594E-01  0.52615675839E-01 -0.11791970959E+00  0.89023606767E+00  0.88000000000E+00 0.  1.
        -11    1    4    4    0    0  0.13515482918E-01 -0.71974743799E-03  0.21020150177E-01  0.25005882295E-01  0.51100000000E-03 0.  1.
         11    1    4    4    0    0  0.33382758072E-01 -0.33179595478E-01  0.97178663191E-01  0.10797799680E+00  0.51100000000E-03 0. -1.
</event>
<event>
 8    1  0.1491716E+005  0.1043930E+01  0.7957747E-01            NaN
         13   -1    0    0    0    0  0.00000000000E+00  0.00000000000E+00  0.74505805969E-08  0.10566000000E+00  0.10566000000E+00 0.  1.
     999900   -1    0    0    0    0 -0.00000000000E+00 -0.00000000000E+00 -0.74505805969E-08  0.93827000000E+00  0.93827000000E+00 0.  1.
     999902    2    1    2    0    0 -0.11272406671E-01 -0.20343705862E-01  0.22180128443E-02  0.10205665007E+01  0.10202990391E+01 0.  0.
     999903    2    3    3    0    0  0.80252395586E-01  0.95074733377E-01 -0.22735482000E-01  0.12797427436E+00  0.19515656096E-01 0.  0.
         14    1    1    2    0    0  0.11272406671E-01  0.20343705862E-01 -0.22180128443E-02  0.23363499338E-01  0.00000000000E+00 0.  1.
     999901    1    3    3    0    0 -0.91524802257E-01 -0.11541843924E+00  0.24953494844E-01  0.89259222630E+00  0.88000000000E+00 0. -1.
        -11    1    4    4    0    0  0.33839594546E-01  0.48576634519E-01 -0.26105963260E-02  0.59261150127E-01  0.51100000000E-03 0. -1.
         11    1    4    4    0    0  0.46412801040E-01  0.46498098859E-01 -0.20124885674E-01  0.68713124236E-01  0.51100000000E-03 0.  1.
</event>
<event>
 8    1  0.1051655E+005  0.1043930E+01  0.7957747E-01            NaN
         13   -1    0    0    0    0  0.00000000000E+00  0.00000000000E+00  0.74505805969E-08  0.10566000000E+00  0.10566000000E+00 0. -1.
     999900   -1    0    0    0    0 -0.00000000000E+00 -0.00000000000E+00 -0.74505805969E-08  0.93827000000E+00  0.93827000000E+00 0.  1.
     999902    2    1    2    0    0 -0.55475684364E-03 -0.10182485543E-01 -0.21192561666E-01  0.10204115937E+01  0.10201405320E+01 0.  0.
     999903    2    3    3    0    0 -0.89184943534E-01  0.21330542846E-01 -0.93429585068E-01  0.13245519354E+00  0.20157993935E-01 0.  0.
         14    1    1    2    0    0  0.55475684364E-03  0.10182485543E-01  0.21192561666E-01  0.23518406344E-01  0.00000000000E+00 0. -1.
     999901    1    3    3    0    0  0.88630186690E-01 -0.31513028390E-01  0.72237023402E-01  0.88795640011E+00  0.88000000000E+00 0. -1.
        -11    1    4    4    0    0 -0.13284541767E-01 -0.37357498587E-02 -0.11240633293E-01  0.17805837099E-01  0.51100000000E-03 0. -1.
         11    1    4    4    0    0 -0.75900401767E-01  0.25066292705E-01 -0.82188951774E-01  0.11464935644E+00  0.51100000000E-03 0.  1.
</event>
<event>
 8    1  0.1051655E+005  0.1043930E+01  0.7957747E-01            NaN
         13   -1    0    0    0    0  0.00000000000E+00  0.00000000000E+00  0.74505805969E-08  0.10566000000E+00  0.10566000000E+00 0. -1.
     999900   -1    0    0    0    0 -0.00000000000E+00 -0.00000000000E+00 -0.74505805969E-08  0.93827000000E+00  0.93827000000E+00 0.  1.
     999902    2    1    2    0    0 -0.15271269369E-01 -0.17468713528E-01  0.47000732802E-02  0.10202559993E+01  0.10199812968E+01 0.  0.
     999903    2    3    3    0    0  0.53966058847E-01  0.72067991188E-01 -0.88884455134E-01  0.12808522357E+00  0.19981172885E-01 0.  0.
         14    1    1    2    0    0  0.15271269369E-01  0.17468713528E-01 -0.47000732802E-02  0.23674000703E-01  0.00000000000E+00 0.  1.
     999901    1    3    3    0    0 -0.69237328216E-01 -0.89536704716E-01  0.93584528415E-01  0.89217077573E+00  0.88000000000E+00 0. -1.
        -11    1    4    4    0    0  0.26545633880E-01  0.31550707956E-01 -0.54240727018E-01  0.68135419856E-01  0.51100000000E-03 0.  1.
         11    1    4    4    0    0  0.27420424967E-01  0.40517283233E-01 -0.34643728117E-01  0.59949803709E-01  0.51100000000E-03 0. -1.
</event>
<event>
 8    1  0.1051655E+005  0.1043930E+01  0.7957747E-01            NaN
         13   -1    0    0    0    0  0.00000000000E+00  0.00000000000E+00  0.74505805969E-08  0.10566000000E+00  0.10566000000E+00 0.  1.
     999900   -1    0    0    0    0 -0.00000000000E+00 -0.00000000000E+00 -0.74505805969E-08  0.93827000000E+00  0.93827000000E+00 0.  1.
     999902    2    1    2    0    0  0.20825376063E-01 -0.16130568998E-02  0.10993194221E-01  0.10203260054E+01  0.10200529441E+01 0.  0.
     999903    2    3    3    0    0 -0.11912808599E+00  0.64498907815E-02  0.43082149020E-01  0.12865247566E+00  0.21500836424E-01 0.  0.
         14    1    1    2    0    0 -0.20825376063E-01  0.16130568998E-02 -0.10993194221E-01  0.23603994575E-01  0.00000000000E+00 0.  1.
     999901    1    3    3    0    0  0.13995346205E+00 -0.80629476814E-02 -0.32088954799E-01  0.89167352977E+00  0.88000000000E+00 0.  1.
        -11    1    4    4    0    0 -0.87852585638E-01 -0.14563395804E-02  0.23666698406E-01  0.90997645369E-01  0.51100000000E-03 0. -1.
         11    1    4    4    0    0 -0.31275500350E-01  0.79062303619E-02  0.19415450614E-01  0.37654830290E-01  0.51100000000E-03 0.  1.
</event>
<event>
 8    1  0.1051655E+005  0.1043930E+01  0.7957747E-01            NaN
         13   -1    0    0    0    0  0.00000000000E+00  0.00000000000E+00  0.74505805969E-08  0.10566000000E+00  0.10566000000E+00 0.  1.
     999900   -1    0    0    0    0 -0.00000000000E+00 -0.00000000000E+00 -0.74505805969E-08  0.93827000000E+00  0.93827000000E+00 0. -1.
     999902    2    1    2    0    0 -0.20466817966E-01 -0.94932423998E-02 -0.49131781211E-02  0.10208399240E+01  0.10205787568E+01 0.  0.
     999903    2    3    3    0    0  0.23055149895E-02  0.12803809468E+00  0.66826084923E-02  0.12979115427E+00  0.20050371148E-01 0.  0.
         14    1    1    2    0    0  0.20466817966E-01  0.94932423998E-02  0.49131781211E-02  0.23090075967E-01  0.00000000000E+00 0.  1.
     999901    1    3    3    0    0 -0.22772332955E-01 -0.13753133708E+00 -0.11595786613E-01  0.89104876976E+00  0.88000000000E+00 0.  1.
        -11    1    4    4    0    0  0.45957286058E-02  0.74848483995E-01  0.13228211509E-01  0.76148952576E-01  0.51100000000E-03 0. -1.
         11    1    4    4    0    0 -0.22902136163E-02  0.53189610682E-01 -0.65456030168E-02  0.53642201695E-01  0.51100000000E-03 0.  1.
</event>
<event>
 7    1  0.1051655E+005  0.1043930E+01  0.7957747E-01            NaN
         13   -1    0    0    0    0  0.00000000000E+00  0.00000000000E+00  0.74505805969E-08  0.10566000000E+00  0.10566000000E+00 0.  1.
     999900   -1    0    0    0    0 -0.00000000000E+00 -0.00000000000E+00 -0.74505805969E-08  0.93827000000E+00  0.93827000000E+00 0.  1.
     999903    2    1    2    0    0 -0.73417641961E-01 -0.75286942858E-01 -0.31897681133E-01  0.11149276793E+00  0.18838824854E-01 0.  0.
         14    1    1    2    0    0  0.44909055072E-01 -0.13195357676E-01  0.56970376848E-02  0.47152910091E-01  0.00000000000E+00 0.  1.
     999901    1    1    2    0    0  0.28508586889E-01  0.88482300535E-01  0.26200643448E-01  0.88528432198E+00  0.88000000000E+00 0.  1.
        -11    1    3    3    0    0 -0.58080590405E-01 -0.65249303377E-01 -0.32340952755E-01  0.93150549752E-01  0.51100000000E-03 0. -1.
         11    1    3    3    0    0 -0.15337051556E-01 -0.10037639481E-01  0.44327162173E-03  0.18342218173E-01  0.51100000000E-03 0.  1.
</event>
<event>
 8    1  0.1051655E+005  0.1043930E+01  0.7957747E-01            NaN
         13   -1    0    0    0    0  0.00000000000E+00  0.00000000000E+00  0.74505805969E-08  0.10566000000E+00  0.10566000000E+00 0. -1.
     999900   -1    0    0    0    0 -0.00000000000E+00 -0.00000000000E+00 -0.74505805969E-08  0.93827000000E+00  0.93827000000E+00 0. -1.
     999902    2    1    2    0    0  0.28453524323E-01 -0.33276694818E-04 -0.88451055927E-02  0.10141333551E+01  0.10136955272E+01 0.  0.
     999903    2    3    3    0    0  0.12107599969E+00  0.69120819828E-02  0.36018480643E-01  0.12810857988E+00  0.20181742076E-01 0.  0.
         14    1    1    2    0    0 -0.28453524323E-01  0.33276694818E-04  0.88451055927E-02  0.29796644890E-01  0.00000000000E+00 0. -1.
     999901    1    3    3    0    0 -0.92622475366E-01 -0.69453586776E-02 -0.44863586236E-01  0.88602477523E+00  0.88000000000E+00 0. -1.
        -11    1    4    4    0    0  0.38978265779E-01 -0.48890696390E-02  0.18080826576E-01  0.43247955047E-01  0.51100000000E-03 0. -1.
         11    1    4    4    0    0  0.82097733910E-01  0.11801151622E-01  0.17937654067E-01  0.84860624834E-01  0.51100000000E-03 0.  1.
</event>
<event>
 8    1  0.1051655E+005  0.1043930E+01  0.7957747E-01            NaN
         13   -1    0    0    0    0  0.00000000000E+00  0.00000000000E+00  0.74505805969E-08  0.10566000000E+00  0.10566000000E+00 0. -1.
     999900   -1    0    0    0    0 -0.00000000000E+00 -0.00000000000E+00 -0.74505805969E-08  0.93827000000E+00  0.93827000000E+00 0. -1.
     999902    2    1    2    0    0  0.11200013835E-01 -0.45452371132E-03  0.19639144653E-01  0.10213171076E+01  0.10210667418E+01 0.  0.
     999903    2    3    3    0    0 -0.67364062980E-01 -0.17620464205E-01  0.11119869072E+00  0.13291959847E+00  0.21308991099E-01 0.  0.
         14    1    1    2    0    0 -0.11200013835E-01  0.45452371132E-03 -0.19639144653E-01  0.22612892438E-01  0.00000000000E+00 0.  1.
     999901    1    3    3    0    0  0.78564076815E-01  0.17165940494E-01 -0.91559546062E-01  0.88839750909E+00  0.88000000000E+00 0. -1.
        -11    1    4    4    0    0 -0.35044691398E-01 -0.20027789573E-01  0.59534940524E-01  0.71929917381E-01  0.51100000000E-03 0. -1.
         11    1    4    4    0    0 -0.32319371582E-01  0.24073253678E-02  0.51663750191E-01  0.60989681092E-01  0.51100000000E-03 0.  1.
</event>
<event>
 8    1  0.1051655E+005  0.1043930E+01  0.7957747E-01            NaN
         13   -1    0    0    0    0  0.00000000000E+00  0.00000000000E+00  0.74505805969E-08  0.10566000000E+00  0.10566000000E+00 0.  1.
     999900   -1    0    0    0    0 -0.00000000000E+00 -0.00000000000E+00 -0.74505805969E-08  0.93827000000E+00  0.93827000000E+00 0. -1.
     999902    2    1    2    0    0  0.14642682078E-01 -0.18513690606E-01 -0.83357248332E-02  0.10188970380E+01  0.10185894781E+01 0.  0.
     999903    2    3    3    0    0 -0.75217692315E-01 -0.77600502244E-01 -0.69772897387E-01  0.13022349593E+00  0.20257405963E-01 0.  0.
         14    1    1    2    0    0 -0.14642682078E-01  0.18513690606E-01  0.83357248332E-02  0.25032962006E-01  0.00000000000E+00 0.  1.
     999901    1    3    3    0    0  0.89860374393E-01  0.59086811638E-01  0.61437172554E-01  0.88867354207E+00  0.88000000000E+00 0. -1.
        -11    1    4    4    0    0 -0.35609824017E-01 -0.25234754178E-01 -0.34851811283E-01  0.55854831981E-01  0.51100000000E-03 0.  1.
         11    1    4    4    0    0 -0.39607868298E-01 -0.52365748066E-01 -0.34921086104E-01  0.74368663947E-01  0.51100000000E-03 0. -1.
</event>
<event>
 8    1  0.1051655E+005  0.1043930E+01  0.7957747E-01            NaN
         13   -1    0    0    0    0  0.00000000000E+00  0.00000000000E+00  0.74505805969E-08  0.10566000000E+00  0.10566000000E+00 0. -1.
     999900   -1    0    0    0    0 -0.00000000000E+00 -0.00000000000E+00 -0.74505805969E-08  0.93827000000E+00  0.93827000000E+00 0. -1.
     999902    2    1    2    0    0  0.23261666351E-01  0.42094943380E-02  0.86482788278E-03  0.10202747069E+01  0.10200004435E+01 0.  0.
     999903    2    3    3    0    0 -0.75940043639E-01 -0.95650533300E-01 -0.34115612150E-01  0.12840216244E+00  0.20182308575E-01 0.  0.
         14    1    1    2    0    0 -0.23261666351E-01 -0.42094943380E-02 -0.86482788278E-03  0.23655293092E-01  0.00000000000E+00 0. -1.
     999901    1    3    3    0    0  0.99201709989E-01  0.99860027638E-01  0.34980440033E-01  0.89187254446E+00  0.88000000000E+00 0. -1.
        -11    1    4    4    0    0 -0.48834319937E-01 -0.62904783380E-01 -0.32036547025E-01  0.85839408444E-01  0.51100000000E-03 0.  1.
         11    1    4    4    0    0 -0.27105723702E-01 -0.32745749921E-01 -0.20790651252E-02  0.42562754000E-01  0.51100000000E-03 0. -1.
</event>
<event>
 8    1  0.1051655E+005  0.1043930E+01  0.7957747E-01            NaN
         13   -1    0    0    0    0  0.00000000000E+00  0.00000000000E+00  0.74505805969E-08  0.10566000000E+00  0.10566000000E+00 0. -1.
     999900   -1    0    0    0    0 -0.00000000000E+00 -0.00000000000E+00 -0.74505805969E-08  0.93827000000E+00  0.93827000000E+00 0. -1.
     999902    2    1    2    0    0  0.80443645788E-03 -0.20746361130E-01  0.11890368789E-01  0.10200042923E+01  0.10197236473E+01 0.  0.
     999903    2    3    3    0    0 -0.26976609668E-01 -0.12953497422E-01  0.12706800330E+00  0.13202996682E+00  0.19751053417E-01 0.  0.
         14    1    1    2    0    0 -0.80443645788E-03  0.20746361130E-01 -0.11890368789E-01  0.23925707682E-01  0.00000000000E+00 0.  1.
     999901    1    3    3    0    0  0.27781046126E-01 -0.77928637080E-02 -0.11517763451E+00  0.88797432550E+00  0.88000000000E+00 0. -1.
        -11    1    4    4    0    0 -0.19725091722E-01  0.13222055649E-02  0.73966986207E-01  0.76565028835E-01  0.51100000000E-03 0. -1.
         11    1    4    4    0    0 -0.72515179459E-02 -0.14275702987E-01  0.53101017095E-01  0.55464937986E-01  0.51100000000E-03 0.  1.
</event>
<event>
 8    1  0.1051655E+005  0.1043930E+01  0.7957747E-01            NaN
         13   -1    0    0    0    0  0.00000000000E+00  0.00000000000E+00  0.74505805969E-08  0.10566000000E+00  0.10566000000E+00 0.  1.
     999900   -1    0    0    0    0 -0.00000000000E+00 -0.00000000000E+00 -0.74505805969E-08  0.93827000000E+00  0.93827000000E+00 0.  1.
     999902    2    1    2    0    0 -0.29760627851E-02 -0.94308796008E-02  0.21720862948E-01  0.10200638246E+01  0.10197845910E+01 0.  0.
     999903    2    3    3    0    0 -0.66392788487E-01  0.10932784344E+00  0.80372757018E-02  0.12971975857E+00  0.20050891492E-01 0.  0.
         14    1    1    2    0    0  0.29760627851E-02  0.94308796008E-02 -0.21720862948E-01  0.23866175373E-01  0.00000000000E+00 0. -1.
     999901    1    3    3    0    0  0.63416725702E-01 -0.11875872304E+00  0.13683587246E-01  0.89034406605E+00  0.88000000000E+00 0. -1.
        -11    1    4    4    0    0 -0.51526109720E-01  0.96396825625E-01  0.28656029143E-02  0.10934240154E+00  0.51100000000E-03 0.  1.
         11    1    4    4    0    0 -0.14866678767E-01  0.12931017814E-01  0.51716727876E-02  0.20377357034E-01  0.51100000000E-03 0. -1.
</event>
<event>
 8    1  0.1051655E+005  0.1043930E+01  0.7957747E-01            NaN
         13   -1    0    0    0    0  0.00000000000E+00  0.00000000000E+00  0.74505805969E-08  0.10566000000E+00  0.10566000000E+00 0. -1.
     999900   -1    0    0    0    0 -0.00000000000E+00 -0.00000000000E+00 -0.74505805969E-08  0.93827000000E+00  0.93827000000E+00 0.  1.
     999902    2    1    2    0    0 -0.19972393292E-01  0.47770712170E-03  0.12883480502E-01  0.10201579835E+01  0.10198809747E+01 0.  0.
     999903    2    3    3    0    0  0.36015265265E-01  0.44097841753E-01  0.11648138813E+00  0.13124299291E+00  0.20373768118E-01 0.  0.
         14    1    1    2    0    0  0.19972393292E-01 -0.47770712170E-03 -0.12883480502E-01  0.23772016485E-01  0.00000000000E+00 0. -1.
     999901    1    3    3    0    0 -0.55987658557E-01 -0.43620134631E-01 -0.10359790763E+00  0.88891499060E+00  0.88000000000E+00 0.  1.
        -11    1    4    4    0    0  0.24871561324E-01  0.41061274102E-01  0.10182641997E+00  0.11257665707E+00  0.51100000000E-03 0. -1.
         11    1    4    4    0    0  0.11143703941E-01  0.30365676505E-02  0.14654968166E-01  0.18666335837E-01  0.51100000000E-03 0.  1.
</event>
<event>
 8    1  0.1051655E+005  0.1043930E+01  0.7957747E-01            NaN
         13   -1    0    0    0    0  0.00000000000E+00  0.00000000000E+00  0.74505805969E-08  0.10566000000E+00  0.10566000000E+00 0.  1.
     999900   -1    0    0    0    0 -0.00000000000E+00 -0.00000000000E+00 -0.74505805969E-08  0.93827000000E+00  0.93827000000E+00 0. -1.
     999902    2    1    2    0    0  0.21943533337E-01  0.27248804186E-02  0.14053689595E-01  0.10177298126E+01  0.10173925111E+01 0.  0.
     999903    2    3    3    0    0 -0.43786115574E-01 -0.54834858855E-01  0.10594663470E+00  0.12864161467E+00  0.19997248752E-01 0.  0.
         14    1    1    2    0    0 -0.21943533337E-01 -0.27248804186E-02 -0.14053689595E-01  0.26200187401E-01  0.00000000000E+00 0.  1.
     999901    1    3    3    0    0  0.65729648911E-01  0.57559739273E-01 -0.91892945110E-01  0.88908819793E+00  0.88000000000E+00 0. -1.
        -11    1    4    4    0    0 -0.39107655534E-01 -0.52286504305E-01  0.85940607207E-01  0.10793209134E+00  0.51100000000E-03 0.  1.
         11    1    4    4    0    0 -0.46784600398E-02 -0.25483545500E-02  0.20006027498E-01  0.20709523329E-01  0.51100000000E-03 0. -1.
</event>
<event>
 8    1  0.1051655E+005  0.1043930E+01  0.7957747E-01            NaN
         13   -1    0    0    0    0  0.00000000000E+00  0.00000000000E+00  0.74505805969E-08  0.10566000000E+00  0.10566000000E+00 0. -1.
     999900   -1    0    0    0    0 -0.00000000000E+00 -0.00000000000E+00 -0.74505805969E-08  0.93827000000E+00  0.93827000000E+00 0. -1.
     999902    2    1    2    0    0  0.84226902872E-02 -0.18564103244E-01 -0.16159791772E-01  0.10179164168E+01  0.10175839646E+01 0.  0.
     999903    2    3    3    0    0  0.38162418467E-02  0.12442107324E+00 -0.88650251916E-02  0.12633400688E+00  0.19660250634E-01 0.  0.
         14    1    1    2    0    0 -0.84226902872E-02  0.18564103244E-01  0.16159791772E-01  0.26013583203E-01  0.00000000000E+00 0. -1.
     999901    1    3    3    0    0  0.46064484405E-02 -0.14298517648E+00 -0.72947665806E-02  0.89158240992E+00  0.88000000000E+00 0. -1.
        -11    1    4    4    0    0 -0.23615182834E-02  0.35705390186E-01  0.56340953836E-02  0.36227831963E-01  0.51100000000E-03 0. -1.
         11    1    4    4    0    0  0.61777601300E-02  0.88715683049E-01 -0.14499120575E-01  0.90106174914E-01  0.51100000000E-03 0.  1.
</event>
<event>
 8    1  0.1051655E+005  0.1043930E+01  0.7957747E-01            NaN
         13   -1    0    0    0    0  0.00000000000E+00  0.00000000000E+00  0.74505805969E-08  0.10566000000E+00  0.10566000000E+00 0.  1.
     999900   -1    0    0    0    0 -0.00000000000E+00 -0.00000000000E+00 -0.74505805969E-08  0.93827000000E+00  0.93827000000E+00 0. -1.
     999902    2    1    2    0    0 -0.98094505355E-02 -0.14576935217E-01 -0.15563085973E-01  0.10204582722E+01  0.10201882980E+01 0.  0.
     999903    2    3    3    0    0  0.97677285512E-01  0.80422784937E-01  0.99194311528E-02  0.12847861778E+00  0.19992090173E-01 0.  0.
         14    1    1    2    0    0  0.98094505355E-02  0.14576935217E-01  0.15563085973E-01  0.23471727783E-01  0.00000000000E+00 0.  1.
     999901    1    3    3    0    0 -0.10748673605E+00 -0.94999720154E-01 -0.25482517126E-01  0.89197965444E+00  0.88000000000E+00 0.  1.
        -11    1    4    4    0    0  0.28091369030E-01  0.12362782023E-01  0.40840486709E-02  0.30966174576E-01  0.51100000000E-03 0. -1.
         11    1    4    4    0    0  0.69585916482E-01  0.68060002914E-01  0.58353824820E-02  0.97512443201E-01  0.51100000000E-03 0.  1.
</event>
<event>
 8    1  0.1051655E+005  0.1043930E+01  0.7957747E-01            NaN
         13   -1    0    0    0    0  0.00000000000E+00  0.00000000000E+00  0.74505805969E-08  0.10566000000E+00  0.10566000000E+00 0.  1.
     999900   -1    0    0    0    0 -0.00000000000E+00 -0.00000000000E+00 -0.74505805969E-08  0.93827000000E+00  0.93827000000E+00 0. -1.
     999902    2    1    2    0    0  0.78951443443E-02 -0.16311746246E-01  0.16001987033E-01  0.10197541865E+01  0.10194675723E+01 0.  0.
     999903    2    3    3    0    0 -0.87609938700E-01  0.90765409776E-01 -0.93144709825E-02  0.12777455596E+00  0.18047626191E-01 0.  0.
         14    1    1    2    0    0 -0.78951443443E-02  0.16311746246E-01 -0.16001987033E-01  0.24175813509E-01  0.00000000000E+00 0. -1.
     999901    1    3    3    0    0  0.95505083044E-01 -0.10707715602E+00  0.25316458016E-01  0.89197963053E+00  0.88000000000E+00 0.  1.
        -11    1    4    4    0    0 -0.43481222021E-01  0.32670694137E-01 -0.16222770616E-02  0.54414003967E-01  0.51100000000E-03 0. -1.
         11    1    4    4    0    0 -0.44128716679E-01  0.58094715640E-01 -0.76921939209E-02  0.73360551997E-01  0.51100000000E-03 0.  1.
</event>
<event>
 8    1  0.1051655E+005  0.1043930E+01  0.7957747E-01            NaN
         13   -1    0    0    0    0  0.00000000000E+00  0.00000000000E+00  0.74505805969E-08  0.10566000000E+00  0.10566000000E+00 0.  1.
     999900   -1    0    0    0    0 -0.00000000000E+00 -0.00000000000E+00 -0.74505805969E-08  0.93827000000E+00  0.93827000000E+00 0. -1.
     999902    2    1    2    0    0 -0.13914895418E-01 -0.18682931759E-01  0.23724311569E-02  0.10205140934E+01  0.10202454166E+01 0.  0.
     999903    2    3    3    0    0  0.11784314011E+00  0.28968658676E-01  0.38496135186E-01  0.12869809442E+00  0.18842988789E-01 0.  0.
         14    1    1    2    0    0  0.13914895418E-01  0.18682931759E-01 -0.23724311569E-02  0.23415906628E-01  0.00000000000E+00 0. -1.
     999901    1    3    3    0    0 -0.13175803553E+00 -0.47651590435E-01 -0.36123704029E-01  0.89181599895E+00  0.88000000000E+00 0.  1.
        -11    1    4    4    0    0  0.83260537032E-01  0.18429162691E-01  0.35651904427E-01  0.92429813776E-01  0.51100000000E-03 0. -1.
         11    1    4    4    0    0  0.34582603077E-01  0.10539495985E-01  0.28442307594E-02  0.36268280643E-01  0.51100000000E-03 0.  1.
</event>
<event>
 8    1  0.1051655E+005  0.1043930E+01  0.7957747E-01            NaN
         13   -1    0    0    0    0  0.00000000000E+00  0.00000000000E+00  0.74505805969E-08  0.10566000000E+00  0.10566000000E+00 0. -1.
     999900   -1    0    0    0    0 -0.00000000000E+00 -0.00000000000E+00 -0.74505805969E-08  0.93827000000E+00  0.93827000000E+00 0. -1.
     999902    2    1    2    0    0  0.14597446545E-01 -0.22887338718E-01  0.45776523760E-02  0.10164005499E+01  0.10160276607E+01 0.  0.
     999903    2    3    3    0    0  0.12375478903E+00 -0.22632886254E-01  0.23596987670E-01  0.12945234104E+00  0.19328616753E-01 0.  0.
         14    1    1    2    0    0 -0.14597446545E-01  0.22887338718E-01 -0.45776523760E-02  0.27529450059E-01  0.00000000000E+00 0. -1.
     999901    1    3    3    0    0 -0.10915734248E+00 -0.25445246489E-03 -0.19019335294E-01  0.88694820890E+00  0.88000000000E+00 0.  1.
        -11    1    4    4    0    0  0.48151986981E-01 -0.16331632983E-03  0.49775080809E-02  0.48411540258E-01  0.51100000000E-03 0. -1.
         11    1    4    4    0    0  0.75602802046E-01 -0.22469569924E-01  0.18619479589E-01  0.81040800779E-01  0.51100000000E-03 0.  1.
</event>
<event>
 8    1  0.1051655E+005  0.1043930E+01  0.7957747E-01            NaN
         13   -1    0    0    0    0  0.00000000000E+00  0.00000000000E+00  0.74505805969E-08  0.10566000000E+00  0.10566000000E+00 0. -1.
     999900   -1    0    0    0    0 -0.00000000000E+00 -0.00000000000E+00 -0.74505805969E-08  0.93827000000E+00  0.93827000000E+00 0.  1.
     999902    2    1    2    0    0  0.20285512872E-01  0.11896042852E-01 -0.17982128925E-02  0.10203450167E+01  0.10200724002E+01 0.  0.
     999903    2    3    3    0    0 -0.73548873248E-01  0.26499526136E-01  0.10120595968E+00  0.12926252146E+00  0.18827945685E-01 0.  0.
         14    1    1    2    0    0 -0.20285512872E-01 -0.11896042852E-01  0.17982128925E-02  0.23584983307E-01  0.00000000000E+00 0. -1.
     999901    1    3    3    0    0  0.93834386119E-01 -0.14603483284E-01 -0.10300417257E+00  0.89108249523E+00  0.88000000000E+00 0.  1.
        -11    1    4    4    0    0 -0.51915606733E-01  0.17264685761E-01  0.83448938951E-01  0.99786202102E-01  0.51100000000E-03 0.  1.
         11    1    4    4    0    0 -0.21633266515E-01  0.92348403750E-02  0.17757020726E-01  0.29476319358E-01  0.51100000000E-03 0. -1.
</event>
<event>
 8    1  0.1051655E+005  0.1043930E+01  0.7957747E-01            NaN
         13   -1    0    0    0    0  0.00000000000E+00  0.00000000000E+00  0.74505805969E-08  0.10566000000E+00  0.10566000000E+00 0.  1.
     999900   -1    0    0    0    0 -0.00000000000E+00 -0.00000000000E+00 -0.74505805969E-08  0.93827000000E+00  0.93827000000E+00 0. -1.
     999902    2    1    2    0    0  0.99784142625E-02 -0.23015267370E-01 -0.12602594126E-01  0.10158569406E+01  0.10154689691E+01 0.  0.
     999903    2    3    3    0    0 -0.87030993033E-01  0.30852296927E-01  0.78880612857E-01  0.12418339233E+00  0.25944284002E-01 0.  0.
         14    1    1    2    0    0 -0.99784142625E-02  0.23015267370E-01  0.12602594126E-01  0.28073059363E-01  0.00000000000E+00 0.  1.
     999901    1    3    3    0    0  0.97009407296E-01 -0.53867564297E-01 -0.91483206983E-01  0.89167354831E+00  0.88000000000E+00 0. -1.
        -11    1    4    4    0    0 -0.42105316150E-01  0.13168315814E-01  0.21161739023E-01  0.48932019261E-01  0.51100000000E-03 0.  1.
         11    1    4    4    0    0 -0.44925676883E-01  0.17683981113E-01  0.57718873834E-01  0.75251373070E-01  0.51100000000E-03 0. -1.
</event>
<event>
 8    1  0.1051655E+005  0.1043930E+01  0.7957747E-01            NaN
         13   -1    0    0    0    0  0.00000000000E+00  0.00000000000E+00  0.74505805969E-08  0.10566000000E+00  0.10566000000E+00 0. -1.
     999900   -1    0    0    0    0 -0.00000000000E+00 -0.00000000000E+00 -0.74505805969E-08  0.93827000000E+00  0.93827000000E+00 0. -1.
     999902    2    1    2    0    0  0.34834723710E-02 -0.19868286798E-01  0.41665458505E-02  0.10233328278E+01  0.10231255216E+01 0.  0.
     999903    2    3    3    0    0 -0.15077526321E-01  0.68748689756E-01 -0.10872648333E+00  0.13151316255E+00  0.22815556217E-01 0.  0.
         14    1    1    2    0    0 -0.34834723710E-02  0.19868286798E-01 -0.41665458505E-02  0.20597172242E-01  0.00000000000E+00 0. -1.
     999901    1    3    3    0    0  0.18560998692E-01 -0.88616976554E-01  0.11289302918E+00  0.89181966520E+00  0.88000000000E+00 0.  1.
        -11    1    4    4    0    0 -0.89289735629E-02  0.29861871631E-01 -0.68320585476E-01  0.75096081568E-01  0.51100000000E-03 0.  1.
         11    1    4    4    0    0 -0.61485527576E-02  0.38886818125E-01 -0.40405897851E-01  0.56417080986E-01  0.51100000000E-03 0. -1.
</event>
<event>
 8    1  0.1051655E+005  0.1043930E+01  0.7957747E-01            NaN
         13   -1    0    0    0    0  0.00000000000E+00  0.00000000000E+00  0.74505805969E-08  0.10566000000E+00  0.10566000000E+00 0.  1.
     999900   -1    0    0    0    0 -0.00000000000E+00 -0.00000000000E+00 -0.74505805969E-08  0.93827000000E+00  0.93827000000E+00 0. -1.
     999902    2    1    2    0    0  0.23197322095E-01 -0.40210275298E-02  0.31443628221E-02  0.10201777068E+01  0.10199011629E+01 0.  0.
     999903    2    3    3    0    0  0.90115672644E-01 -0.70501199677E-02 -0.95092767669E-01  0.13218121196E+00  0.16084143880E-01 0.  0.
         14    1    1    2    0    0 -0.23197322095E-01  0.40210275298E-02 -0.31443628221E-02  0.23752293201E-01  0.00000000000E+00 0. -1.
     999901    1    3    3    0    0 -0.66918350549E-01  0.30290924379E-02  0.98237130491E-01  0.88799649484E+00  0.88000000000E+00 0.  1.
        -11    1    4    4    0    0  0.31742691453E-01  0.26101435574E-02 -0.25273682399E-01  0.40662408353E-01  0.51100000000E-03 0. -1.
         11    1    4    4    0    0  0.58372981190E-01 -0.96602635251E-02 -0.69819085270E-01  0.91518803605E-01  0.51100000000E-03 0.  1.
</event>
<event>
 8    1  0.1051655E+005  0.1043930E+01  0.7957747E-01            NaN
         13   -1    0    0    0    0  0.00000000000E+00  0.00000000000E+00  0.74505805969E-08  0.10566000000E+00  0.10566000000E+00 0.  1.
     999900   -1    0    0    0    0 -0.00000000000E+00 -0.00000000000E+00 -0.74505805969E-08  0.93827000000E+00  0.93827000000E+00 0. -1.
     999902    2    1    2    0    0  0.21075282656E-01 -0.81748738310E-02 -0.74345487447E-02  0.10201336008E+01  0.10198560167E+01 0.  0.
     999903    2    3    3    0    0  0.13413700011E-01 -0.12710913168E+00  0.22859624266E-01  0.13158321140E+00  0.21328862993E-01 0.  0.
         14    1    1    2    0    0 -0.21075282656E-01  0.81748738310E-02  0.74345487447E-02  0.23796399228E-01  0.00000000000E+00 0.  1.
     999901    1    3    3    0    0  0.76615826445E-02  0.11893425785E+00 -0.30294173011E-01  0.88855038937E+00  0.88000000000E+00 0. -1.
        -11    1    4    4    0    0  0.25578723313E-02 -0.98733291494E-01  0.12899095737E-01  0.99606492519E-01  0.51100000000E-03 0.  1.
         11    1    4    4    0    0  0.10855827680E-01 -0.28375840183E-01  0.99605285284E-02  0.31976718879E-01  0.51100000000E-03 0. -1.
</event>
<event>
 8    1  0.1051655E+005  0.1043930E+01  0.7957747E-01            NaN
         13   -1    0    0    0    0  0.00000000000E+00  0.00000000000E+00  0.74505805969E-08  0.10566000000E+00  0.10566000000E+00 0.  1.
     999900   -1    0    0    0    0 -0.00000000000E+00 -0.00000000000E+00 -0.74505805969E-08  0.93827000000E+00  0.93827000000E+00 0. -1.
     999902    2    1    2    0    0 -0.20132359424E-01 -0.57617904065E-03  0.12286673799E-01  0.10203374963E+01  0.10200647039E+01 0.  0.
     999903    2    3    3    0    0 -0.15303067176E-01  0.12821154611E+00 -0.59348295861E-02  0.13076365259E+00  0.19787021379E-01 0.  0.
         14    1    1    2    0    0  0.20132359424E-01  0.57617904065E-03 -0.12286673799E-01  0.23592503710E-01  0.00000000000E+00 0. -1.
     999901    1    3    3    0    0 -0.48292922477E-02 -0.12878772515E+00  0.18221503385E-01  0.88957384370E+00  0.88000000000E+00 0.  1.
        -11    1    4    4    0    0 -0.13632639995E-01  0.88269812975E-01  0.45438986638E-02  0.89433309745E-01  0.51100000000E-03 0.  1.
         11    1    4    4    0    0 -0.16704271816E-02  0.39941733135E-01 -0.10478728250E-01  0.41330342843E-01  0.51100000000E-03 0. -1.
</event>
<event>
 8    1  0.1051655E+005  0.1043930E+01  0.7957747E-01            NaN
         13   -1    0    0    0    0  0.00000000000E+00  0.00000000000E+00  0.74505805969E-08  0.10566000000E+00  0.10566000000E+00 0.  1.
     999900   -1    0    0    0    0 -0.00000000000E+00 -0.00000000000E+00 -0.74505805969E-08  0.93827000000E+00  0.93827000000E+00 0. -1.
     999902    2    1    2    0    0  0.16118486225E-01  0.16091034908E-01 -0.69737986761E-02  0.10201106618E+01  0.10198325360E+01 0.  0.
     999903    2    3    3    0    0  0.34033611008E-01 -0.11993650913E+00  0.14477941891E-01  0.12922086977E+00  0.30746861357E-01 0.  0.
         14    1    1    2    0    0 -0.16118486225E-01 -0.16091034908E-01  0.69737986761E-02  0.23819338163E-01  0.00000000000E+00 0.  1.
     999901    1    3    3    0    0 -0.17915124783E-01  0.13602754403E+00 -0.21451740567E-01  0.89088979206E+00  0.88000000000E+00 0.  1.
        -11    1    4    4    0    0 -0.17602692095E-02 -0.30824940427E-01  0.12079402248E-01  0.33157933888E-01  0.51100000000E-03 0.  1.
         11    1    4    4    0    0  0.35793880217E-01 -0.89111568700E-01  0.23985396422E-02  0.96062935884E-01  0.51100000000E-03 0. -1.
</event>
<event>
 8    1  0.1051655E+005  0.1043930E+01  0.7957747E-01            NaN
         13   -1    0    0    0    0  0.00000000000E+00  0.00000000000E+00  0.74505805969E-08  0.10566000000E+00  0.10566000000E+00 0. -1.
     999900   -1    0    0    0    0 -0.00000000000E+00 -0.00000000000E+00 -0.74505805969E-08  0.93827000000E+00  0.93827000000E+00 0. -1.
     999902    2    1    2    0    0  0.20470883870E-01  0.48096842935E-02 -0.10556343623E-01  0.10204007301E+01  0.10201294151E+01 0.  0.
     999903    2    3    3    0    0  0.26263396912E-01  0.12655343457E+00 -0.19012668415E-01  0.13196018437E+00  0.18613728297E-01 0.  0.
         14    1    1    2    0    0 -0.20470883870E-01 -0.48096842935E-02  0.10556343623E-01  0.23529269860E-01  0.00000000000E+00 0. -1.
     999901    1    3    3    0    0 -0.57925130416E-02 -0.12174375027E+00  0.84563247920E-02  0.88844054577E+00  0.88000000000E+00 0. -1.
        -11    1    4    4    0    0  0.11462989388E-01  0.45999626288E-01  0.18354633248E-02  0.47444660300E-01  0.51100000000E-03 0.  1.
         11    1    4    4    0    0  0.14800407524E-01  0.80553808278E-01 -0.20848131740E-01  0.84515524071E-01  0.51100000000E-03 0. -1.
</event>
<event>
 8    1  0.1051655E+005  0.1043930E+01  0.7957747E-01            NaN
         13   -1    0    0    0    0  0.00000000000E+00  0.00000000000E+00  0.74505805969E-08  0.10566000000E+00  0.10566000000E+00 0.  1.
     999900   -1    0    0    0    0 -0.00000000000E+00 -0.00000000000E+00 -0.74505805969E-08  0.93827000000E+00  0.93827000000E+00 0. -1.
     999902    2    1    2    0    0  0.26443342405E-02 -0.25662324539E-01  0.83805144969E-02  0.10168047271E+01  0.10164428527E+01 0.  0.
     999903    2    3    3    0    0  0.57606300839E-01  0.92403731411E-01 -0.57378828855E-01  0.12479312263E+00  0.20592668140E-01 0.  0.
         14    1    1    2    0    0 -0.26443342405E-02  0.25662324539E-01 -0.83805144969E-02  0.27125272857E-01  0.00000000000E+00 0. -1.
     999901    1    3    3    0    0 -0.54961966599E-01 -0.11806605595E+00  0.65759343352E-01  0.89201160451E+00  0.88000000000E+00 0.  1.
        -11    1    4    4    0    0  0.22503044988E-01  0.37291656817E-01 -0.34478379213E-01  0.55552447796E-01  0.51100000000E-03 0. -1.
         11    1    4    4    0    0  0.35103255852E-01  0.55112074593E-01 -0.22900449641E-01  0.69240674839E-01  0.51100000000E-03 0.  1.
</event>
<event>
 8    1  0.1051655E+005  0.1043930E+01  0.7957747E-01            NaN
         13   -1    0    0    0    0  0.00000000000E+00  0.00000000000E+00  0.74505805969E-08  0.10566000000E+00  0.10566000000E+00 0.  1.
     999900   -1    0    0    0    0 -0.00000000000E+00 -0.00000000000E+00 -0.74505805969E-08  0.93827000000E+00  0.93827000000E+00 0.  1.
     999902    2    1    2    0    0  0.72435773051E-02  0.21374103958E-01  0.53958385527E-02  0.10207257589E+01  0.10204619729E+01 0.  0.
     999903    2    3    3    0    0 -0.17749141966E-01 -0.12531849561E+00  0.18336567357E-02  0.12822587433E+00  0.20463508182E-01 0.  0.
         14    1    1    2    0    0 -0.72435773051E-02 -0.21374103958E-01 -0.53958385527E-02  0.23204241118E-01  0.00000000000E+00 0.  1.
     999901    1    3    3    0    0  0.24992719271E-01  0.14669259957E+00  0.35621818170E-02  0.89249988455E+00  0.88000000000E+00 0.  1.
        -11    1    4    4    0    0  0.20639320544E-02 -0.57064722233E-01  0.23116149131E-02  0.57151089434E-01  0.51100000000E-03 0.  1.
         11    1    4    4    0    0 -0.19813074020E-01 -0.68253773382E-01 -0.47795817733E-03  0.71074784896E-01  0.51100000000E-03 0. -1.
</event>
<event>
 8    1  0.1051655E+005  0.1043930E+01  0.7957747E-01            NaN
         13   -1    0    0    0    0  0.00000000000E+00  0.00000000000E+00  0.74505805969E-08  0.10566000000E+00  0.10566000000E+00 0. -1.
     999900   -1    0    0    0    0 -0.00000000000E+00 -0.00000000000E+00 -0.74505805969E-08  0.93827000000E+00  0.93827000000E+00 0.  1.
     999902    2    1    2    0    0 -0.20671518792E-01 -0.55858425850E-02 -0.39120387063E-02  0.10221626535E+01  0.10219308552E+01 0.  0.
     999903    2    3    3    0    0 -0.56636909418E-01 -0.55053741624E-01 -0.10647064336E+00  0.13409798821E+00  0.20189565858E-01 0.  0.
         14    1    1    2    0    0  0.20671518792E-01  0.55858425850E-02  0.39120387063E-02  0.21767346494E-01  0.00000000000E+00 0.  1.
     999901    1    3    3    0    0  0.35965390627E-01  0.49467899039E-01  0.10255860465E+00  0.88806466530E+00  0.88000000000E+00 0. -1.
        -11    1    4    4    0    0 -0.49820815769E-01 -0.49949451368E-01 -0.81944474293E-01  0.10813056628E+00  0.51100000000E-03 0. -1.
         11    1    4    4    0    0 -0.68160936495E-02 -0.51042902557E-02 -0.24526169067E-01  0.25967421931E-01  0.51100000000E-03 0.  1.
</event>
<event>
 8    1  0.1051655E+005  0.1043930E+01  0.7957747E-01            NaN
         13   -1    0    0    0    0  0.00000000000E+00  0.00000000000E+00  0.74505805969E-08  0.10566000000E+00  0.10566000000E+00 0.  1.
     999900   -1    0    0    0    0 -0.00000000000E+00 -0.00000000000E+00 -0.74505805969E-08  0.93827000000E+00  0.93827000000E+00 0. -1.
     999902    2    1    2    0    0 -0.13793043575E-01  0.22907809633E-02 -0.19049371029E-01  0.10203000558E+01  0.10200263867E+01 0.  0.
     999903    2    3    3    0    0 -0.45749681968E-01 -0.75875984241E-01  0.92116050550E-01  0.12929555471E+00  0.19539071493E-01 0.  0.
         14    1    1    2    0    0  0.13793043575E-01 -0.22907809633E-02  0.19049371029E-01  0.23629944247E-01  0.00000000000E+00 0.  1.
     999901    1    3    3    0    0  0.31956638393E-01  0.78166765204E-01 -0.11116542158E+00  0.89100450104E+00  0.88000000000E+00 0. -1.
        -11    1    4    4    0    0 -0.40249880174E-01 -0.54046536545E-01  0.61077676876E-01  0.90949572292E-01  0.51100000000E-03 0.  1.
         11    1    4    4    0    0 -0.54998017945E-02 -0.21829447695E-01  0.31038373674E-01  0.38345982421E-01  0.51100000000E-03 0. -1.
</event>
<event>
 8    1  0.1051655E+005  0.1043930E+01  0.7957747E-01            NaN
         13   -1    0    0    0    0  0.00000000000E+00  0.00000000000E+00  0.74505805969E-08  0.10566000000E+00  0.10566000000E+00 0. -1.
     999900   -1    0    0    0    0 -0.00000000000E+00 -0.00000000000E+00 -0.74505805969E-08  0.93827000000E+00  0.93827000000E+00 0.  1.
     999902    2    1    2    0    0 -0.79038009655E-02 -0.16419515929E-01 -0.13891766501E-01  0.10210159923E+01  0.10207588377E+01 0.  0.
     999903    2    3    3    0    0 -0.97320468543E-01  0.84209646080E-01 -0.11421129595E-01  0.13077575913E+00  0.20231630771E-01 0.  0.
         14    1    1    2    0    0  0.79038009655E-02  0.16419515929E-01  0.13891766501E-01  0.22914007715E-01  0.00000000000E+00 0. -1.
     999901    1    3    3    0    0  0.89416667578E-01 -0.10062916201E+00 -0.24706369061E-02  0.89024023316E+00  0.88000000000E+00 0.  1.
        -11    1    4    4    0    0 -0.81437207187E-01  0.60188308825E-01 -0.11946823611E-01  0.10196881361E+00  0.51100000000E-03 0.  1.
         11    1    4    4    0    0 -0.15883261356E-01  0.24021337255E-01  0.52569401643E-03  0.28806945517E-01  0.51100000000E-03 0. -1.
</event>
<event>
 8    1  0.1051655E+005  0.1043930E+01  0.7957747E-01            NaN
         13   -1    0    0    0    0  0.00000000000E+00  0.00000000000E+00  0.74505805969E-08  0.10566000000E+00  0.10566000000E+00 0. -1.
     999900   -1    0    0    0    0 -0.00000000000E+00 -0.00000000000E+00 -0.74505805969E-08  0.93827000000E+00  0.93827000000E+00 0. -1.
     999902    2    1    2    0    0  0.19881899398E-01 -0.12066196359E-01  0.17886889123E-02  0.10206044255E+01  0.10203378416E+01 0.  0.
     999903    2    3    3    0    0 -0.90174841900E-01 -0.82427818209E-02  0.89893943490E-01  0.12937513923E+00  0.21390652407E-01 0.  0.
         14    1    1    2    0    0 -0.19881899398E-01  0.12066196359E-01 -0.17886889123E-02  0.23325574511E-01  0.00000000000E+00 0.  1.
     999901    1    3    3    0    0  0.11005674130E+00 -0.38234145380E-02 -0.88105254577E-01  0.89122928626E+00  0.88000000000E+00 0. -1.
        -11    1    4    4    0    0 -0.96905347977E-02 -0.33424430634E-02  0.27023362301E-02  0.10613299788E-01  0.51100000000E-03 0. -1.
         11    1    4    4    0    0 -0.80484307103E-01 -0.49003387575E-02  0.87191607260E-01  0.11876183944E+00  0.51100000000E-03 0.  1.
</event>
<event>
 8    1  0.1051655E+005  0.1043930E+01  0.7957747E-01            NaN
         13   -1    0    0    0    0  0.00000000000E+00  0.00000000000E+00  0.74505805969E-08  0.10566000000E+00  0.10566000000E+00 0.  1.
     999900   -1    0    0    0    0 -0.00000000000E+00 -0.00000000000E+00 -0.74505805969E-08  0.93827000000E+00  0.93827000000E+00 0.  1.
     999902    2    1    2    0    0 -0.25024479527E-02 -0.17717666484E-01 -0.16222581981E-01  0.10197773580E+01  0.10194912995E+01 0.  0.
     999903    2    3    3    0    0 -0.78399478295E-02 -0.10954532989E+00 -0.72452049779E-01  0.13319822347E+00  0.20756279429E-01 0.  0.
         14    1    1    2    0    0  0.25024479527E-02  0.17717666484E-01  0.16222581981E-01  0.24152642040E-01  0.00000000000E+00 0. -1.
     999901    1    3    3    0    0  0.53374998769E-02  0.91827663401E-01  0.56229467798E-01  0.88657913449E+00  0.88000000000E+00 0. -1.
        -11    1    4    4    0    0  0.66209102919E-02 -0.36105419663E-01 -0.27693774859E-01  0.45985259259E-01  0.51100000000E-03 0.  1.
         11    1    4    4    0    0 -0.14460858121E-01 -0.73439910222E-01 -0.44758274920E-01  0.87212964208E-01  0.51100000000E-03 0. -1.
</event>
<event>
 8    1  0.1051655E+005  0.1043930E+01  0.7957747E-01            NaN
         13   -1    0    0    0    0  0.00000000000E+00  0.00000000000E+00  0.74505805969E-08  0.10566000000E+00  0.10566000000E+00 0.  1.
     999900   -1    0    0    0    0 -0.00000000000E+00 -0.00000000000E+00 -0.74505805969E-08  0.93827000000E+00  0.93827000000E+00 0. -1.
     999902    2    1    2    0    0 -0.15137781109E-01 -0.16399779510E-01 -0.22395359989E-03  0.10216106062E+01  0.10213667683E+01 0.  0.
     999903    2    3    3    0    0 -0.84542960292E-01  0.52832317845E-01  0.84591746347E-01  0.13211419520E+00  0.18963941575E-01 0.  0.
         14    1    1    2    0    0  0.15137781109E-01  0.16399779510E-01  0.22395359989E-03  0.22319393811E-01  0.00000000000E+00 0.  1.
     999901    1    3    3    0    0  0.69405179183E-01 -0.69232097355E-01 -0.84815699947E-01  0.88949641099E+00  0.88000000000E+00 0. -1.
        -11    1    4    4    0    0 -0.81230714561E-01  0.47941264946E-01  0.73660215809E-01  0.11967824525E+00  0.51100000000E-03 0.  1.
         11    1    4    4    0    0 -0.33122457312E-02  0.48910528994E-02  0.10931530538E-01  0.12435949950E-01  0.51100000000E-03 0. -1.
</event>
<event>
 8    1  0.1051655E+005  0.1043930E+01  0.7957747E-01            NaN
         13   -1    0    0    0    0  0.00000000000E+00  0.00000000000E+00  0.74505805969E-08  0.10566000000E+00  0.10566000000E+00 0.  1.
     999900   -1    0    0    0    0 -0.00000000000E+00 -0.00000000000E+00 -0.74505805969E-08  0.93827000000E+00  0.93827000000E+00 0. -1.
     999902    2    1    2    0    0 -0.13021253167E-01 -0.17756205997E-01  0.82489654273E-02  0.10204165716E+01  0.10201456260E+01 0.  0.
     999903    2    3    3    0    0  0.46297294706E-01  0.63391882457E-01  0.10138747454E+00  0.12981088764E+00  0.20235520690E-01 0.  0.
         14    1    1    2    0    0  0.13021253167E-01  0.17756205997E-01 -0.82489654273E-02  0.23513428420E-01  0.00000000000E+00 0. -1.
     999901    1    3    3    0    0 -0.59318547873E-01 -0.81148088454E-01 -0.93138509117E-01  0.89060568394E+00  0.88000000000E+00 0. -1.
        -11    1    4    4    0    0  0.26400444296E-01  0.23903094623E-01  0.34213429437E-01  0.49387865579E-01  0.51100000000E-03 0.  1.
         11    1    4    4    0    0  0.19896850410E-01  0.39488787834E-01  0.67174045107E-01  0.80423022064E-01  0.51100000000E-03 0. -1.
</event>
<event>
 8    1  0.1051655E+005  0.1043930E+01  0.7957747E-01            NaN
         13   -1    0    0    0    0  0.00000000000E+00  0.00000000000E+00  0.74505805969E-08  0.10566000000E+00  0.10566000000E+00 0.  1.
     999900   -1    0    0    0    0 -0.00000000000E+00 -0.00000000000E+00 -0.74505805969E-08  0.93827000000E+00  0.93827000000E+00 0.  1.
     999902    2    1    2    0    0 -0.20072516981E-01 -0.10916833591E-01 -0.63093806667E-02  0.10202257498E+01  0.10199503366E+01 0.  0.
     999903    2    3    3    0    0  0.90449358275E-01 -0.57761467723E-01  0.68723368412E-01  0.12891243894E+00  0.19443301748E-01 0.  0.
         14    1    1    2    0    0  0.20072516981E-01  0.10916833591E-01  0.63093806667E-02  0.23704250210E-01  0.00000000000E+00 0.  1.
     999901    1    3    3    0    0 -0.11052187526E+00  0.46844634132E-01 -0.75032749079E-01  0.89131331085E+00  0.88000000000E+00 0.  1.
        -11    1    4    4    0    0  0.42399018044E-01 -0.28960424817E-01  0.44221182750E-01  0.67765456256E-01  0.51100000000E-03 0.  1.
         11    1    4    4    0    0  0.48050340230E-01 -0.28801042906E-01  0.24502185662E-01  0.61146982689E-01  0.51100000000E-03 0. -1.
</event>
<event>
 8    1  0.1051655E+005  0.1043930E+01  0.7957747E-01            NaN
         13   -1    0    0    0    0  0.00000000000E+00  0.00000000000E+00  0.74505805969E-08  0.10566000000E+00  0.10566000000E+00 0.  1.
     999900   -1    0    0    0    0 -0.00000000000E+00 -0.00000000000E+00 -0.74505805969E-08  0.93827000000E+00  0.93827000000E+00 0.  1.
     999902    2    1    2    0    0 -0.14969646400E-02  0.20098744855E-02 -0.23036649568E-01  0.10207574360E+01  0.10204943780E+01 0.  0.
     999903    2    3    3    0    0  0.81529243273E-01  0.93359018594E-01  0.34654895005E-01  0.13027086584E+00  0.20164644273E-01 0.  0.
         14    1    1    2    0    0  0.14969646400E-02 -0.20098744855E-02  0.23036649568E-01  0.23172563990E-01  0.00000000000E+00 0.  1.
     999901    1    3    3    0    0 -0.83026207913E-01 -0.91349144108E-01 -0.57691544572E-01  0.89048657017E+00  0.88000000000E+00 0.  1.
        -11    1    4    4    0    0  0.59634286317E-01  0.77529418095E-01  0.21199973004E-01  0.10008375868E+00  0.51100000000E-03 0. -1.
         11    1    4    4    0    0  0.21894956956E-01  0.15829600498E-01  0.13454922001E-01  0.30187107166E-01  0.51100000000E-03 0.  1.
</event>
<event>
 8    1  0.1051655E+005  0.1043930E+01  0.7957747E-01            NaN
         13   -1    0    0    0    0  0.00000000000E+00  0.00000000000E+00  0.74505805969E-08  0.10566000000E+00  0.10566000000E+00 0.  1.
     999900   -1    0    0    0    0 -0.00000000000E+00 -0.00000000000E+00 -0.74505805969E-08  0.93827000000E+00  0.93827000000E+00 0. -1.
     999902    2    1    2    0    0  0.52899585693E-02 -0.21749412102E-02  0.23026326065E-01  0.10202039442E+01  0.10199280181E+01 0.  0.
     999903    2    3    3    0    0 -0.36124984607E-01  0.11239583958E+00  0.53839607242E-01  0.13127699580E+00  0.19927544984E-01 0.  0.
         14    1    1    2    0    0 -0.52899585693E-02  0.21749412102E-02 -0.23026326065E-01  0.23726055782E-01  0.00000000000E+00 0. -1.
     999901    1    3    3    0    0  0.41414943176E-01 -0.11457078079E+00 -0.30813281178E-01  0.88892694842E+00  0.88000000000E+00 0. -1.
        -11    1    4    4    0    0 -0.22589458080E-01  0.93712416018E-01  0.39993232604E-01  0.10436484230E+00  0.51100000000E-03 0. -1.
         11    1    4    4    0    0 -0.13535526527E-01  0.18683423566E-01  0.13846374638E-01  0.26912153503E-01  0.51100000000E-03 0.  1.
</event>
<event>
 8    1  0.1051655E+005  0.1043930E+01  0.7957747E-01            NaN
         13   -1    0    0    0    0  0.00000000000E+00  0.00000000000E+00  0.74505805969E-08  0.10566000000E+00  0.10566000000E+00 0.  1.
     999900   -1    0    0    0    0 -0.00000000000E+00 -0.00000000000E+00 -0.74505805969E-08  0.93827000000E+00  0.93827000000E+00 0. -1.
     999902    2    1    2    0    0 -0.77196860790E-02 -0.21309358105E-01  0.70120406218E-02  0.10202055188E+01  0.10199296297E+01 0.  0.
     999903    2    3    3    0    0  0.11708805041E+00  0.49157642616E-01 -0.12744584961E-01  0.12839113588E+00  0.13991924462E-01 0.  0.
         14    1    1    2    0    0  0.77196860790E-02  0.21309358105E-01 -0.70120406218E-02  0.23724481232E-01  0.00000000000E+00 0.  1.
     999901    1    3    3    0    0 -0.12480773649E+00 -0.70467000722E-01  0.19756625583E-01  0.89181438289E+00  0.88000000000E+00 0. -1.
        -11    1    4    4    0    0  0.53423582613E-01  0.20924180951E-01  0.10747093586E-02  0.57387425877E-01  0.51100000000E-03 0.  1.
         11    1    4    4    0    0  0.63664467795E-01  0.28233461666E-01 -0.13819294319E-01  0.71003710000E-01  0.51100000000E-03 0. -1.
</event>
<event>
 8    1  0.1051655E+005  0.1043930E+01  0.7957747E-01            NaN
         13   -1    0    0    0    0  0.00000000000E+00  0.00000000000E+00  0.74505805969E-08  0.10566000000E+00  0.10566000000E+00 0. -1.
     999900   -1    0    0    0    0 -0.00000000000E+00 -0.00000000000E+00 -0.74505805969E-08  0.93827000000E+00  0.93827000000E+00 0. -1.
     999902    2    1    2    0    0  0.19627870931E-01 -0.11959228740E-01  0.13521294628E-02  0.10209059968E+01  0.10206463391E+01 0.  0.
     999903    2    3    3    0    0 -0.78960262053E-01 -0.10221082522E+00 -0.26677388586E-02  0.13080424420E+00  0.20514816464E-01 0.  0.
         14    1    1    2    0    0 -0.19627870931E-01  0.11959228740E-01 -0.13521294628E-02  0.23024003202E-01  0.00000000000E+00 0.  1.
     999901    1    3    3    0    0  0.98588132984E-01  0.90251596483E-01  0.40198683214E-02  0.89010175260E+00  0.88000000000E+00 0. -1.
        -11    1    4    4    0    0 -0.60794039639E-01 -0.71038667021E-01  0.60010659246E-02  0.93694617673E-01  0.51100000000E-03 0. -1.
         11    1    4    4    0    0 -0.18166222414E-01 -0.31172158202E-01 -0.86688047832E-02  0.37109626529E-01  0.51100000000E-03 0.  1.
</event>
<event>
 8    1  0.1051655E+005  0.1043930E+01  0.7957747E-01            NaN
         13   -1    0    0    0    0  0.00000000000E+00  0.00000000000E+00  0.74505805969E-08  0.10566000000E+00  0.10566000000E+00 0.  1.
     999900   -1    0    0    0    0 -0.00000000000E+00 -0.00000000000E+00 -0.74505805969E-08  0.93827000000E+00  0.93827000000E+00 0. -1.
     999902    2    1    2    0    0  0.20819334798E-01  0.79529363324E-02 -0.34661098983E-02  0.10213754480E+01  0.10211263869E+01 0.  0.
     999903    2    3    3    0    0 -0.28214884157E-01 -0.92036237688E-01  0.84945333364E-01  0.12996153021E+00  0.20187643189E-01 0.  0.
         14    1    1    2    0    0 -0.20819334798E-01 -0.79529363324E-02  0.34661098983E-02  0.22554551992E-01  0.00000000000E+00 0.  1.
     999901    1    3    3    0    0  0.49034218955E-01  0.99989174021E-01 -0.88411443262E-01  0.89141391780E+00  0.88000000000E+00 0. -1.
        -11    1    4    4    0    0 -0.23326113179E-01 -0.58154459676E-01  0.65247316281E-01  0.90462821861E-01  0.51100000000E-03 0. -1.
         11    1    4    4    0    0 -0.48887709789E-02 -0.33881778013E-01  0.19698017083E-01  0.39498708346E-01  0.51100000000E-03 0.  1.
</event>
<event>
 8    1  0.1051655E+005  0.1043930E+01  0.7957747E-01            NaN
         13   -1    0    0    0    0  0.00000000000E+00  0.00000000000E+00  0.74505805969E-08  0.10566000000E+00  0.10566000000E+00 0.  1.
     999900   -1    0    0    0    0 -0.00000000000E+00 -0.00000000000E+00 -0.74505805969E-08  0.93827000000E+00  0.93827000000E+00 0. -1.
     999902    2    1    2    0    0  0.95486829532E-03 -0.24012273774E-01  0.64531628482E-02  0.10190473881E+01  0.10187435569E+01 0.  0.
     999903    2    3    3    0    0 -0.16715851849E-01  0.11986922233E+00  0.31238294962E-01  0.12684312781E+00  0.21570763441E-01 0.  0.
         14    1    1    2    0    0 -0.95486829532E-03  0.24012273774E-01 -0.64531628482E-02  0.24882611921E-01  0.00000000000E+00 0.  1.
     999901    1    3    3    0    0  0.17670720144E-01 -0.14388149610E+00 -0.24785132113E-01  0.89220426027E+00  0.88000000000E+00 0.  1.
        -11    1    4    4    0    0  0.19390765061E-02  0.34301604649E-01  0.16179447743E-01  0.37978885575E-01  0.51100000000E-03 0.  1.
         11    1    4    4    0    0 -0.18654928355E-01  0.85567617679E-01  0.15058847218E-01  0.88864242234E-01  0.51100000000E-03 0. -1.
</event>
<event>
 8    1  0.1051655E+005  0.1043930E+01  0.7957747E-01            NaN
         13   -1    0    0    0    0  0.00000000000E+00  0.00000000000E+00  0.74505805969E-08  0.10566000000E+00  0.10566000000E+00 0.  1.
     999900   -1    0    0    0    0 -0.00000000000E+00 -0.00000000000E+00 -0.74505805969E-08  0.93827000000E+00  0.93827000000E+00 0.  1.
     999902    2    1    2    0    0  0.11438748289E-01  0.25733544285E-02 -0.27411517079E-01  0.10141162719E+01  0.10136779343E+01 0.  0.
     999903    2    3    3    0    0  0.98901466832E-01  0.62594827551E-01  0.39273323418E-01  0.12524104312E+00  0.21054984464E-01 0.  0.
         14    1    1    2    0    0 -0.11438748289E-01 -0.25733544285E-02  0.27411517079E-01  0.29813728113E-01  0.00000000000E+00 0.  1.
     999901    1    3    3    0    0 -0.87462718543E-01 -0.60021473123E-01 -0.66684840497E-01  0.88887522877E+00  0.88000000000E+00 0.  1.
        -11    1    4    4    0    0  0.45154398271E-01  0.18498344556E-01  0.22425011778E-01  0.53705220498E-01  0.51100000000E-03 0.  1.
         11    1    4    4    0    0  0.53747068561E-01  0.44096482995E-01  0.16848311640E-01  0.71535822618E-01  0.51100000000E-03 0. -1.
</event>
<event>
 8    1  0.1051655E+005  0.1043930E+01  0.7957747E-01            NaN
         13   -1    0    0    0    0  0.00000000000E+00  0.00000000000E+00  0.74505805969E-08  0.10566000000E+00  0.10566000000E+00 0. -1.
     999900   -1    0    0    0    0 -0.00000000000E+00 -0.00000000000E+00 -0.74505805969E-08  0.93827000000E+00  0.93827000000E+00 0.  1.
     999902    2    1    2    0    0 -0.17846846150E-01  0.16093993334E-01 -0.69576646727E-02  0.10189112943E+01  0.10186040889E+01 0.  0.
     999903    2    3    3    0    0  0.33382710625E-02 -0.61288232224E-01  0.10995238256E+00  0.12756131969E+00  0.20370871097E-01 0.  0.
         14    1    1    2    0    0  0.17846846150E-01 -0.16093993334E-01  0.69576646727E-02  0.25018705734E-01  0.00000000000E+00 0. -1.
     999901    1    3    3    0    0 -0.21185117212E-01  0.77382225558E-01 -0.11691004723E+00  0.89134997457E+00  0.88000000000E+00 0.  1.
        -11    1    4    4    0    0  0.55149415552E-02 -0.52901552516E-01  0.77706129432E-01  0.94167364364E-01  0.51100000000E-03 0. -1.
         11    1    4    4    0    0 -0.21766704927E-02 -0.83866797079E-02  0.32246253126E-01  0.33393955331E-01  0.51100000000E-03 0.  1.
</event>
<event>
 8    1  0.1051655E+005  0.1043930E+01  0.7957747E-01            NaN
         13   -1    0    0    0    0  0.00000000000E+00  0.00000000000E+00  0.74505805969E-08  0.10566000000E+00  0.10566000000E+00 0. -1.
     999900   -1    0    0    0    0 -0.00000000000E+00 -0.00000000000E+00 -0.74505805969E-08  0.93827000000E+00  0.93827000000E+00 0.  1.
     999902    2    1    2    0    0 -0.16717083721E-01  0.12382461338E-03 -0.11494896260E-01  0.10236418542E+01  0.10234407832E+01 0.  0.
     999903    2    3    3    0    0 -0.10860284633E+00 -0.66985441134E-01  0.39655109136E-01  0.13484324371E+00  0.18125814173E-01 0.  0.
         14    1    1    2    0    0  0.16717083721E-01 -0.12382461338E-03  0.11494896260E-01  0.20288145817E-01  0.00000000000E+00 0. -1.
     999901    1    3    3    0    0  0.91885762610E-01  0.67109265747E-01 -0.51150005396E-01  0.88879861047E+00  0.88000000000E+00 0.  1.
        -11    1    4    4    0    0 -0.55183790668E-01 -0.24797047903E-01  0.23314271011E-01  0.64837957177E-01  0.51100000000E-03 0. -1.
         11    1    4    4    0    0 -0.53419055664E-01 -0.42188393231E-01  0.16340838126E-01  0.70005286536E-01  0.51100000000E-03 0.  1.
</event>
<event>
 8    1  0.1051655E+005  0.1043930E+01  0.7957747E-01            NaN
         13   -1    0    0    0    0  0.00000000000E+00  0.00000000000E+00  0.74505805969E-08  0.10566000000E+00  0.10566000000E+00 0.  1.
     999900   -1    0    0    0    0 -0.00000000000E+00 -0.00000000000E+00 -0.74505805969E-08  0.93827000000E+00  0.93827000000E+00 0.  1.
     999902    2    1    2    0    0  0.16041454974E-01 -0.16746748299E-01 -0.19646792792E-02  0.10206568004E+01  0.10203914260E+01 0.  0.
     999903    2    3    3    0    0  0.30723911752E-01 -0.25251525478E-01  0.12383818874E+00  0.13154810771E+00  0.19682717262E-01 0.  0.
         14    1    1    2    0    0 -0.16041454974E-01  0.16746748299E-01  0.19646792792E-02  0.23273199629E-01  0.00000000000E+00 0.  1.
     999901    1    3    3    0    0 -0.14682456778E-01  0.85047771785E-02 -0.12580286802E+00  0.88910869267E+00  0.88000000000E+00 0.  1.
        -11    1    4    4    0    0  0.20786665713E-01 -0.52702182526E-02  0.71508586404E-01  0.74656545075E-01  0.51100000000E-03 0.  1.
         11    1    4    4    0    0  0.99372460390E-02 -0.19981307225E-01  0.52329602333E-01  0.56891562631E-01  0.51100000000E-03 0. -1.
</event>
<event>
 8    1  0.1051655E+005  0.1043930E+01  0.7957747E-01            NaN
         13   -1    0    0    0    0  0.00000000000E+00  0.00000000000E+00  0.74505805969E-08  0.10566000000E+00  0.10566000000E+00 0.  1.
     999900   -1    0    0    0    0 -0.00000000000E+00 -0.00000000000E+00 -0.74505805969E-08  0.93827000000E+00  0.93827000000E+00 0. -1.
     999902    2    1    2    0    0 -0.22022548541E-01 -0.94611186639E-02  0.33519041657E-02  0.10197279201E+01  0.10194406752E+01 0.  0.
     999903    2    3    3    0    0 -0.11145162724E+00 -0.67100684833E-01 -0.18593149524E-01  0.13304789602E+00  0.20786300926E-01 0.  0.
         14    1    1    2    0    0  0.22022548541E-01  0.94611186639E-02 -0.33519041657E-02  0.24202079914E-01  0.00000000000E+00 0.  1.
     999901    1    3    3    0    0  0.89429078695E-01  0.57639566169E-01  0.21945053690E-01  0.88668002407E+00  0.88000000000E+00 0. -1.
        -11    1    4    4    0    0 -0.61489931573E-01 -0.40608656725E-01 -0.20411707422E-01  0.76465505993E-01  0.51100000000E-03 0. -1.
         11    1    4    4    0    0 -0.49961695663E-01 -0.26492028109E-01  0.18185578982E-02  0.56582390023E-01  0.51100000000E-03 0.  1.
</event>
<event>
 8    1  0.1051655E+005  0.1043930E+01  0.7957747E-01            NaN
         13   -1    0    0    0    0  0.00000000000E+00  0.00000000000E+00  0.74505805969E-08  0.10566000000E+00  0.10566000000E+00 0. -1.
     999900   -1    0    0    0    0 -0.00000000000E+00 -0.00000000000E+00 -0.74505805969E-08  0.93827000000E+00  0.93827000000E+00 0.  1.
     999902    2    1    2    0    0 -0.20321709151E-02 -0.21209975880E-01  0.83452670396E-02  0.10210468997E+01  0.10207904463E+01 0.  0.
     999903    2    3    3    0    0  0.82300311121E-03  0.71325414877E-01  0.10764895431E+00  0.13063566168E+00  0.19732881087E-01 0.  0.
         14    1    1    2    0    0  0.20321709151E-02  0.21209975880E-01 -0.83452670396E-02  0.22883100258E-01  0.00000000000E+00 0. -1.
     999901    1    3    3    0    0 -0.28551740263E-02 -0.92535390757E-01 -0.99303687275E-01  0.89041123806E+00  0.88000000000E+00 0.  1.
        -11    1    4    4    0    0  0.42450872698E-02  0.23690774768E-01  0.22210232005E-01  0.32754070003E-01  0.51100000000E-03 0. -1.
         11    1    4    4    0    0 -0.34220841586E-02  0.47634640109E-01  0.85438722310E-01  0.97881591677E-01  0.51100000000E-03 0.  1.
</event>
<event>
 8    1  0.1051655E+005  0.1043930E+01  0.7957747E-01            NaN
         13   -1    0    0    0    0  0.00000000000E+00  0.00000000000E+00  0.74505805969E-08  0.10566000000E+00  0.10566000000E+00 0. -1.
     999900   -1    0    0    0    0 -0.00000000000E+00 -0.00000000000E+00 -0.74505805969E-08  0.93827000000E+00  0.93827000000E+00 0.  1.
     999902    2    1    2    0    0 -0.68046768281E-02 -0.21140834848E-01  0.68473611905E-02  0.10206894131E+01  0.10204247905E+01 0.  0.
     999903    2    3    3    0    0 -0.14675532254E-02  0.39090920405E-01 -0.12179807355E+00  0.12928266131E+00  0.18681060588E-01 0.  0.
         14    1    1    2    0    0  0.68046768281E-02  0.21140834848E-01 -0.68473611905E-02  0.23240586913E-01  0.00000000000E+00 0.  1.
     999901    1    3    3    0    0 -0.53371236027E-02 -0.60231755253E-01  0.12864543474E+00  0.89140675177E+00  0.88000000000E+00 0. -1.
        -11    1    4    4    0    0  0.54728862257E-02  0.18341841350E-01 -0.78069369971E-01  0.80383227582E-01  0.51100000000E-03 0.  1.
         11    1    4    4    0    0 -0.69404394511E-02  0.20749079055E-01 -0.43728703580E-01  0.48899433731E-01  0.51100000000E-03 0. -1.
</event>
<event>
 8    1  0.1051655E+005  0.1043930E+01  0.7957747E-01            NaN
         13   -1    0    0    0    0  0.00000000000E+00  0.00000000000E+00  0.74505805969E-08  0.10566000000E+00  0.10566000000E+00 0. -1.
     999900   -1    0    0    0    0 -0.00000000000E+00 -0.00000000000E+00 -0.74505805969E-08  0.93827000000E+00  0.93827000000E+00 0. -1.
     999902    2    1    2    0    0 -0.61794874964E-02  0.18394124035E-01  0.11144320154E-01  0.10215530981E+01  0.10213079881E+01 0.  0.
     999903    2    3    3    0    0 -0.11504719474E-01  0.12783408509E+00  0.34620666641E-01  0.13444735360E+00  0.20089510972E-01 0.  0.
         14    1    1    2    0    0  0.61794874964E-02 -0.18394124035E-01 -0.11144320154E-01  0.22376901851E-01  0.00000000000E+00 0.  1.
     999901    1    3    3    0    0  0.53252319780E-02 -0.10943996105E+00 -0.23476346488E-01  0.88710574455E+00  0.88000000000E+00 0. -1.
        -11    1    4    4    0    0 -0.47511320540E-02  0.22064427837E-01  0.13725774762E-01  0.26421019008E-01  0.51100000000E-03 0. -1.
         11    1    4    4    0    0 -0.67535874203E-02  0.10576965725E+00  0.20894891879E-01  0.10802633459E+00  0.51100000000E-03 0.  1.
</event>
<event>
 8    1  0.1051655E+005  0.1043930E+01  0.7957747E-01            NaN
         13   -1    0    0    0    0  0.00000000000E+00  0.00000000000E+00  0.74505805969E-08  0.10566000000E+00  0.10566000000E+00 0. -1.
     999900   -1    0    0    0    0 -0.00000000000E+00 -0.00000000000E+00 -0.74505805969E-08  0.93827000000E+00  0.93827000000E+00 0.  1.
     999902    2    1    2    0    0 -0.66064510842E-02  0.10079912309E-01  0.20373353492E-01  0.10202588496E+01  0.10199842140E+01 0.  0.
     999903    2    3    3    0    0 -0.10213327858E+00 -0.66449419760E-01  0.45240388022E-01  0.13143913626E+00  0.19565833797E-01 0.  0.
         14    1    1    2    0    0  0.66064510842E-02 -0.10079912309E-01 -0.20373353492E-01  0.23671150386E-01  0.00000000000E+00 0.  1.
     999901    1    3    3    0    0  0.95526827498E-01  0.76529332069E-01 -0.24867034530E-01  0.88881971335E+00  0.88000000000E+00 0.  1.
        -11    1    4    4    0    0 -0.82595314418E-01 -0.56073339337E-01  0.28898458658E-01  0.10393068547E+00  0.51100000000E-03 0.  1.
         11    1    4    4    0    0 -0.19537964163E-01 -0.10376080423E-01  0.16341929364E-01  0.27508450791E-01  0.51100000000E-03 0. -1.
</event>
<event>
 8    1  0.1051655E+005  0.1043930E+01  0.7957747E-01            NaN
         13   -1    0    0    0    0  0.00000000000E+00  0.00000000000E+00  0.74505805969E-08  0.10566000000E+00  0.10566000000E+00 0. -1.
     999900   -1    0    0    0    0 -0.00000000000E+00 -0.00000000000E+00 -0.74505805969E-08  0.93827000000E+00  0.93827000000E+00 0. -1.
     999902    2    1    2    0    0 -0.10514483277E-01  0.49626143913E-02 -0.19843374857E-01  0.10209312734E+01  0.10206721920E+01 0.  0.
     999903    2    3    3    0    0 -0.88262815781E-01  0.27788864429E-02 -0.98724111354E-01  0.13398609894E+00  0.20193506086E-01 0.  0.
         14    1    1    2    0    0  0.10514483277E-01 -0.49626143913E-02  0.19843374857E-01  0.22998726615E-01  0.00000000000E+00 0. -1.
     999901    1    3    3    0    0  0.77748332504E-01  0.21837279484E-02  0.78880736497E-01  0.88694517444E+00  0.88000000000E+00 0.  1.
        -11    1    4    4    0    0 -0.69821744108E-01  0.68116805338E-02 -0.86987423428E-01  0.11175217178E+00  0.51100000000E-03 0. -1.
         11    1    4    4    0    0 -0.18441071673E-01 -0.40327940910E-02 -0.11736687926E-01  0.22233927164E-01  0.51100000000E-03 0.  1.
</event>
<event>
 8    1  0.1051655E+005  0.1043930E+01  0.7957747E-01            NaN
         13   -1    0    0    0    0  0.00000000000E+00  0.00000000000E+00  0.74505805969E-08  0.10566000000E+00  0.10566000000E+00 0. -1.
     999900   -1    0    0    0    0 -0.00000000000E+00 -0.00000000000E+00 -0.74505805969E-08  0.93827000000E+00  0.93827000000E+00 0. -1.
     999902    2    1    2    0    0 -0.10855678169E-01  0.15289696550E-01  0.13465047050E-01  0.10208447653E+01  0.10205837089E+01 0.  0.
     999903    2    3    3    0    0 -0.75679200142E-03  0.76078893311E-01  0.10803515806E+00  0.13363519601E+00  0.19954936566E-01 0.  0.
         14    1    1    2    0    0  0.10855678169E-01 -0.15289696550E-01 -0.13465047050E-01  0.23085234700E-01  0.00000000000E+00 0.  1.
     999901    1    3    3    0    0 -0.10098886168E-01 -0.60789196762E-01 -0.94570111012E-01  0.88720956929E+00  0.88000000000E+00 0. -1.
        -11    1    4    4    0    0 -0.97116476779E-02  0.26275062167E-01  0.40390586764E-01  0.49156440195E-01  0.51100000000E-03 0. -1.
         11    1    4    4    0    0  0.89548556765E-02  0.49803831144E-01  0.67644571298E-01  0.84478755814E-01  0.51100000000E-03 0.  1.
</event>
<event>
 8    1  0.1051655E+005  0.1043930E+01  0.7957747E-01            NaN
         13   -1    0    0    0    0  0.00000000000E+00  0.00000000000E+00  0.74505805969E-08  0.10566000000E+00  0.10566000000E+00 0. -1.
     999900   -1    0    0    0    0 -0.00000000000E+00 -0.00000000000E+00 -0.74505805969E-08  0.93827000000E+00  0.93827000000E+00 0.  1.
     999902    2    1    2    0    0  0.28265946788E-02 -0.93410961860E-02  0.24030772607E-01  0.10179930814E+01  0.10176626111E+01 0.  0.
     999903    2    3    3    0    0  0.54097491454E-01  0.10570521165E+00  0.45003788588E-01  0.12877757027E+00  0.21405402710E-01 0.  0.
         14    1    1    2    0    0 -0.28265946788E-02  0.93410961860E-02 -0.24030772607E-01  0.25936918620E-01  0.00000000000E+00 0.  1.
     999901    1    3    3    0    0 -0.51270896775E-01 -0.11504630784E+00 -0.20973015981E-01  0.88921551111E+00  0.88000000000E+00 0.  1.
        -11    1    4    4    0    0  0.19361834832E-01  0.54465948868E-01  0.13704901848E-01  0.59409643071E-01  0.51100000000E-03 0.  1.
         11    1    4    4    0    0  0.34735656622E-01  0.51239262782E-01  0.31298886741E-01  0.69367927197E-01  0.51100000000E-03 0. -1.
</event>
<event>
 8    1  0.1051655E+005  0.1043930E+01  0.7957747E-01            NaN
         13   -1    0    0    0    0  0.00000000000E+00  0.00000000000E+00  0.74505805969E-08  0.10566000000E+00  0.10566000000E+00 0.  1.
     999900   -1    0    0    0    0 -0.00000000000E+00 -0.00000000000E+00 -0.74505805969E-08  0.93827000000E+00  0.93827000000E+00 0.  1.
     999902    2    1    2    0    0  0.36298392766E-02  0.12702198183E-01  0.20248628398E-01  0.10197529753E+01  0.10194663320E+01 0.  0.
     999903    2    3    3    0    0  0.94974607837E-01  0.33989824750E-02  0.89042138247E-01  0.13230553259E+00  0.23335002750E-01 0.  0.
         14    1    1    2    0    0 -0.36298392766E-02 -0.12702198183E-01 -0.20248628398E-01  0.24177024710E-01  0.00000000000E+00 0. -1.
     999901    1    3    3    0    0 -0.91344768561E-01  0.93032157076E-02 -0.68793509849E-01  0.88744744270E+00  0.88000000000E+00 0.  1.
        -11    1    4    4    0    0  0.13285157293E-01  0.25856133997E-02  0.25255178703E-01  0.28657738453E-01  0.51100000000E-03 0. -1.
         11    1    4    4    0    0  0.81689450545E-01  0.81336907538E-03  0.63786959544E-01  0.10364779413E+00  0.51100000000E-03 0.  1.
</event>
<event>
 8    1  0.1051655E+005  0.1043930E+01  0.7957747E-01            NaN
         13   -1    0    0    0    0  0.00000000000E+00  0.00000000000E+00  0.74505805969E-08  0.10566000000E+00  0.10566000000E+00 0.  1.
     999900   -1    0    0    0    0 -0.00000000000E+00 -0.00000000000E+00 -0.74505805969E-08  0.93827000000E+00  0.93827000000E+00 0. -1.
     999902    2    1    2    0    0 -0.20112905985E-01 -0.10853901597E-01 -0.66858619580E-02  0.10201174630E+01  0.10198394979E+01 0.  0.
     999903    2    3    3    0    0 -0.49871563699E-01 -0.11879832367E+00 -0.12044812601E-01  0.13300625561E+00  0.30746901465E-01 0.  0.
         14    1    1    2    0    0  0.20112905985E-01  0.10853901597E-01  0.66858619580E-02  0.23812536975E-01  0.00000000000E+00 0. -1.
     999901    1    3    3    0    0  0.29758657714E-01  0.10794442207E+00  0.53589506425E-02  0.88711120741E+00  0.88000000000E+00 0. -1.
        -11    1    4    4    0    0 -0.40010799013E-01 -0.59992207065E-01 -0.13471501421E-01  0.73359876075E-01  0.51100000000E-03 0. -1.
         11    1    4    4    0    0 -0.98607646860E-02 -0.58806116601E-01  0.14266888208E-02  0.59646379537E-01  0.51100000000E-03 0.  1.
</event>
<event>
 8    1  0.1051655E+005  0.1043930E+01  0.7957747E-01            NaN
         13   -1    0    0    0    0  0.00000000000E+00  0.00000000000E+00  0.74505805969E-08  0.10566000000E+00  0.10566000000E+00 0.  1.
     999900   -1    0    0    0    0 -0.00000000000E+00 -0.00000000000E+00 -0.74505805969E-08  0.93827000000E+00  0.93827000000E+00 0.  1.
     999902    2    1    2    0    0  0.40606092854E-02 -0.72786000417E-02  0.23001239395E-01  0.10194652584E+01  0.10191716683E+01 0.  0.
     999903    2    3    3    0    0  0.10659820160E+00  0.19922496883E-01 -0.66405894024E-01  0.12859630453E+00  0.19162053951E-01 0.  0.
         14    1    1    2    0    0 -0.40606092854E-02  0.72786000417E-02 -0.23001239395E-01  0.24464741570E-01  0.00000000000E+00 0. -1.
     999901    1    3    3    0    0 -0.10253759232E+00 -0.27201096924E-01  0.89407133419E-01  0.89086895390E+00  0.88000000000E+00 0.  1.
        -11    1    4    4    0    0  0.36343643100E-01  0.10579105715E-01 -0.33100253121E-01  0.50285840444E-01  0.51100000000E-03 0.  1.
         11    1    4    4    0    0  0.70254558503E-01  0.93433911679E-02 -0.33305640902E-01  0.78310464089E-01  0.51100000000E-03 0. -1.
</event>
<event>
 8    1  0.1051655E+005  0.1043930E+01  0.7957747E-01            NaN
         13   -1    0    0    0    0  0.00000000000E+00  0.00000000000E+00  0.74505805969E-08  0.10566000000E+00  0.10566000000E+00 0. -1.
     999900   -1    0    0    0    0 -0.00000000000E+00 -0.00000000000E+00 -0.74505805969E-08  0.93827000000E+00  0.93827000000E+00 0.  1.
     999902    2    1    2    0    0  0.18260898286E-01 -0.12836562338E-01 -0.86451389599E-02  0.10199930794E+01  0.10197121682E+01 0.  0.
     999903    2    3    3    0    0 -0.74672810567E-01  0.10012246358E+00 -0.15113888468E-01  0.12789540512E+00  0.22984096164E-01 0.  0.
         14    1    1    2    0    0 -0.18260898286E-01  0.12836562338E-01  0.86451389599E-02  0.23936920573E-01  0.00000000000E+00 0. -1.
     999901    1    3    3    0    0  0.92933708853E-01 -0.11295902592E+00  0.64687495078E-02  0.89209767430E+00  0.88000000000E+00 0. -1.
        -11    1    4    4    0    0 -0.21139356886E-01  0.46797154341E-01 -0.38340688372E-02  0.51495701459E-01  0.51100000000E-03 0. -1.
         11    1    4    4    0    0 -0.53533453680E-01  0.53325309237E-01 -0.11279819630E-01  0.76399703665E-01  0.51100000000E-03 0.  1.
</event>
<event>
 8    1  0.1051655E+005  0.1043930E+01  0.7957747E-01            NaN
         13   -1    0    0    0    0  0.00000000000E+00  0.00000000000E+00  0.74505805969E-08  0.10566000000E+00  0.10566000000E+00 0.  1.
     999900   -1    0    0    0    0 -0.00000000000E+00 -0.00000000000E+00 -0.74505805969E-08  0.93827000000E+00  0.93827000000E+00 0. -1.
     999902    2    1    2    0    0  0.91893473462E-04  0.29477513197E-02 -0.25245264391E-01  0.10185130557E+01  0.10181958670E+01 0.  0.
     999903    2    3    3    0    0  0.77597790005E-01 -0.52295195254E-01  0.83152667913E-01  0.12676810403E+00  0.19989536201E-01 0.  0.
         14    1    1    2    0    0 -0.91893473462E-04 -0.29477513197E-02  0.25245264391E-01  0.25416944278E-01  0.00000000000E+00 0.  1.
     999901    1    3    3    0    0 -0.77505896532E-01  0.55242946574E-01 -0.10839793230E+00  0.89174495169E+00  0.88000000000E+00 0. -1.
        -11    1    4    4    0    0  0.55850391566E-01 -0.42201512055E-01  0.71650318824E-01  0.10017116934E+00  0.51100000000E-03 0. -1.
         11    1    4    4    0    0  0.21747398439E-01 -0.10093683199E-01  0.11502349089E-01  0.26596934691E-01  0.51100000000E-03 0.  1.
</event>
<event>
 8    1  0.1051655E+005  0.1043930E+01  0.7957747E-01            NaN
         13   -1    0    0    0    0  0.00000000000E+00  0.00000000000E+00  0.74505805969E-08  0.10566000000E+00  0.10566000000E+00 0.  1.
     999900   -1    0    0    0    0 -0.00000000000E+00 -0.00000000000E+00 -0.74505805969E-08  0.93827000000E+00  0.93827000000E+00 0.  1.
     999902    2    1    2    0    0 -0.60088185366E-02  0.56071248516E-02 -0.21673256676E-01  0.10207507894E+01  0.10204875787E+01 0.  0.
     999903    2    3    3    0    0  0.55762556383E-01  0.87449174382E-01  0.74996768174E-01  0.12953873969E+00  0.19973708976E-01 0.  0.
         14    1    1    2    0    0  0.60088185366E-02 -0.56071248516E-02  0.21673256676E-01  0.23179210604E-01  0.00000000000E+00 0.  1.
     999901    1    3    3    0    0 -0.61771374919E-01 -0.81842049530E-01 -0.96670024850E-01  0.89121204970E+00  0.88000000000E+00 0.  1.
        -11    1    4    4    0    0  0.29444304194E-01  0.33300850808E-01  0.40567620844E-01  0.60182278919E-01  0.51100000000E-03 0.  1.
         11    1    4    4    0    0  0.26318252189E-01  0.54148323574E-01  0.34429147331E-01  0.69356460774E-01  0.51100000000E-03 0. -1.
</event>
<event>
 8    1  0.1051655E+005  0.1043930E+01  0.7957747E-01            NaN
         13   -1    0    0    0    0  0.00000000000E+00  0.00000000000E+00  0.74505805969E-08  0.10566000000E+00  0.10566000000E+00 0.  1.
     999900   -1    0    0    0    0 -0.00000000000E+00 -0.00000000000E+00 -0.74505805969E-08  0.93827000000E+00  0.93827000000E+00 0. -1.
     999902    2    1    2    0    0  0.15991782501E-01  0.15404097696E-01  0.77070610067E-02  0.10204263381E+01  0.10201556202E+01 0.  0.
     999903    2    3    3    0    0 -0.86657413972E-03 -0.12108513829E+00  0.40204133657E-01  0.12915220773E+00  0.20038930484E-01 0.  0.
         14    1    1    2    0    0 -0.15991782501E-01 -0.15404097696E-01 -0.77070610067E-02  0.23503661901E-01  0.00000000000E+00 0. -1.
     999901    1    3    3    0    0  0.16858356641E-01  0.13648923598E+00 -0.32497072650E-01  0.89127413037E+00  0.88000000000E+00 0. -1.
        -11    1    4    4    0    0  0.17981208519E-02 -0.74465857896E-01  0.14639151795E-01  0.75914182582E-01  0.51100000000E-03 0.  1.
         11    1    4    4    0    0 -0.26646949917E-02 -0.46619280390E-01  0.25564981862E-01  0.53238025152E-01  0.51100000000E-03 0. -1.
</event>
<event>
 8    1  0.1051655E+005  0.1043930E+01  0.7957747E-01            NaN
         13   -1    0    0    0    0  0.00000000000E+00  0.00000000000E+00  0.74505805969E-08  0.10566000000E+00  0.10566000000E+00 0.  1.
     999900   -1    0    0    0    0 -0.00000000000E+00 -0.00000000000E+00 -0.74505805969E-08  0.93827000000E+00  0.93827000000E+00 0.  1.
     999902    2    1    2    0    0  0.13564347131E-01 -0.19674790916E-01 -0.35031581904E-02  0.10197771321E+01  0.10194910682E+01 0.  0.
     999903    2    3    3    0    0 -0.10415261367E+00 -0.75570163296E-01 -0.14526365112E-02  0.13017846969E+00  0.19639432381E-01 0.  0.
         14    1    1    2    0    0 -0.13564347131E-01  0.19674790916E-01  0.35031581904E-02  0.24152867904E-01  0.00000000000E+00 0.  1.
     999901    1    3    3    0    0  0.11771696080E+00  0.55895372380E-01 -0.20505216792E-02  0.88959866240E+00  0.88000000000E+00 0. -1.
        -11    1    4    4    0    0 -0.62153663887E-01 -0.50337835955E-01 -0.94235694957E-02  0.80535957474E-01  0.51100000000E-03 0. -1.
         11    1    4    4    0    0 -0.41998949779E-01 -0.25232327341E-01  0.79709329845E-02  0.49642512217E-01  0.51100000000E-03 0.  1.
</event>
<event>
 8    1  0.1051655E+005  0.1043930E+01  0.7957747E-01            NaN
         13   -1    0    0    0    0  0.00000000000E+00  0.00000000000E+00  0.74505805969E-08  0.10566000000E+00  0.10566000000E+00 0. -1.
     999900   -1    0    0    0    0 -0.00000000000E+00 -0.00000000000E+00 -0.74505805969E-08  0.93827000000E+00  0.93827000000E+00 0.  1.
     999902    2    1    2    0    0 -0.78591146550E-02 -0.15973548116E-02  0.21529818782E-01  0.10209550066E+01  0.10206964657E+01 0.  0.
     999903    2    3    3    0    0  0.24154969881E-01 -0.12320228544E+00 -0.29339284612E-01  0.13056165169E+00  0.20573904920E-01 0.  0.
         14    1    1    2    0    0  0.78591146550E-02  0.15973548116E-02 -0.21529818782E-01  0.22974993413E-01  0.00000000000E+00 0.  1.
     999901    1    3    3    0    0 -0.32014084536E-01  0.12160493063E+00  0.50869103394E-01  0.89039335490E+00  0.88000000000E+00 0. -1.
        -11    1    4    4    0    0 -0.32558864176E-03 -0.38633589793E-01 -0.14544031486E-01  0.41284988084E-01  0.51100000000E-03 0.  1.
         11    1    4    4    0    0  0.24480558523E-01 -0.84568695645E-01 -0.14795253126E-01  0.89276663607E-01  0.51100000000E-03 0. -1.
</event>
<event>
 8    1  0.1051655E+005  0.1043930E+01  0.7957747E-01            NaN
         13   -1    0    0    0    0  0.00000000000E+00  0.00000000000E+00  0.74505805969E-08  0.10566000000E+00  0.10566000000E+00 0.  1.
     999900   -1    0    0    0    0 -0.00000000000E+00 -0.00000000000E+00 -0.74505805969E-08  0.93827000000E+00  0.93827000000E+00 0.  1.
     999902    2    1    2    0    0 -0.66879669912E-02 -0.17769788095E-02 -0.20143909213E-01  0.10226306189E+01  0.10224087828E+01 0.  0.
     999903    2    3    3    0    0  0.20128228006E-01 -0.12251517973E+00 -0.45635730902E-01  0.13361619021E+00  0.18856073906E-01 0.  0.
         14    1    1    2    0    0  0.66879669912E-02  0.17769788095E-02  0.20143909213E-01  0.21299381083E-01  0.00000000000E+00 0.  1.
     999901    1    3    3    0    0 -0.26816194997E-01  0.12073820092E+00  0.25491821690E-01  0.88901442871E+00  0.88000000000E+00 0. -1.
        -11    1    4    4    0    0  0.54416957082E-02 -0.62771126334E-01 -0.31696926060E-01  0.70532138746E-01  0.51100000000E-03 0.  1.
         11    1    4    4    0    0  0.14686532298E-01 -0.59744053400E-01 -0.13938804842E-01  0.63084051463E-01  0.51100000000E-03 0. -1.
</event>
<event>
 8    1  0.1051655E+005  0.1043930E+01  0.7957747E-01            NaN
         13   -1    0    0    0    0  0.00000000000E+00  0.00000000000E+00  0.74505805969E-08  0.10566000000E+00  0.10566000000E+00 0.  1.
     999900   -1    0    0    0    0 -0.00000000000E+00 -0.00000000000E+00 -0.74505805969E-08  0.93827000000E+00  0.93827000000E+00 0.  1.
     999902    2    1    2    0    0  0.96761249881E-02 -0.15936730464E-01 -0.14152372329E-01  0.10205228127E+01  0.10202543383E+01 0.  0.
     999903    2    3    3    0    0 -0.80534779008E-01  0.17503297062E-01  0.96344122011E-01  0.12840974934E+00  0.20363149088E-01 0.  0.
         14    1    1    2    0    0 -0.96761249881E-02  0.15936730464E-01  0.14152372329E-01  0.23407187255E-01  0.00000000000E+00 0.  1.
     999901    1    3    3    0    0  0.90210903996E-01 -0.33440027526E-01 -0.11049649434E+00  0.89211306341E+00  0.88000000000E+00 0. -1.
        -11    1    4    4    0    0 -0.34361569175E-01  0.10578754012E-01  0.56788716227E-01  0.67214930517E-01  0.51100000000E-03 0.  1.
         11    1    4    4    0    0 -0.46173209833E-01  0.69245430499E-02  0.39555405784E-01  0.61194818821E-01  0.51100000000E-03 0. -1.
</event>
<event>
 8    1  0.1051655E+005  0.1043930E+01  0.7957747E-01            NaN
         13   -1    0    0    0    0  0.00000000000E+00  0.00000000000E+00  0.74505805969E-08  0.10566000000E+00  0.10566000000E+00 0.  1.
     999900   -1    0    0    0    0 -0.00000000000E+00 -0.00000000000E+00 -0.74505805969E-08  0.93827000000E+00  0.93827000000E+00 0. -1.
     999902    2    1    2    0    0 -0.78615152563E-02 -0.72434098288E-02 -0.21158152397E-01  0.10202247723E+01  0.10199493361E+01 0.  0.
     999903    2    3    3    0    0 -0.65889514705E-01  0.17829803195E-01 -0.11269541832E+00  0.13322139812E+00  0.19706688601E-01 0.  0.
         14    1    1    2    0    0  0.78615152563E-02  0.72434098288E-02  0.21158152397E-01  0.23705227713E-01  0.00000000000E+00 0.  1.
     999901    1    3    3    0    0  0.58027999449E-01 -0.25073213024E-01  0.91537265927E-01  0.88700337417E+00  0.88000000000E+00 0.  1.
        -11    1    4    4    0    0 -0.14943984623E-01 -0.42115877426E-02 -0.24351011859E-01  0.28884131410E-01  0.51100000000E-03 0.  1.
         11    1    4    4    0    0 -0.50945530082E-01  0.22041390938E-01 -0.88344406465E-01  0.10433726671E+00  0.51100000000E-03 0. -1.
</event>
<event>
 8    1  0.1051655E+005  0.1043930E+01  0.7957747E-01            NaN
         13   -1    0    0    0    0  0.00000000000E+00  0.00000000000E+00  0.74505805969E-08  0.10566000000E+00  0.10566000000E+00 0.  1.
     999900   -1    0    0    0    0 -0.00000000000E+00 -0.00000000000E+00 -0.74505805969E-08  0.93827000000E+00  0.93827000000E+00 0.  1.
     999902    2    1    2    0    0  0.19058797445E-02  0.17257542505E-01 -0.15243852869E-01  0.10208252342E+01  0.10205637308E+01 0.  0.
     999903    2    3    3    0    0  0.33920441713E-01 -0.59586167961E-01  0.10678284366E+00  0.12851340383E+00  0.20298066054E-01 0.  0.
         14    1    1    2    0    0 -0.19058797445E-02 -0.17257542505E-01  0.15243852869E-01  0.23104765768E-01  0.00000000000E+00 0.  1.
     999901    1    3    3    0    0 -0.32014561968E-01  0.76843710466E-01 -0.12202669653E+00  0.89231183041E+00  0.88000000000E+00 0.  1.
        -11    1    4    4    0    0  0.25225871316E-01 -0.37329387299E-01  0.84868417342E-01  0.96087132973E-01  0.51100000000E-03 0. -1.
         11    1    4    4    0    0  0.86945703972E-02 -0.22256780662E-01  0.21914426314E-01  0.32426270854E-01  0.51100000000E-03 0.  1.
</event>
<event>
 8    1  0.1051655E+005  0.1043930E+01  0.7957747E-01            NaN
         13   -1    0    0    0    0  0.00000000000E+00  0.00000000000E+00  0.74505805969E-08  0.10566000000E+00  0.10566000000E+00 0.  1.
     999900   -1    0    0    0    0 -0.00000000000E+00 -0.00000000000E+00 -0.74505805969E-08  0.93827000000E+00  0.93827000000E+00 0.  1.
     999902    2    1    2    0    0 -0.21880672879E-01  0.11966691812E-02  0.59330596141E-02  0.10212276420E+01  0.10209752689E+01 0.  0.
     999903    2    3    3    0    0 -0.28329237398E-02  0.12329475337E+00 -0.40474383736E-01  0.13138248147E+00  0.20336150880E-01 0.  0.
         14    1    1    2    0    0  0.21880672879E-01 -0.11966691812E-02 -0.59330596141E-02  0.22702358008E-01  0.00000000000E+00 0.  1.
     999901    1    3    3    0    0 -0.19047749139E-01 -0.12209808419E+00  0.46407443350E-01  0.88984516052E+00  0.88000000000E+00 0.  1.
        -11    1    4    4    0    0  0.11039205137E-02  0.19777518037E-01  0.89301246171E-03  0.19835005734E-01  0.51100000000E-03 0.  1.
         11    1    4    4    0    0 -0.39368442534E-02  0.10351723533E+00 -0.41367396197E-01  0.11154747573E+00  0.51100000000E-03 0. -1.
</event>
<event>
 8    1  0.1051655E+005  0.1043930E+01  0.7957747E-01            NaN
         13   -1    0    0    0    0  0.00000000000E+00  0.00000000000E+00  0.74505805969E-08  0.10566000000E+00  0.10566000000E+00 0. -1.
     999900   -1    0    0    0    0 -0.00000000000E+00 -0.00000000000E+00 -0.74505805969E-08  0.93827000000E+00  0.93827000000E+00 0.  1.
     999902    2    1    2    0    0  0.23480757068E-01  0.31292691063E-02 -0.17936333724E-03  0.10202409635E+01  0.10199659079E+01 0.  0.
     999903    2    3    3    0    0  0.71762775172E-01 -0.55345332477E-01 -0.93095999486E-01  0.13210587607E+00  0.23918520966E-01 0.  0.
         14    1    1    2    0    0 -0.23480757068E-01 -0.31292691063E-02  0.17936333724E-03  0.23689036469E-01  0.00000000000E+00 0. -1.
     999901    1    3    3    0    0 -0.48282018104E-01  0.58474601584E-01  0.92916636149E-01  0.88813508746E+00  0.88000000000E+00 0. -1.
        -11    1    4    4    0    0  0.36841996592E-01 -0.33851808496E-01 -0.66526405809E-01  0.83242425734E-01  0.51100000000E-03 0. -1.
         11    1    4    4    0    0  0.34920778580E-01 -0.21493523981E-01 -0.26569593677E-01  0.48863450338E-01  0.51100000000E-03 0.  1.
</event>
<event>
 8    1  0.1051655E+005  0.1043930E+01  0.7957747E-01            NaN
         13   -1    0    0    0    0  0.00000000000E+00  0.00000000000E+00  0.74505805969E-08  0.10566000000E+00  0.10566000000E+00 0. -1.
     999900   -1    0    0    0    0 -0.00000000000E+00 -0.00000000000E+00 -0.74505805969E-08  0.93827000000E+00  0.93827000000E+00 0. -1.
     999902    2    1    2    0    0 -0.43532596425E-03  0.23530836974E-01  0.24192200336E-02  0.10202711238E+01  0.10199967763E+01 0.  0.
     999903    2    3    3    0    0  0.39687726097E-01 -0.82320926357E-01 -0.87887960381E-01  0.12843602585E+00  0.20485815500E-01 0.  0.
         14    1    1    2    0    0  0.43532596425E-03 -0.23530836974E-01 -0.24192200336E-02  0.23658876199E-01  0.00000000000E+00 0. -1.
     999901    1    3    3    0    0 -0.40123052061E-01  0.10585176333E+00  0.90307180414E-01  0.89183509795E+00  0.88000000000E+00 0.  1.
        -11    1    4    4    0    0  0.30567292127E-01 -0.61537987858E-01 -0.52853463380E-01  0.86689290053E-01  0.51100000000E-03 0. -1.
         11    1    4    4    0    0  0.91204339694E-02 -0.20782938499E-01 -0.35034497001E-01  0.41746735795E-01  0.51100000000E-03 0.  1.
</event>
<event>
 8    1  0.1051655E+005  0.1043930E+01  0.7957747E-01            NaN
         13   -1    0    0    0    0  0.00000000000E+00  0.00000000000E+00  0.74505805969E-08  0.10566000000E+00  0.10566000000E+00 0.  1.
     999900   -1    0    0    0    0 -0.00000000000E+00 -0.00000000000E+00 -0.74505805969E-08  0.93827000000E+00  0.93827000000E+00 0.  1.
     999902    2    1    2    0    0 -0.22609720963E-01 -0.76492167378E-02  0.12006254929E-02  0.10200312239E+01  0.10197512178E+01 0.  0.
     999903    2    3    3    0    0 -0.19983565080E-01  0.12509227159E+00  0.19993129684E-01  0.12987373352E+00  0.20494929605E-01 0.  0.
         14    1    1    2    0    0  0.22609720963E-01  0.76492167378E-02 -0.12006254929E-02  0.23898776126E-01  0.00000000000E+00 0. -1.
     999901    1    3    3    0    0 -0.26261558834E-02 -0.13274148833E+00 -0.18792504191E-01  0.89015749035E+00  0.88000000000E+00 0.  1.
        -11    1    4    4    0    0 -0.82377351471E-02  0.56905447121E-01  0.19377035482E-01  0.60678009340E-01  0.51100000000E-03 0.  1.
         11    1    4    4    0    0 -0.11745829933E-01  0.68186824469E-01  0.61609420179E-03  0.69195724181E-01  0.51100000000E-03 0. -1.
</event>
<event>
 8    1  0.1051655E+005  0.1043930E+01  0.7957747E-01            NaN
         13   -1    0    0    0    0  0.00000000000E+00  0.00000000000E+00  0.74505805969E-08  0.10566000000E+00  0.10566000000E+00 0. -1.
     999900   -1    0    0    0    0 -0.00000000000E+00 -0.00000000000E+00 -0.74505805969E-08  0.93827000000E+00  0.93827000000E+00 0.  1.
     999902    2    1    2    0    0  0.20049941919E-01  0.76491482710E-02 -0.74253664068E-02  0.10212221664E+01  0.10209696702E+01 0.  0.
     999903    2    3    3    0    0  0.10436292458E+00 -0.69863244021E-01  0.36625164972E-01  0.13270807011E+00  0.22305521087E-01 0.  0.
         14    1    1    2    0    0 -0.20049941919E-01 -0.76491482710E-02  0.74253664068E-02  0.22707833593E-01  0.00000000000E+00 0. -1.
     999901    1    3    3    0    0 -0.84312982661E-01  0.77512392292E-01 -0.44050531379E-01  0.88851409630E+00  0.88000000000E+00 0.  1.
        -11    1    4    4    0    0  0.60650441638E-01 -0.36170607059E-01  0.31346402760E-01  0.77263490555E-01  0.51100000000E-03 0. -1.
         11    1    4    4    0    0  0.43712482942E-01 -0.33692636963E-01  0.52787622126E-02  0.55444579554E-01  0.51100000000E-03 0.  1.
</event>
<event>
 8    1  0.1051655E+005  0.1043930E+01  0.7957747E-01            NaN
         13   -1    0    0    0    0  0.00000000000E+00  0.00000000000E+00  0.74505805969E-08  0.10566000000E+00  0.10566000000E+00 0.  1.
     999900   -1    0    0    0    0 -0.00000000000E+00 -0.00000000000E+00 -0.74505805969E-08  0.93827000000E+00  0.93827000000E+00 0. -1.
     999902    2    1    2    0    0  0.18216593538E-01  0.73888300761E-02  0.10969305797E-01  0.10214185638E+01  0.10211704646E+01 0.  0.
     999903    2    3    3    0    0  0.55987627849E-01 -0.98043934958E-01  0.66382788343E-01  0.13259159919E+00  0.20655021979E-01 0.  0.
         14    1    1    2    0    0 -0.18216593538E-01 -0.73888300761E-02 -0.10969305797E-01  0.22511436198E-01  0.00000000000E+00 0. -1.
     999901    1    3    3    0    0 -0.37771034311E-01  0.10543276503E+00 -0.55413482546E-01  0.88882696461E+00  0.88000000000E+00 0. -1.
        -11    1    4    4    0    0  0.41540761459E-01 -0.72008848887E-01  0.58907615002E-01  0.10188855386E+00  0.51100000000E-03 0. -1.
         11    1    4    4    0    0  0.14446866390E-01 -0.26035086071E-01  0.74751733410E-02  0.30703045333E-01  0.51100000000E-03 0.  1.
</event>
<event>
 8    1  0.1051655E+005  0.1043930E+01  0.7957747E-01            NaN
         13   -1    0    0    0    0  0.00000000000E+00  0.00000000000E+00  0.74505805969E-08  0.10566000000E+00  0.10566000000E+00 0.  1.
     999900   -1    0    0    0    0 -0.00000000000E+00 -0.00000000000E+00 -0.74505805969E-08  0.93827000000E+00  0.93827000000E+00 0. -1.
     999902    2    1    2    0    0 -0.13041264718E-01  0.40418970104E-02 -0.19084768648E-01  0.10204642822E+01  0.10201944478E+01 0.  0.
     999903    2    3    3    0    0 -0.55742657845E-01  0.30787027671E-01 -0.11593521732E+00  0.13371814019E+00  0.19608197863E-01 0.  0.
         14    1    1    2    0    0  0.13041264718E-01 -0.40418970104E-02  0.19084768648E-01  0.23465717787E-01  0.00000000000E+00 0.  1.
     999901    1    3    3    0    0  0.42701393127E-01 -0.26745130660E-01  0.96850448674E-01  0.88674614203E+00  0.88000000000E+00 0.  1.
        -11    1    4    4    0    0 -0.52188360977E-01  0.22531319516E-01 -0.10620556255E+00  0.12046230953E+00  0.51100000000E-03 0.  1.
         11    1    4    4    0    0 -0.35542968676E-02  0.82557081550E-02 -0.97296547736E-02  0.13255830656E-01  0.51100000000E-03 0. -1.
</event>
<event>
 8    1  0.1051655E+005  0.1043930E+01  0.7957747E-01            NaN
         13   -1    0    0    0    0  0.00000000000E+00  0.00000000000E+00  0.74505805969E-08  0.10566000000E+00  0.10566000000E+00 0. -1.
     999900   -1    0    0    0    0 -0.00000000000E+00 -0.00000000000E+00 -0.74505805969E-08  0.93827000000E+00  0.93827000000E+00 0. -1.
     999902    2    1    2    0    0 -0.17804433160E-01 -0.14605637170E-01 -0.89764245379E-03  0.10208837804E+01  0.10206236156E+01 0.  0.
     999903    2    3    3    0    0 -0.50392914576E-01  0.11837710677E+00  0.14773784340E-02  0.13029293153E+00  0.20529980879E-01 0.  0.
         14    1    1    2    0    0  0.17804433160E-01  0.14605637170E-01  0.89764245379E-03  0.23046219631E-01  0.00000000000E+00 0.  1.
     999901    1    3    3    0    0  0.32588481415E-01 -0.13298274394E+00 -0.23750208878E-02  0.89059084884E+00  0.88000000000E+00 0. -1.
        -11    1    4    4    0    0 -0.40177791357E-01  0.71862742335E-01  0.53721425072E-02  0.82508361336E-01  0.51100000000E-03 0.  1.
         11    1    4    4    0    0 -0.10215123219E-01  0.46514364431E-01 -0.38947640732E-02  0.47784570197E-01  0.51100000000E-03 0. -1.
</event>
<event>
 8    1  0.1051655E+005  0.1043930E+01  0.7957747E-01            NaN
         13   -1    0    0    0    0  0.00000000000E+00  0.00000000000E+00  0.74505805969E-08  0.10566000000E+00  0.10566000000E+00 0.  1.
     999900   -1    0    0    0    0 -0.00000000000E+00 -0.00000000000E+00 -0.74505805969E-08  0.93827000000E+00  0.93827000000E+00 0.  1.
     999902    2    1    2    0    0  0.44143965620E-02  0.21841879820E-01 -0.84472260447E-02  0.10200991326E+01  0.10198207343E+01 0.  0.
     999903    2    3    3    0    0  0.10232673665E+00 -0.26272286171E-01  0.72547602954E-01  0.12967116721E+00  0.19760133021E-01 0.  0.
         14    1    1    2    0    0 -0.44143965620E-02 -0.21841879820E-01  0.84472260447E-02  0.23830867356E-01  0.00000000000E+00 0.  1.
     999901    1    3    3    0    0 -0.97912340084E-01  0.48114165990E-01 -0.80994828999E-01  0.89042796544E+00  0.88000000000E+00 0.  1.
        -11    1    4    4    0    0  0.28234544475E-01  0.15632425294E-02  0.20770297403E-01  0.35089878942E-01  0.51100000000E-03 0. -1.
         11    1    4    4    0    0  0.74092192171E-01 -0.27835528700E-01  0.51777305551E-01  0.94581288265E-01  0.51100000000E-03 0.  1.
</event>
<event>
 8    1  0.1051655E+005  0.1043930E+01  0.7957747E-01            NaN
         13   -1    0    0    0    0  0.00000000000E+00  0.00000000000E+00  0.74505805969E-08  0.10566000000E+00  0.10566000000E+00 0.  1.
     999900   -1    0    0    0    0 -0.00000000000E+00 -0.00000000000E+00 -0.74505805969E-08  0.93827000000E+00  0.93827000000E+00 0.  1.
     999902    2    1    2    0    0 -0.21910530811E-01  0.43212670164E-02  0.83242699582E-02  0.10200964485E+01  0.10198179867E+01 0.  0.
     999903    2    3    3    0    0 -0.80380949331E-01  0.31717218044E-01 -0.96964846281E-01  0.13147103470E+00  0.20380692190E-01 0.  0.
         14    1    1    2    0    0  0.21910530811E-01 -0.43212670164E-02 -0.83242699582E-02  0.23833551548E-01  0.00000000000E+00 0. -1.
     999901    1    3    3    0    0  0.58470418520E-01 -0.27395951027E-01  0.10528911624E+00  0.88862541376E+00  0.88000000000E+00 0. -1.
        -11    1    4    4    0    0 -0.15316732912E-01  0.11401688432E-02 -0.27493117405E-01  0.31496585810E-01  0.51100000000E-03 0.  1.
         11    1    4    4    0    0 -0.65064216419E-01  0.30577049200E-01 -0.69471728876E-01  0.99974448886E-01  0.51100000000E-03 0. -1.
</event>
<event>
 8    1  0.1051655E+005  0.1043930E+01  0.7957747E-01            NaN
         13   -1    0    0    0    0  0.00000000000E+00  0.00000000000E+00  0.74505805969E-08  0.10566000000E+00  0.10566000000E+00 0. -1.
     999900   -1    0    0    0    0 -0.00000000000E+00 -0.00000000000E+00 -0.74505805969E-08  0.93827000000E+00  0.93827000000E+00 0. -1.
     999902    2    1    2    0    0  0.89342152143E-02  0.20907399665E-01 -0.67415274820E-02  0.10202152840E+01  0.10199396247E+01 0.  0.
     999903    2    3    3    0    0  0.11067104454E+00 -0.63819585181E-01 -0.15689958849E-01  0.13026634230E+00  0.20053068984E-01 0.  0.
         14    1    1    2    0    0 -0.89342152143E-02 -0.20907399665E-01  0.67415274820E-02  0.23714716002E-01  0.00000000000E+00 0. -1.
     999901    1    3    3    0    0 -0.10173682933E+00  0.84726984846E-01  0.89484313669E-02  0.88994894170E+00  0.88000000000E+00 0.  1.
        -11    1    4    4    0    0  0.69323884254E-01 -0.34427575886E-01 -0.18046777233E-01  0.79479596117E-01  0.51100000000E-03 0. -1.
         11    1    4    4    0    0  0.41347160286E-01 -0.29392009295E-01  0.23568183838E-02  0.50786746184E-01  0.51100000000E-03 0.  1.
</event>
<event>
 8    1  0.1051655E+005  0.1043930E+01  0.7957747E-01            NaN
         13   -1    0    0    0    0  0.00000000000E+00  0.00000000000E+00  0.74505805969E-08  0.10566000000E+00  0.10566000000E+00 0. -1.
     999900   -1    0    0    0    0 -0.00000000000E+00 -0.00000000000E+00 -0.74505805969E-08  0.93827000000E+00  0.93827000000E+00 0. -1.
     999902    2    1    2    0    0  0.48749556139E-02 -0.96800753017E-02  0.25398484900E-01  0.10163156544E+01  0.10159404299E+01 0.  0.
     999903    2    3    3    0    0  0.70423238072E-01 -0.81123121802E-01 -0.63689925263E-01  0.12651936809E+00  0.20257111614E-01 0.  0.
         14    1    1    2    0    0 -0.48749556139E-02  0.96800753017E-02 -0.25398484900E-01  0.27614345643E-01  0.00000000000E+00 0.  1.
     999901    1    3    3    0    0 -0.65548282458E-01  0.71443046500E-01  0.89088410163E-01  0.88979628627E+00  0.88000000000E+00 0.  1.
        -11    1    4    4    0    0  0.18496087746E-01 -0.35768238170E-01 -0.20872744912E-01  0.45358623490E-01  0.51100000000E-03 0.  1.
         11    1    4    4    0    0  0.51927150325E-01 -0.45354883632E-01 -0.42817180351E-01  0.81160744602E-01  0.51100000000E-03 0. -1.
</event>
<event>
 8    1  0.1051655E+005  0.1043930E+01  0.7957747E-01            NaN
         13   -1    0    0    0    0  0.00000000000E+00  0.00000000000E+00  0.74505805969E-08  0.10566000000E+00  0.10566000000E+00 0.  1.
     999900   -1    0    0    0    0 -0.00000000000E+00 -0.00000000000E+00 -0.74505805969E-08  0.93827000000E+00  0.93827000000E+00 0. -1.
     999902    2    1    2    0    0  0.25025572163E-02 -0.86095377318E-02  0.20650395110E-01  0.10214172092E+01  0.10211690798E+01 0.  0.
     999903    2    3    3    0    0  0.59086804972E-01  0.77025827934E-02 -0.11277772115E+00  0.12941332769E+00  0.21872692866E-01 0.  0.
         14    1    1    2    0    0 -0.25025572163E-02  0.86095377318E-02 -0.20650395110E-01  0.22512790826E-01  0.00000000000E+00 0. -1.
     999901    1    3    3    0    0 -0.56584247756E-01 -0.16312120525E-01  0.13342811626E+00  0.89200388148E+00  0.88000000000E+00 0.  1.
        -11    1    4    4    0    0  0.48280094653E-01 -0.16222108066E-02 -0.77125944298E-01  0.91006986064E-01  0.51100000000E-03 0. -1.
         11    1    4    4    0    0  0.10806710319E-01  0.93247935999E-02 -0.35651776852E-01  0.38406341629E-01  0.51100000000E-03 0.  1.
</event>
<event>
 8    1  0.1051655E+005  0.1043930E+01  0.7957747E-01            NaN
         13   -1    0    0    0    0  0.00000000000E+00  0.00000000000E+00  0.74505805969E-08  0.10566000000E+00  0.10566000000E+00 0. -1.
     999900   -1    0    0    0    0 -0.00000000000E+00 -0.00000000000E+00 -0.74505805969E-08  0.93827000000E+00  0.93827000000E+00 0. -1.
     999902    2    1    2    0    0 -0.12473023225E-01  0.21078425848E-01 -0.10556169193E-01  0.10172596222E+01  0.10169099419E+01 0.  0.
     999903    2    3    3    0    0 -0.92789803153E-01 -0.83805850522E-02 -0.87834330244E-01  0.12974030824E+00  0.20916410712E-01 0.  0.
         14    1    1    2    0    0  0.12473023225E-01 -0.21078425848E-01  0.10556169193E-01  0.26670377812E-01  0.00000000000E+00 0. -1.
     999901    1    3    3    0    0  0.80316779928E-01  0.29459010900E-01  0.77278161051E-01  0.88751931395E+00  0.88000000000E+00 0.  1.
        -11    1    4    4    0    0 -0.49773183231E-01  0.47777476264E-02 -0.39625785489E-01  0.63801729114E-01  0.51100000000E-03 0.  1.
         11    1    4    4    0    0 -0.43016619922E-01 -0.13158332679E-01 -0.48208544755E-01  0.65938579123E-01  0.51100000000E-03 0. -1.
</event>
<event>
 8    1  0.1051655E+005  0.1043930E+01  0.7957747E-01            NaN
         13   -1    0    0    0    0  0.00000000000E+00  0.00000000000E+00  0.74505805969E-08  0.10566000000E+00  0.10566000000E+00 0. -1.
     999900   -1    0    0    0    0 -0.00000000000E+00 -0.00000000000E+00 -0.74505805969E-08  0.93827000000E+00  0.93827000000E+00 0. -1.
     999902    2    1    2    0    0 -0.17084302467E-01 -0.14168663956E-01 -0.48077673639E-02  0.10212201111E+01  0.10209675686E+01 0.  0.
     999903    2    3    3    0    0 -0.78960033487E-02 -0.73584069496E-01  0.10755412875E+00  0.13204082038E+00  0.19746530925E-01 0.  0.
         14    1    1    2    0    0  0.17084302467E-01  0.14168663956E-01  0.48077673639E-02  0.22709888949E-01  0.00000000000E+00 0.  1.
     999901    1    3    3    0    0 -0.91882991180E-02  0.59415405540E-01 -0.11236189611E+00  0.88917929067E+00  0.88000000000E+00 0. -1.
        -11    1    4    4    0    0 -0.70966708999E-02 -0.69893052843E-02  0.15056030644E-01  0.18059853431E-01  0.51100000000E-03 0. -1.
         11    1    4    4    0    0 -0.79933244875E-03 -0.66594764211E-01  0.92498098106E-01  0.11398096695E+00  0.51100000000E-03 0.  1.
</event>
<event>
 8    1  0.1051655E+005  0.1043930E+01  0.7957747E-01            NaN
         13   -1    0    0    0    0  0.00000000000E+00  0.00000000000E+00  0.74505805969E-08  0.10566000000E+00  0.10566000000E+00 0.  1.
     999900   -1    0    0    0    0 -0.00000000000E+00 -0.00000000000E+00 -0.74505805969E-08  0.93827000000E+00  0.93827000000E+00 0. -1.
     999902    2    1    2    0    0  0.24118151716E-02 -0.22032030612E-01 -0.91624299204E-02  0.10199471447E+01  0.10196651414E+01 0.  0.
     999903    2    3    3    0    0  0.51505603573E-01  0.11310217760E+00 -0.23720906040E-01  0.12816050907E+00  0.20432937254E-01 0.  0.
         14    1    1    2    0    0 -0.24118151716E-02  0.22032030612E-01  0.91624299204E-02  0.23982855279E-01  0.00000000000E+00 0.  1.
     999901    1    3    3    0    0 -0.49093788402E-01 -0.13513420822E+00  0.14558476119E-01  0.89178663565E+00  0.88000000000E+00 0. -1.
        -11    1    4    4    0    0  0.26359462930E-01  0.80462018162E-01 -0.13968109107E-01  0.85815656180E-01  0.51100000000E-03 0.  1.
         11    1    4    4    0    0  0.25146140643E-01  0.32640159442E-01 -0.97527969329E-02  0.42344852895E-01  0.51100000000E-03 0. -1.
</event>
<event>
 8    1  0.1051655E+005  0.1043930E+01  0.7957747E-01            NaN
         13   -1    0    0    0    0  0.00000000000E+00  0.00000000000E+00  0.74505805969E-08  0.10566000000E+00  0.10566000000E+00 0. -1.
     999900   -1    0    0    0    0 -0.00000000000E+00 -0.00000000000E+00 -0.74505805969E-08  0.93827000000E+00  0.93827000000E+00 0.  1.
     999902    2    1    2    0    0  0.24091505264E-01 -0.96569191129E-02 -0.78816852438E-02  0.10168047779E+01  0.10164429048E+01 0.  0.
     999903    2    3    3    0    0 -0.41669327174E-01 -0.79447472454E-01  0.86718890018E-01  0.12655510658E+00  0.21161176918E-01 0.  0.
         14    1    1    2    0    0 -0.24091505264E-01  0.96569191129E-02  0.78816852438E-02  0.27125222118E-01  0.00000000000E+00 0.  1.
     999901    1    3    3    0    0  0.65760832438E-01  0.69790553341E-01 -0.94600575261E-01  0.89024967130E+00  0.88000000000E+00 0. -1.
        -11    1    4    4    0    0 -0.30674538768E-01 -0.45792086331E-01  0.40837858174E-01  0.68599083671E-01  0.51100000000E-03 0. -1.
         11    1    4    4    0    0 -0.10994788405E-01 -0.33655386122E-01  0.45881031844E-01  0.57956022907E-01  0.51100000000E-03 0.  1.
</event>
<event>
 8    1  0.1051655E+005  0.1043930E+01  0.7957747E-01            NaN
         13   -1    0    0    0    0  0.00000000000E+00  0.00000000000E+00  0.74505805969E-08  0.10566000000E+00  0.10566000000E+00 0. -1.
     999900   -1    0    0    0    0 -0.00000000000E+00 -0.00000000000E+00 -0.74505805969E-08  0.93827000000E+00  0.93827000000E+00 0. -1.
     999902    2    1    2    0    0  0.79785896644E-02  0.16240425968E-01  0.14771036698E-01  0.10205720709E+01  0.10203047383E+01 0.  0.
     999903    2    3    3    0    0  0.10283015957E+00 -0.35570251303E-01  0.72070101877E-01  0.13211028245E+00  0.20487621863E-01 0.  0.
         14    1    1    2    0    0 -0.79785896644E-02 -0.16240425968E-01 -0.14771036698E-01  0.23357929142E-01  0.00000000000E+00 0. -1.
     999901    1    3    3    0    0 -0.94851569903E-01  0.51810677271E-01 -0.57299065179E-01  0.88846178841E+00  0.88000000000E+00 0. -1.
        -11    1    4    4    0    0  0.22209559098E-01  0.70758667514E-03  0.16593089009E-01  0.27737283899E-01  0.51100000000E-03 0.  1.
         11    1    4    4    0    0  0.80620600470E-01 -0.36277837978E-01  0.55477012868E-01  0.10437299855E+00  0.51100000000E-03 0. -1.
</event>
<event>
 8    1  0.1051655E+005  0.1043930E+01  0.7957747E-01            NaN
         13   -1    0    0    0    0  0.00000000000E+00  0.00000000000E+00  0.74505805969E-08  0.10566000000E+00  0.10566000000E+00 0. -1.
     999900   -1    0    0    0    0 -0.00000000000E+00 -0.00000000000E+00 -0.74505805969E-08  0.93827000000E+00  0.93827000000E+00 0.  1.
     999902    2    1    2    0    0  0.12041929504E-01  0.17098699984E-01  0.14717360458E-02  0.10229647999E+01  0.10227499412E+01 0.  0.
     999903    2    3    3    0    0  0.10784033682E-03 -0.43389405412E-01  0.12363343615E+00  0.13238930377E+00  0.18948590577E-01 0.  0.
         14    1    1    2    0    0 -0.12041929504E-01 -0.17098699984E-01 -0.14717360458E-02  0.20965200079E-01  0.00000000000E+00 0.  1.
     999901    1    3    3    0    0  0.11934089168E-01  0.60488105397E-01 -0.12216170011E+00  0.89057549616E+00  0.88000000000E+00 0.  1.
        -11    1    4    4    0    0 -0.63786172486E-02 -0.16309916071E-01  0.30424383879E-01  0.35108465869E-01  0.51100000000E-03 0. -1.
         11    1    4    4    0    0  0.64864575855E-02 -0.27079489342E-01  0.93209052275E-01  0.97280837897E-01  0.51100000000E-03 0.  1.
</event>
<event>
 8    1  0.1051655E+005  0.1043930E+01  0.7957747E-01            NaN
         13   -1    0    0    0    0  0.00000000000E+00  0.00000000000E+00  0.74505805969E-08  0.10566000000E+00  0.10566000000E+00 0.  1.
     999900   -1    0    0    0    0 -0.00000000000E+00 -0.00000000000E+00 -0.74505805969E-08  0.93827000000E+00  0.93827000000E+00 0.  1.
     999902    2    1    2    0    0  0.16646882360E-01 -0.14277378034E-01 -0.10238338601E-01  0.10197269879E+01  0.10194397207E+01 0.  0.
     999903    2    3    3    0    0  0.67216313567E-01  0.99329835832E-01  0.44032521638E-01  0.12932865422E+00  0.20064614210E-01 0.  0.
         14    1    1    2    0    0 -0.16646882360E-01  0.14277378034E-01  0.10238338601E-01  0.24203012068E-01  0.00000000000E+00 0.  1.
     999901    1    3    3    0    0 -0.50569431207E-01 -0.11360721387E+00 -0.54270860239E-01  0.89039833372E+00  0.88000000000E+00 0. -1.
        -11    1    4    4    0    0  0.41255815171E-01  0.43356040419E-01  0.23509184388E-01  0.64301877094E-01  0.51100000000E-03 0. -1.
         11    1    4    4    0    0  0.25960498396E-01  0.55973795413E-01  0.20523337250E-01  0.65026777121E-01  0.51100000000E-03 0.  1.
</event>
<event>
 8    1  0.1051655E+005  0.1043930E+01  0.7957747E-01            NaN
         13   -1    0    0    0    0  0.00000000000E+00  0.00000000000E+00  0.74505805969E-08  0.10566000000E+00  0.10566000000E+00 0. -1.
     999900   -1    0    0    0    0 -0.00000000000E+00 -0.00000000000E+00 -0.74505805969E-08  0.93827000000E+00  0.93827000000E+00 0.  1.
     999902    2    1    2    0    0  0.52334874843E-02 -0.99660916041E-02  0.16015501815E-01  0.10243542836E+01  0.10241672177E+01 0.  0.
     999903    2    3    3    0    0 -0.10043756999E+00  0.44387535897E-01 -0.70985923697E-01  0.13211556151E+00  0.18909294554E-01 0.  0.
         14    1    1    2    0    0 -0.52334874843E-02  0.99660916041E-02 -0.16015501815E-01  0.19575716373E-01  0.00000000000E+00 0.  1.
     999901    1    3    3    0    0  0.10567105747E+00 -0.54353627501E-01  0.87001425512E-01  0.89223872212E+00  0.88000000000E+00 0.  1.
        -11    1    4    4    0    0 -0.67968303850E-01  0.20547768667E-01 -0.48359779344E-01  0.85911759990E-01  0.51100000000E-03 0. -1.
         11    1    4    4    0    0 -0.32469266140E-01  0.23839767230E-01 -0.22626144352E-01  0.46203801516E-01  0.51100000000E-03 0.  1.
</event>
<event>
 8    1  0.1051655E+005  0.1043930E+01  0.7957747E-01            NaN
         13   -1    0    0    0    0  0.00000000000E+00  0.00000000000E+00  0.74505805969E-08  0.10566000000E+00  0.10566000000E+00 0. -1.
     999900   -1    0    0    0    0 -0.00000000000E+00 -0.00000000000E+00 -0.74505805969E-08  0.93827000000E+00  0.93827000000E+00 0.  1.
     999902    2    1    2    0    0  0.10190426464E-01  0.19912876399E-01  0.50713573503E-02  0.10209934331E+01  0.10207357661E+01 0.  0.
     999903    2    3    3    0    0 -0.32696672787E-02  0.80292647129E-01  0.10421929569E+00  0.13326757192E+00  0.20999624409E-01 0.  0.
         14    1    1    2    0    0 -0.10190426464E-01 -0.19912876399E-01 -0.50713573503E-02  0.22936566948E-01  0.00000000000E+00 0. -1.
     999901    1    3    3    0    0  0.13460093742E-01 -0.60379770730E-01 -0.99147938341E-01  0.88772586113E+00  0.88000000000E+00 0.  1.
        -11    1    4    4    0    0  0.25019454516E-02  0.57770861112E-01  0.86418710443E-01  0.10398166550E+00  0.51100000000E-03 0. -1.
         11    1    4    4    0    0 -0.57716127303E-02  0.22521786017E-01  0.17800585248E-01  0.29285906424E-01  0.51100000000E-03 0.  1.
</event>
<event>
 7    1  0.1051655E+005  0.1043930E+01  0.7957747E-01            NaN
         13   -1    0    0    0    0  0.00000000000E+00  0.00000000000E+00  0.74505805969E-08  0.10566000000E+00  0.10566000000E+00 0.  1.
     999900   -1    0    0    0    0 -0.00000000000E+00 -0.00000000000E+00 -0.74505805969E-08  0.93827000000E+00  0.93827000000E+00 0.  1.
     999903    2    1    2    0    0 -0.66430395515E-01  0.21179761594E-01 -0.29777911649E-01  0.78272756470E-01  0.19450466162E-01 0.  0.
         14    1    1    2    0    0  0.38763613046E-01  0.36074389847E-01 -0.58560650926E-01  0.78951435301E-01  0.00000000000E+00 0.  1.
     999901    1    1    2    0    0  0.27666782469E-01 -0.57254151440E-01  0.88338562574E-01  0.88670580823E+00  0.88000000000E+00 0. -1.
        -11    1    3    3    0    0 -0.52380667942E-01  0.14826694748E-01 -0.14014484511E-01  0.56215942119E-01  0.51100000000E-03 0. -1.
         11    1    3    3    0    0 -0.14049727572E-01  0.63530668460E-02 -0.15763427137E-01  0.22056814351E-01  0.51100000000E-03 0.  1.
</event>
<event>
 8    1  0.1051655E+005  0.1043930E+01  0.7957747E-01            NaN
         13   -1    0    0    0    0  0.00000000000E+00  0.00000000000E+00  0.74505805969E-08  0.10566000000E+00  0.10566000000E+00 0.  1.
     999900   -1    0    0    0    0 -0.00000000000E+00 -0.00000000000E+00 -0.74505805969E-08  0.93827000000E+00  0.93827000000E+00 0. -1.
     999902    2    1    2    0    0  0.16296670192E-01  0.14002250535E-01  0.10076248979E-01  0.10201986858E+01  0.10199226359E+01 0.  0.
     999903    2    3    3    0    0  0.83126085218E-01  0.13518790284E-01 -0.98445025222E-01  0.13101744928E+00  0.19530624457E-01 0.  0.
         14    1    1    2    0    0 -0.16296670192E-01 -0.14002250535E-01 -0.10076248979E-01  0.23731314183E-01  0.00000000000E+00 0. -1.
     999901    1    3    3    0    0 -0.66829415026E-01  0.48346025040E-03  0.10852127420E+00  0.88918123653E+00  0.88000000000E+00 0.  1.
        -11    1    4    4    0    0  0.73697127832E-01  0.75811385045E-02 -0.92043100350E-01  0.11815639532E+00  0.51100000000E-03 0. -1.
         11    1    4    4    0    0  0.94289573856E-02  0.59376517799E-02 -0.64019248721E-02  0.12861053966E-01  0.51100000000E-03 0.  1.
</event>
<event>
 8    1  0.1051655E+005  0.1043930E+01  0.7957747E-01            NaN
         13   -1    0    0    0    0  0.00000000000E+00  0.00000000000E+00  0.74505805969E-08  0.10566000000E+00  0.10566000000E+00 0.  1.
     999900   -1    0    0    0    0 -0.00000000000E+00 -0.00000000000E+00 -0.74505805969E-08  0.93827000000E+00  0.93827000000E+00 0. -1.
     999902    2    1    2    0    0 -0.15583581534E-01  0.35023367696E-02  0.18649255011E-01  0.10193757929E+01  0.10190800253E+01 0.  0.
     999903    2    3    3    0    0  0.76737390516E-01  0.19799132412E-01 -0.96892873318E-01  0.12688560756E+00  0.20762845602E-01 0.  0.
         14    1    1    2    0    0  0.15583581534E-01 -0.35023367696E-02 -0.18649255011E-01  0.24554207149E-01  0.00000000000E+00 0.  1.
     999901    1    3    3    0    0 -0.92320972050E-01 -0.16296795643E-01  0.11554212833E+00  0.89249018529E+00  0.88000000000E+00 0.  1.
        -11    1    4    4    0    0  0.42715408473E-01  0.11546732809E-01 -0.69669594887E-01  0.82535124234E-01  0.51100000000E-03 0.  1.
         11    1    4    4    0    0  0.34021982044E-01  0.82523996033E-02 -0.27223278432E-01  0.44350483323E-01  0.51100000000E-03 0. -1.
</event>
<event>
 8    1  0.1051655E+005  0.1043930E+01  0.7957747E-01            NaN
         13   -1    0    0    0    0  0.00000000000E+00  0.00000000000E+00  0.74505805969E-08  0.10566000000E+00  0.10566000000E+00 0. -1.
     999900   -1    0    0    0    0 -0.00000000000E+00 -0.00000000000E+00 -0.74505805969E-08  0.93827000000E+00  0.93827000000E+00 0. -1.
     999902    2    1    2    0    0  0.89137793658E-02  0.99998065410E-02  0.19447054689E-01  0.10203156076E+01  0.10200423028E+01 0.  0.
     999903    2    3    3    0    0 -0.68572533935E-01 -0.70388074271E-01  0.84182510846E-01  0.13090174474E+00  0.19796419689E-01 0.  0.
         14    1    1    2    0    0 -0.89137793658E-02 -0.99998065410E-02 -0.19447054689E-01  0.23614392423E-01  0.00000000000E+00 0.  1.
     999901    1    3    3    0    0  0.77486313301E-01  0.80387880812E-01 -0.64735456157E-01  0.88941386284E+00  0.88000000000E+00 0. -1.
        -11    1    4    4    0    0 -0.38956756354E-01 -0.52411032705E-01  0.59650544342E-01  0.88447689490E-01  0.51100000000E-03 0. -1.
         11    1    4    4    0    0 -0.29615777581E-01 -0.17977041566E-01  0.24531966504E-01  0.42454055245E-01  0.51100000000E-03 0.  1.
</event>
<event>
 8    1  0.1051655E+005  0.1043930E+01  0.7957747E-01            NaN
         13   -1    0    0    0    0  0.00000000000E+00  0.00000000000E+00  0.74505805969E-08  0.10566000000E+00  0.10566000000E+00 0. -1.
     999900   -1    0    0    0    0 -0.00000000000E+00 -0.00000000000E+00 -0.74505805969E-08  0.93827000000E+00  0.93827000000E+00 0.  1.
     999902    2    1    2    0    0  0.19130495383E-01 -0.58695226356E-02 -0.13076874140E-01  0.10200253606E+01  0.10197452154E+01 0.  0.
     999903    2    3    3    0    0  0.14276616651E-01  0.12746697321E+00  0.32794231115E-03  0.12986702050E+00  0.20339233695E-01 0.  0.
         14    1    1    2    0    0 -0.19130495383E-01  0.58695226356E-02  0.13076874140E-01  0.23904639442E-01  0.00000000000E+00 0. -1.
     999901    1    3    3    0    0  0.48538787329E-02 -0.13333649584E+00 -0.13404816451E-01  0.89015834005E+00  0.88000000000E+00 0.  1.
        -11    1    4    4    0    0 -0.19215387123E-04  0.68866066181E-01 -0.64326269846E-02  0.69167732733E-01  0.51100000000E-03 0.  1.
         11    1    4    4    0    0  0.14295832038E-01  0.58600907025E-01  0.67605692958E-02  0.60699287772E-01  0.51100000000E-03 0. -1.
</event>
<event>
 8    1  0.1051655E+005  0.1043930E+01  0.7957747E-01            NaN
         13   -1    0    0    0    0  0.00000000000E+00  0.00000000000E+00  0.74505805969E-08  0.10566000000E+00  0.10566000000E+00 0.  1.
     999900   -1    0    0    0    0 -0.00000000000E+00 -0.00000000000E+00 -0.74505805969E-08  0.93827000000E+00  0.93827000000E+00 0.  1.
     999902    2    1    2    0    0  0.49730879345E-03  0.16896755008E-01  0.16818200270E-01  0.10200846754E+01  0.10198059352E+01 0.  0.
     999903    2    3    3    0    0  0.11409434526E+00  0.54430356176E-01 -0.27898672287E-01  0.13086442336E+00  0.19156672308E-01 0.  0.
         14    1    1    2    0    0 -0.49730879345E-03 -0.16896755008E-01 -0.16818200270E-01  0.23845324619E-01  0.00000000000E+00 0.  1.
     999901    1    3    3    0    0 -0.11359703646E+00 -0.37533601169E-01  0.44716872557E-01  0.88922025202E+00  0.88000000000E+00 0.  1.
        -11    1    4    4    0    0  0.15848857011E-01  0.12910423518E-01  0.62037613309E-03  0.20457548522E-01  0.51100000000E-03 0.  1.
         11    1    4    4    0    0  0.98245488245E-01  0.41519932658E-01 -0.28519048420E-01  0.11040687484E+00  0.51100000000E-03 0. -1.
</event>
<event>
 8    1  0.1051655E+005  0.1043930E+01  0.7957747E-01            NaN
         13   -1    0    0    0    0  0.00000000000E+00  0.00000000000E+00  0.74505805969E-08  0.10566000000E+00  0.10566000000E+00 0.  1.
     999900   -1    0    0    0    0 -0.00000000000E+00 -0.00000000000E+00 -0.74505805969E-08  0.93827000000E+00  0.93827000000E+00 0.  1.
     999902    2    1    2    0    0  0.20325851175E-01 -0.65655806220E-02 -0.86194746756E-02  0.10208964936E+01  0.10206366191E+01 0.  0.
     999903    2    3    3    0    0 -0.19889361170E-01 -0.88177904543E-01 -0.94682057631E-01  0.13202946026E+00  0.17209206876E-01 0.  0.
         14    1    1    2    0    0 -0.20325851175E-01  0.65655806220E-02  0.86194746756E-02  0.23033506433E-01  0.00000000000E+00 0.  1.
     999901    1    3    3    0    0  0.40215212346E-01  0.81612323921E-01  0.86062582956E-01  0.88886703331E+00  0.88000000000E+00 0. -1.
        -11    1    4    4    0    0 -0.32089430204E-02 -0.38974744681E-01 -0.50171891307E-01  0.63614525358E-01  0.51100000000E-03 0. -1.
         11    1    4    4    0    0 -0.16680418150E-01 -0.49203159862E-01 -0.44510166324E-01  0.68414934899E-01  0.51100000000E-03 0.  1.
</event>
<event>
 8    1  0.1051655E+005  0.1043930E+01  0.7957747E-01            NaN
         13   -1    0    0    0    0  0.00000000000E+00  0.00000000000E+00  0.74505805969E-08  0.10566000000E+00  0.10566000000E+00 0. -1.
     999900   -1    0    0    0    0 -0.00000000000E+00 -0.00000000000E+00 -0.74505805969E-08  0.93827000000E+00  0.93827000000E+00 0. -1.
     999902    2    1    2    0    0  0.33601953669E-02 -0.48762258118E-02  0.22843488060E-01  0.10203314103E+01  0.10200584754E+01 0.  0.
     999903    2    3    3    0    0 -0.11138418082E+00 -0.12410648901E-01 -0.60145136187E-01  0.12897842117E+00  0.21390085964E-01 0.  0.
         14    1    1    2    0    0 -0.33601953669E-02  0.48762258118E-02 -0.22843488060E-01  0.23598589742E-01  0.00000000000E+00 0.  1.
     999901    1    3    3    0    0  0.11474437619E+00  0.75344230896E-02  0.82988624247E-01  0.89135298909E+00  0.88000000000E+00 0.  1.
        -11    1    4    4    0    0 -0.95393831145E-01 -0.16135936989E-01 -0.56876408247E-01  0.11222984638E+00  0.51100000000E-03 0. -1.
         11    1    4    4    0    0 -0.15990349676E-01  0.37252880872E-02 -0.32687279398E-02  0.16748574788E-01  0.51100000000E-03 0.  1.
</event>
<event>
 8    1  0.1051655E+005  0.1043930E+01  0.7957747E-01            NaN
         13   -1    0    0    0    0  0.00000000000E+00  0.00000000000E+00  0.74505805969E-08  0.10566000000E+00  0.10566000000E+00 0. -1.
     999900   -1    0    0    0    0 -0.00000000000E+00 -0.00000000000E+00 -0.74505805969E-08  0.93827000000E+00  0.93827000000E+00 0. -1.
     999902    2    1    2    0    0 -0.78454932946E-02  0.20515785685E-01  0.84282796263E-02  0.10204037354E+01  0.10201324905E+01 0.  0.
     999903    2    3    3    0    0  0.80152648825E-02  0.69638502672E-01 -0.10897176854E+00  0.13110773505E+00  0.20015652000E-01 0.  0.
         14    1    1    2    0    0  0.78454932946E-02 -0.20515785685E-01 -0.84282796263E-02  0.23526264573E-01  0.00000000000E+00 0.  1.
     999901    1    3    3    0    0 -0.15860758177E-01 -0.49122716987E-01  0.11740004817E+00  0.88929600038E+00  0.88000000000E+00 0.  1.
        -11    1    4    4    0    0  0.16195278922E-02  0.40365545644E-01 -0.45066692362E-01  0.60524937234E-01  0.51100000000E-03 0.  1.
         11    1    4    4    0    0  0.63957369903E-02  0.29272957028E-01 -0.63905076182E-01  0.70582797817E-01  0.51100000000E-03 0. -1.
</event>
<event>
 8    1  0.1051655E+005  0.1043930E+01  0.7957747E-01            NaN
         13   -1    0    0    0    0  0.00000000000E+00  0.00000000000E+00  0.74505805969E-08  0.10566000000E+00  0.10566000000E+00 0. -1.
     999900   -1    0    0    0    0 -0.00000000000E+00 -0.00000000000E+00 -0.74505805969E-08  0.93827000000E+00  0.93827000000E+00 0.  1.
     999902    2    1    2    0    0 -0.63398173172E-04  0.20773018917E-01  0.91585383846E-02  0.10212275517E+01  0.10209751766E+01 0.  0.
     999903    2    3    3    0    0  0.26508419545E-01  0.11283598956E-01 -0.12568744752E+00  0.13050899316E+00  0.20130745626E-01 0.  0.
         14    1    1    2    0    0  0.63398173172E-04 -0.20773018917E-01 -0.91585383846E-02  0.22702448317E-01  0.00000000000E+00 0. -1.
     999901    1    3    3    0    0 -0.26571817718E-01  0.94894199608E-02  0.13484598590E+00  0.89071855853E+00  0.88000000000E+00 0. -1.
        -11    1    4    4    0    0  0.10280585795E-01  0.79840498663E-02 -0.22491991705E-01  0.25992043175E-01  0.51100000000E-03 0.  1.
         11    1    4    4    0    0  0.16227833750E-01  0.32995490899E-02 -0.10319545581E+00  0.10451694998E+00  0.51100000000E-03 0. -1.
</event>
<event>
 8    1  0.1051655E+005  0.1043930E+01  0.7957747E-01            NaN
         13   -1    0    0    0    0  0.00000000000E+00  0.00000000000E+00  0.74505805969E-08  0.10566000000E+00  0.10566000000E+00 0.  1.
     999900   -1    0    0    0    0 -0.00000000000E+00 -0.00000000000E+00 -0.74505805969E-08  0.93827000000E+00  0.93827000000E+00 0. -1.
     999902    2    1    2    0    0 -0.25871596856E-02 -0.22743407063E-01  0.27009231936E-02  0.10208811183E+01  0.10206208928E+01 0.  0.
     999903    2    3    3    0    0  0.83206903966E-01  0.94366428850E-01  0.19089384705E-01  0.12883632310E+00  0.20148989568E-01 0.  0.
         14    1    1    2    0    0  0.25871596856E-02  0.22743407063E-01 -0.27009231936E-02  0.23048881668E-01  0.00000000000E+00 0. -1.
     999901    1    3    3    0    0 -0.85794063652E-01 -0.11710983591E+00 -0.16388461511E-01  0.89204479523E+00  0.88000000000E+00 0. -1.
        -11    1    4    4    0    0  0.63726736724E-01  0.58196554745E-01  0.14149548803E-01  0.87455170288E-01  0.51100000000E-03 0. -1.
         11    1    4    4    0    0  0.19480167242E-01  0.36169874105E-01  0.49398359018E-02  0.41381152814E-01  0.51100000000E-03 0.  1.
</event>
<event>
 8    1  0.1051655E+005  0.1043930E+01  0.7957747E-01            NaN
         13   -1    0    0    0    0  0.00000000000E+00  0.00000000000E+00  0.74505805969E-08  0.10566000000E+00  0.10566000000E+00 0.  1.
     999900   -1    0    0    0    0 -0.00000000000E+00 -0.00000000000E+00 -0.74505805969E-08  0.93827000000E+00  0.93827000000E+00 0.  1.
     999902    2    1    2    0    0  0.74155641846E-02 -0.11136085559E-01 -0.19747427816E-01  0.10200770358E+01  0.10197981149E+01 0.  0.
     999903    2    3    3    0    0 -0.63182979718E-01  0.99682360204E-01 -0.49984511551E-01  0.12980788353E+00  0.20566316400E-01 0.  0.
         14    1    1    2    0    0 -0.74155641846E-02  0.11136085559E-01  0.19747427816E-01  0.23852964157E-01  0.00000000000E+00 0.  1.
     999901    1    3    3    0    0  0.70598543903E-01 -0.11081844576E+00  0.30237083735E-01  0.89026915231E+00  0.88000000000E+00 0.  1.
        -11    1    4    4    0    0 -0.55112378143E-01  0.79034762720E-01 -0.47703042733E-01  0.10751608880E+00  0.51100000000E-03 0.  1.
         11    1    4    4    0    0 -0.80706015754E-02  0.20647597484E-01 -0.22814688177E-02  0.22291794737E-01  0.51100000000E-03 0. -1.
</event>
<event>
 8    1  0.1051655E+005  0.1043930E+01  0.7957747E-01            NaN
         13   -1    0    0    0    0  0.00000000000E+00  0.00000000000E+00  0.74505805969E-08  0.10566000000E+00  0.10566000000E+00 0. -1.
     999900   -1    0    0    0    0 -0.00000000000E+00 -0.00000000000E+00 -0.74505805969E-08  0.93827000000E+00  0.93827000000E+00 0.  1.
     999902    2    1    2    0    0  0.13607271474E-01  0.16828687261E-01 -0.11194025569E-01  0.10195646812E+01  0.10192735013E+01 0.  0.
     999903    2    3    3    0    0 -0.53722131629E-01  0.10406267544E+00  0.52054161163E-01  0.13043963356E+00  0.24284860732E-01 0.  0.
         14    1    1    2    0    0 -0.13607271474E-01 -0.16828687261E-01  0.11194025569E-01  0.24365318802E-01  0.00000000000E+00 0. -1.
     999901    1    3    3    0    0  0.67329403103E-01 -0.87233988184E-01 -0.63248186732E-01  0.88912504764E+00  0.88000000000E+00 0.  1.
        -11    1    4    4    0    0 -0.39872431584E-01  0.78380945120E-01  0.50054818558E-01  0.10118858305E+00  0.51100000000E-03 0. -1.
         11    1    4    4    0    0 -0.13849700045E-01  0.25681730325E-01  0.19993426055E-02  0.29251050505E-01  0.51100000000E-03 0.  1.
</event>
<event>
 8    1  0.1051655E+005  0.1043930E+01  0.7957747E-01            NaN
         13   -1    0    0    0    0  0.00000000000E+00  0.00000000000E+00  0.74505805969E-08  0.10566000000E+00  0.10566000000E+00 0.  1.
     999900   -1    0    0    0    0 -0.00000000000E+00 -0.00000000000E+00 -0.74505805969E-08  0.93827000000E+00  0.93827000000E+00 0.  1.
     999902    2    1    2    0    0  0.23522757775E-01  0.23916553030E-02 -0.33199897124E-02  0.10200540188E+01  0.10197745529E+01 0.  0.
     999903    2    3    3    0    0 -0.25345826934E-01 -0.93932098001E-03 -0.12581883646E+00  0.13021965135E+00  0.21988286056E-01 0.  0.
         14    1    1    2    0    0 -0.23522757775E-01 -0.23916553030E-02  0.33199897124E-02  0.23875981238E-01  0.00000000000E+00 0. -1.
     999901    1    3    3    0    0  0.48868584708E-01  0.33309762830E-02  0.12249884674E+00  0.88983436741E+00  0.88000000000E+00 0. -1.
        -11    1    4    4    0    0 -0.20786440436E-01  0.67340170863E-02 -0.10902721072E+00  0.11119629891E+00  0.51100000000E-03 0.  1.
         11    1    4    4    0    0 -0.45593864975E-02 -0.76733380663E-02 -0.16791625732E-01  0.19023352440E-01  0.51100000000E-03 0. -1.
</event>
<event>
 8    1  0.1051655E+005  0.1043930E+01  0.7957747E-01            NaN
         13   -1    0    0    0    0  0.00000000000E+00  0.00000000000E+00  0.74505805969E-08  0.10566000000E+00  0.10566000000E+00 0.  1.
     999900   -1    0    0    0    0 -0.00000000000E+00 -0.00000000000E+00 -0.74505805969E-08  0.93827000000E+00  0.93827000000E+00 0. -1.
     999902    2    1    2    0    0  0.15496075065E-01  0.79321220430E-02  0.10060734292E-01  0.10238236508E+01  0.10236262026E+01 0.  0.
     999903    2    3    3    0    0 -0.83274421166E-02 -0.10656031293E+00  0.77937223002E-01  0.13349601711E+00  0.17959099974E-01 0.  0.
         14    1    1    2    0    0 -0.15496075065E-01 -0.79321220430E-02 -0.10060734292E-01  0.20106349172E-01  0.00000000000E+00 0. -1.
     999901    1    3    3    0    0  0.23823517182E-01  0.11449243497E+00 -0.67876488709E-01  0.89032763371E+00  0.88000000000E+00 0. -1.
        -11    1    4    4    0    0 -0.84225138877E-02 -0.39574762224E-01  0.37981421597E-01  0.55497297707E-01  0.51100000000E-03 0. -1.
         11    1    4    4    0    0  0.95071771080E-04 -0.66985550706E-01  0.39955801404E-01  0.77998719406E-01  0.51100000000E-03 0.  1.
</event>
<event>
 8    1  0.1051655E+005  0.1043930E+01  0.7957747E-01            NaN
         13   -1    0    0    0    0  0.00000000000E+00  0.00000000000E+00  0.74505805969E-08  0.10566000000E+00  0.10566000000E+00 0.  1.
     999900   -1    0    0    0    0 -0.00000000000E+00 -0.00000000000E+00 -0.74505805969E-08  0.93827000000E+00  0.93827000000E+00 0. -1.
     999902    2    1    2    0    0 -0.10839360350E-01  0.15777271578E-01  0.14083802549E-01  0.10201651620E+01  0.10198883224E+01 0.  0.
     999903    2    3    3    0    0 -0.29262051964E-01 -0.11153476414E+00 -0.52634222257E-01  0.12831369183E+00  0.19944193685E-01 0.  0.
         14    1    1    2    0    0  0.10839360350E-01 -0.15777271578E-01 -0.14083802549E-01  0.23764838006E-01  0.00000000000E+00 0.  1.
     999901    1    3    3    0    0  0.18422691614E-01  0.12731203571E+00  0.66718024806E-01  0.89185147017E+00  0.88000000000E+00 0.  1.
        -11    1    4    4    0    0 -0.24589673098E-01 -0.56059153202E-01 -0.30582180604E-01  0.68431071687E-01  0.51100000000E-03 0.  1.
         11    1    4    4    0    0 -0.46723788662E-02 -0.55475610934E-01 -0.22052041652E-01  0.59882620140E-01  0.51100000000E-03 0. -1.
</event>
<event>
 8    1  0.1051655E+005  0.1043930E+01  0.7957747E-01            NaN
         13   -1    0    0    0    0  0.00000000000E+00  0.00000000000E+00  0.74505805969E-08  0.10566000000E+00  0.10566000000E+00 0. -1.
     999900   -1    0    0    0    0 -0.00000000000E+00 -0.00000000000E+00 -0.74505805969E-08  0.93827000000E+00  0.93827000000E+00 0.  1.
     999902    2    1    2    0    0  0.18193586136E-01  0.11525726348E-01  0.66753124780E-02  0.10213820790E+01  0.10211331659E+01 0.  0.
     999903    2    3    3    0    0  0.32616470364E-01 -0.76819932694E-01  0.10005105847E+00  0.13192606267E+00  0.20715586244E-01 0.  0.
         14    1    1    2    0    0 -0.18193586136E-01 -0.11525726348E-01 -0.66753124780E-02  0.22547920991E-01  0.00000000000E+00 0.  1.
     999901    1    3    3    0    0 -0.14422884228E-01  0.88345659042E-01 -0.93375745988E-01  0.88945601634E+00  0.88000000000E+00 0.  1.
        -11    1    4    4    0    0  0.18411867641E-01 -0.45628278559E-01  0.74027761301E-01  0.88889297660E-01  0.51100000000E-03 0.  1.
         11    1    4    4    0    0  0.14204602724E-01 -0.31191654135E-01  0.26023297165E-01  0.43036765010E-01  0.51100000000E-03 0. -1.
</event>
<event>
 8    1  0.1051655E+005  0.1043930E+01  0.7957747E-01            NaN
         13   -1    0    0    0    0  0.00000000000E+00  0.00000000000E+00  0.74505805969E-08  0.10566000000E+00  0.10566000000E+00 0. -1.
     999900   -1    0    0    0    0 -0.00000000000E+00 -0.00000000000E+00 -0.74505805969E-08  0.93827000000E+00  0.93827000000E+00 0. -1.
     999902    2    1    2    0    0  0.10412494611E-01 -0.21439751429E-01 -0.35908947817E-02  0.10198265249E+01  0.10195416438E+01 0.  0.
     999903    2    3    3    0    0 -0.59718312568E-01 -0.11587654511E+00  0.55329749068E-02  0.13195272583E+00  0.19678858751E-01 0.  0.
         14    1    1    2    0    0 -0.10412494611E-01  0.21439751429E-01  0.35908947817E-02  0.24103475075E-01  0.00000000000E+00 0. -1.
     999901    1    3    3    0    0  0.70130807179E-01  0.94436793678E-01 -0.91238696885E-02  0.88787379909E+00  0.88000000000E+00 0.  1.
        -11    1    4    4    0    0 -0.10938103428E-01 -0.37134017712E-01  0.68397336705E-02  0.39314379757E-01  0.51100000000E-03 0. -1.
         11    1    4    4    0    0 -0.48780209139E-01 -0.78742527395E-01 -0.13067587637E-02  0.92638346076E-01  0.51100000000E-03 0.  1.
</event>
<event>
 8    1  0.1051655E+005  0.1043930E+01  0.7957747E-01            NaN
         13   -1    0    0    0    0  0.00000000000E+00  0.00000000000E+00  0.74505805969E-08  0.10566000000E+00  0.10566000000E+00 0.  1.
     999900   -1    0    0    0    0 -0.00000000000E+00 -0.00000000000E+00 -0.74505805969E-08  0.93827000000E+00  0.93827000000E+00 0. -1.
     999902    2    1    2    0    0 -0.12546159955E-01 -0.34696873926E-02 -0.19771892797E-01  0.10202578095E+01  0.10199831494E+01 0.  0.
     999903    2    3    3    0    0  0.11221118692E+00 -0.37008795411E-01 -0.51300772279E-01  0.13026717040E+00  0.19410436404E-01 0.  0.
         14    1    1    2    0    0  0.12546159955E-01  0.34696873926E-02  0.19771892797E-01  0.23672190541E-01  0.00000000000E+00 0.  1.
     999901    1    3    3    0    0 -0.12475734687E+00  0.33539108018E-01  0.31528879483E-01  0.88999063906E+00  0.88000000000E+00 0.  1.
        -11    1    4    4    0    0  0.99795154838E-02  0.19974105475E-03 -0.92858630338E-02  0.13642543717E-01  0.51100000000E-03 0.  1.
         11    1    4    4    0    0  0.10223167143E+00 -0.37208536465E-01 -0.42014909246E-01  0.11662462669E+00  0.51100000000E-03 0. -1.
</event>
<event>
 8    1  0.1051655E+005  0.1043930E+01  0.7957747E-01            NaN
         13   -1    0    0    0    0  0.00000000000E+00  0.00000000000E+00  0.74505805969E-08  0.10566000000E+00  0.10566000000E+00 0. -1.
     999900   -1    0    0    0    0 -0.00000000000E+00 -0.00000000000E+00 -0.74505805969E-08  0.93827000000E+00  0.93827000000E+00 0. -1.
     999902    2    1    2    0    0 -0.22032995567E-01 -0.51785351825E-02 -0.80116496052E-02  0.10199204883E+01  0.10196378504E+01 0.  0.
     999903    2    3    3    0    0  0.19664894706E-01  0.91852503321E-01 -0.87646652819E-01  0.13003540014E+00  0.20091766676E-01 0.  0.
         14    1    1    2    0    0  0.22032995567E-01  0.51785351825E-02  0.80116496052E-02  0.24009511650E-01  0.00000000000E+00 0.  1.
     999901    1    3    3    0    0 -0.41697890273E-01 -0.97031038504E-01  0.79635003214E-01  0.88988508821E+00  0.88000000000E+00 0.  1.
        -11    1    4    4    0    0  0.13163597085E-01  0.34576327792E-01 -0.45388788278E-01  0.58559422420E-01  0.51100000000E-03 0. -1.
         11    1    4    4    0    0  0.65012976209E-02  0.57276175530E-01 -0.42257864541E-01  0.71475977717E-01  0.51100000000E-03 0.  1.
</event>
<event>
 8    1  0.1051655E+005  0.1043930E+01  0.7957747E-01            NaN
         13   -1    0    0    0    0  0.00000000000E+00  0.00000000000E+00  0.74505805969E-08  0.10566000000E+00  0.10566000000E+00 0.  1.
     999900   -1    0    0    0    0 -0.00000000000E+00 -0.00000000000E+00 -0.74505805969E-08  0.93827000000E+00  0.93827000000E+00 0. -1.
     999902    2    1    2    0    0 -0.14462701177E-01 -0.18513360808E-01 -0.38929201149E-02  0.10201167877E+01  0.10198388066E+01 0.  0.
     999903    2    3    3    0    0  0.56746067732E-01 -0.10482262715E+00 -0.53018711579E-01  0.13167246100E+00  0.17853678713E-01 0.  0.
         14    1    1    2    0    0  0.14462701177E-01  0.18513360808E-01  0.38929201149E-02  0.23813212315E-01  0.00000000000E+00 0.  1.
     999901    1    3    3    0    0 -0.71208768909E-01  0.86309266341E-01  0.49125791464E-01  0.88844432668E+00  0.88000000000E+00 0.  1.
        -11    1    4    4    0    0  0.44997772251E-01 -0.70610373383E-01 -0.43036893689E-01  0.94143824419E-01  0.51100000000E-03 0. -1.
         11    1    4    4    0    0  0.11748295481E-01 -0.34212253766E-01 -0.99818178905E-02  0.37528636584E-01  0.51100000000E-03 0.  1.
</event>
<event>
 8    1  0.1051655E+005  0.1043930E+01  0.7957747E-01            NaN
         13   -1    0    0    0    0  0.00000000000E+00  0.00000000000E+00  0.74505805969E-08  0.10566000000E+00  0.10566000000E+00 0. -1.
     999900   -1    0    0    0    0 -0.00000000000E+00 -0.00000000000E+00 -0.74505805969E-08  0.93827000000E+00  0.93827000000E+00 0.  1.
     999902    2    1    2    0    0  0.17332412308E-01 -0.66991208871E-02 -0.19193924779E-01  0.10172148828E+01  0.10168640127E+01 0.  0.
     999903    2    3    3    0    0  0.76991760433E-01  0.36909408390E-01  0.92008816078E-01  0.12714354231E+00  0.20244073499E-01 0.  0.
         14    1    1    2    0    0 -0.17332412308E-01  0.66991208871E-02  0.19193924779E-01  0.26715117172E-01  0.00000000000E+00 0. -1.
     999901    1    3    3    0    0 -0.59659348125E-01 -0.43608529277E-01 -0.11120274086E+00  0.89007134052E+00  0.88000000000E+00 0.  1.
        -11    1    4    4    0    0  0.46725496252E-01  0.17399055118E-01  0.40208988229E-01  0.64054843489E-01  0.51100000000E-03 0. -1.
         11    1    4    4    0    0  0.30266264181E-01  0.19510353271E-01  0.51799827849E-01  0.63088698817E-01  0.51100000000E-03 0.  1.
</event>
<event>
 8    1  0.1051655E+005  0.1043930E+01  0.7957747E-01            NaN
         13   -1    0    0    0    0  0.00000000000E+00  0.00000000000E+00  0.74505805969E-08  0.10566000000E+00  0.10566000000E+00 0.  1.
     999900   -1    0    0    0    0 -0.00000000000E+00 -0.00000000000E+00 -0.74505805969E-08  0.93827000000E+00  0.93827000000E+00 0.  1.
     999902    2    1    2    0    0 -0.26250442118E-03  0.12408271677E-01 -0.20515390941E-01  0.10199526069E+01  0.10196707336E+01 0.  0.
     999903    2    3    3    0    0 -0.11609687289E+00 -0.20683456578E-01 -0.53789897251E-01  0.13112199527E+00  0.19832683276E-01 0.  0.
         14    1    1    2    0    0  0.26250442118E-03 -0.12408271677E-01  0.20515390941E-01  0.23977393103E-01  0.00000000000E+00 0.  1.
     999901    1    3    3    0    0  0.11583436847E+00  0.33091728255E-01  0.33274506311E-01  0.88883061163E+00  0.88000000000E+00 0. -1.
        -11    1    4    4    0    0 -0.68465529383E-01 -0.36171795579E-02 -0.36342734997E-01  0.77599408566E-01  0.51100000000E-03 0. -1.
         11    1    4    4    0    0 -0.47631343507E-01 -0.17066277020E-01 -0.17447162254E-01  0.53522586703E-01  0.51100000000E-03 0.  1.
</event>
<event>
 8    1  0.1051655E+005  0.1043930E+01  0.7957747E-01            NaN
         13   -1    0    0    0    0  0.00000000000E+00  0.00000000000E+00  0.74505805969E-08  0.10566000000E+00  0.10566000000E+00 0. -1.
     999900   -1    0    0    0    0 -0.00000000000E+00 -0.00000000000E+00 -0.74505805969E-08  0.93827000000E+00  0.93827000000E+00 0.  1.
     999902    2    1    2    0    0  0.21339818876E-01  0.94126741549E-02  0.11841127678E-02  0.10205764472E+01  0.10203092160E+01 0.  0.
     999903    2    3    3    0    0 -0.59172308911E-01 -0.10620186328E+00 -0.37654849583E-01  0.12852410067E+00  0.17898571210E-01 0.  0.
         14    1    1    2    0    0 -0.21339818876E-01 -0.94126741549E-02 -0.11841127678E-02  0.23353552780E-01  0.00000000000E+00 0.  1.
     999901    1    3    3    0    0  0.80512127787E-01  0.11561453743E+00  0.38838962351E-01  0.89205234655E+00  0.88000000000E+00 0. -1.
        -11    1    4    4    0    0 -0.52788367744E-01 -0.85882763914E-01 -0.36407381892E-01  0.10718311193E+00  0.51100000000E-03 0. -1.
         11    1    4    4    0    0 -0.63839411671E-02 -0.20319099361E-01 -0.12474676914E-02  0.21340988738E-01  0.51100000000E-03 0.  1.
</event>
<event>
 8    1  0.1051655E+005  0.1043930E+01  0.7957747E-01            NaN
         13   -1    0    0    0    0  0.00000000000E+00  0.00000000000E+00  0.74505805969E-08  0.10566000000E+00  0.10566000000E+00 0. -1.
     999900   -1    0    0    0    0 -0.00000000000E+00 -0.00000000000E+00 -0.74505805969E-08  0.93827000000E+00  0.93827000000E+00 0. -1.
     999902    2    1    2    0    0 -0.18817942424E-01  0.15015367346E-01 -0.43402635413E-03  0.10198516987E+01  0.10195674194E+01 0.  0.
     999903    2    3    3    0    0  0.20838644329E-01  0.55355523859E-01 -0.11473359143E+00  0.13065860176E+00  0.20233390528E-01 0.  0.
         14    1    1    2    0    0  0.18817942424E-01 -0.15015367346E-01  0.43402635413E-03  0.24078301279E-01  0.00000000000E+00 0.  1.
     999901    1    3    3    0    0 -0.39656586753E-01 -0.40340156513E-01  0.11429956508E+00  0.88919309696E+00  0.88000000000E+00 0.  1.
        -11    1    4    4    0    0 -0.37410909230E-03  0.16740893737E-01 -0.46598422130E-01  0.49518396044E-01  0.51100000000E-03 0. -1.
         11    1    4    4    0    0  0.21212753422E-01  0.38614630121E-01 -0.68135169304E-01  0.81140205720E-01  0.51100000000E-03 0.  1.
</event>
<event>
 8    1  0.1051655E+005  0.1043930E+01  0.7957747E-01            NaN
         13   -1    0    0    0    0  0.00000000000E+00  0.00000000000E+00  0.74505805969E-08  0.10566000000E+00  0.10566000000E+00 0. -1.
     999900   -1    0    0    0    0 -0.00000000000E+00 -0.00000000000E+00 -0.74505805969E-08  0.93827000000E+00  0.93827000000E+00 0. -1.
     999902    2    1    2    0    0  0.33596353064E-02 -0.10793719982E-01  0.22802836339E-01  0.10184788530E+01  0.10181607992E+01 0.  0.
     999903    2    3    3    0    0  0.66239055973E-01  0.68670933884E-01  0.86678766610E-01  0.13036366492E+00  0.19446512652E-01 0.  0.
         14    1    1    2    0    0 -0.33596353064E-02  0.10793719982E-01 -0.22802836339E-01  0.25451147038E-01  0.00000000000E+00 0.  1.
     999901    1    3    3    0    0 -0.62879420667E-01 -0.79464653866E-01 -0.63875930271E-01  0.88811518804E+00  0.88000000000E+00 0. -1.
        -11    1    4    4    0    0  0.19533553650E-01  0.92976147494E-02  0.22780518692E-01  0.31420033595E-01  0.51100000000E-03 0. -1.
         11    1    4    4    0    0  0.46705502323E-01  0.59373319135E-01  0.63898247918E-01  0.98943631328E-01  0.51100000000E-03 0.  1.
</event>
<event>
 8    1  0.1051655E+005  0.1043930E+01  0.7957747E-01            NaN
         13   -1    0    0    0    0  0.00000000000E+00  0.00000000000E+00  0.74505805969E-08  0.10566000000E+00  0.10566000000E+00 0. -1.
     999900   -1    0    0    0    0 -0.00000000000E+00 -0.00000000000E+00 -0.74505805969E-08  0.93827000000E+00  0.93827000000E+00 0. -1.
     999902    2    1    2    0    0  0.22815379562E-01  0.61727166626E-02  0.39164025762E-02  0.10199720747E+01  0.10196906644E+01 0.  0.
     999903    2    3    3    0    0 -0.12585863961E-01 -0.61007688107E-01 -0.11143575366E+00  0.12920129904E+00  0.19867221755E-01 0.  0.
         14    1    1    2    0    0 -0.22815379562E-01 -0.61727166626E-02 -0.39164025762E-02  0.23957925300E-01  0.00000000000E+00 0.  1.
     999901    1    3    3    0    0  0.35401243523E-01  0.67180404770E-01  0.11535215623E+00  0.89077077566E+00  0.88000000000E+00 0.  1.
        -11    1    4    4    0    0  0.52416142841E-02 -0.94700999874E-02 -0.19390563726E-01  0.22212888077E-01  0.51100000000E-03 0.  1.
         11    1    4    4    0    0 -0.17827478245E-01 -0.51537588120E-01 -0.92045189929E-01  0.10698841096E+00  0.51100000000E-03 0. -1.
</event>
<event>
 8    1  0.1051655E+005  0.1043930E+01  0.7957747E-01            NaN
         13   -1    0    0    0    0  0.00000000000E+00  0.00000000000E+00  0.74505805969E-08  0.10566000000E+00  0.10566000000E+00 0. -1.
     999900   -1    0    0    0    0 -0.00000000000E+00 -0.00000000000E+00 -0.74505805969E-08  0.93827000000E+00  0.93827000000E+00 0. -1.
     999902    2    1    2    0    0  0.13936713954E-01  0.14617666951E-01  0.16948142690E-01  0.10175643458E+01  0.10172227141E+01 0.  0.
     999903    2    3    3    0    0 -0.80028370941E-01 -0.34154247866E-01  0.91954448032E-01  0.12805094918E+00  0.19245058330E-01 0.  0.
         14    1    1    2    0    0 -0.13936713954E-01 -0.14617666951E-01 -0.16948142690E-01  0.26365654241E-01  0.00000000000E+00 0.  1.
     999901    1    3    3    0    0  0.93965084895E-01  0.48771914817E-01 -0.75006305342E-01  0.88951339658E+00  0.88000000000E+00 0. -1.
        -11    1    4    4    0    0 -0.18003013311E-01 -0.13343188584E-01  0.14653791199E-01  0.26779542329E-01  0.51100000000E-03 0. -1.
         11    1    4    4    0    0 -0.62025357630E-01 -0.20811059282E-01  0.77300656833E-01  0.10127140685E+00  0.51100000000E-03 0.  1.
</event>
<event>
 8    1  0.1051655E+005  0.1043930E+01  0.7957747E-01            NaN
         13   -1    0    0    0    0  0.00000000000E+00  0.00000000000E+00  0.74505805969E-08  0.10566000000E+00  0.10566000000E+00 0. -1.
     999900   -1    0    0    0    0 -0.00000000000E+00 -0.00000000000E+00 -0.74505805969E-08  0.93827000000E+00  0.93827000000E+00 0. -1.
     999902    2    1    2    0    0 -0.14001792343E-01 -0.19017606390E-01  0.11069980874E-02  0.10202879826E+01  0.10200140305E+01 0.  0.
     999903    2    3    3    0    0  0.67699082042E-02  0.66956527709E-01  0.10862032128E+00  0.12934346697E+00  0.20058663795E-01 0.  0.
         14    1    1    2    0    0  0.14001792343E-01  0.19017606390E-01 -0.11069980874E-02  0.23642017393E-01  0.00000000000E+00 0.  1.
     999901    1    3    3    0    0 -0.20771700547E-01 -0.85974134099E-01 -0.10751332319E+00  0.89094451564E+00  0.88000000000E+00 0. -1.
        -11    1    4    4    0    0 -0.42763389183E-02  0.51967141342E-02  0.58357635148E-02  0.89224530897E-02  0.51100000000E-03 0.  1.
         11    1    4    4    0    0  0.11046247123E-01  0.61759813574E-01  0.10278455777E+00  0.12042101388E+00  0.51100000000E-03 0. -1.
</event>
<event>
 8    1  0.1051655E+005  0.1043930E+01  0.7957747E-01            NaN
         13   -1    0    0    0    0  0.00000000000E+00  0.00000000000E+00  0.74505805969E-08  0.10566000000E+00  0.10566000000E+00 0. -1.
     999900   -1    0    0    0    0 -0.00000000000E+00 -0.00000000000E+00 -0.74505805969E-08  0.93827000000E+00  0.93827000000E+00 0. -1.
     999902    2    1    2    0    0 -0.20961215085E-01  0.32497920305E-02 -0.97034928342E-02  0.10206042319E+01  0.10203376434E+01 0.  0.
     999903    2    3    3    0    0 -0.72040544206E-02  0.97446498698E-01  0.84167356060E-01  0.13050647583E+00  0.20001947389E-01 0.  0.
         14    1    1    2    0    0  0.20961215085E-01 -0.32497920305E-02  0.97034928342E-02  0.23325768139E-01  0.00000000000E+00 0. -1.
     999901    1    3    3    0    0 -0.13757160664E-01 -0.94196706667E-01 -0.93870848894E-01  0.89009775603E+00  0.88000000000E+00 0. -1.
        -11    1    4    4    0    0 -0.93850673333E-02  0.60372047521E-01  0.41106021011E-01  0.73639864850E-01  0.51100000000E-03 0. -1.
         11    1    4    4    0    0  0.21810129127E-02  0.37074451177E-01  0.43061335049E-01  0.56866610982E-01  0.51100000000E-03 0.  1.
</event>
<event>
 8    1  0.1051655E+005  0.1043930E+01  0.7957747E-01            NaN
         13   -1    0    0    0    0  0.00000000000E+00  0.00000000000E+00  0.74505805969E-08  0.10566000000E+00  0.10566000000E+00 0.  1.
     999900   -1    0    0    0    0 -0.00000000000E+00 -0.00000000000E+00 -0.74505805969E-08  0.93827000000E+00  0.93827000000E+00 0. -1.
     999902    2    1    2    0    0  0.62918546861E-02 -0.22715109744E-01  0.60076523445E-02  0.10196060297E+01  0.10193158491E+01 0.  0.
     999903    2    3    3    0    0  0.83606101881E-01 -0.94037254041E-01 -0.35792192209E-01  0.13235659006E+00  0.20104737968E-01 0.  0.
         14    1    1    2    0    0 -0.62918546861E-02  0.22715109744E-01 -0.60076523445E-02  0.24323970333E-01  0.00000000000E+00 0. -1.
     999901    1    3    3    0    0 -0.77314247195E-01  0.71322144297E-01  0.41799844554E-01  0.88724943961E+00  0.88000000000E+00 0.  1.
        -11    1    4    4    0    0  0.77082732881E-01 -0.84055349047E-01 -0.38010229923E-01  0.12021683789E+00  0.51100000000E-03 0.  1.
         11    1    4    4    0    0  0.65233689994E-02 -0.99819049934E-02  0.22180377135E-02  0.12139752168E-01  0.51100000000E-03 0. -1.
</event>
<event>
 8    1  0.1051655E+005  0.1043930E+01  0.7957747E-01            NaN
         13   -1    0    0    0    0  0.00000000000E+00  0.00000000000E+00  0.74505805969E-08  0.10566000000E+00  0.10566000000E+00 0.  1.
     999900   -1    0    0    0    0 -0.00000000000E+00 -0.00000000000E+00 -0.74505805969E-08  0.93827000000E+00  0.93827000000E+00 0. -1.
     999902    2    1    2    0    0 -0.27443461718E-02  0.88159884121E-02 -0.21829699340E-01  0.10202279144E+01  0.10199525521E+01 0.  0.
     999903    2    3    3    0    0  0.41094739987E-01  0.48440781635E-02  0.11944688999E+00  0.12787332333E+00  0.19281715287E-01 0.  0.
         14    1    1    2    0    0  0.27443461718E-02 -0.88159884121E-02  0.21829699340E-01  0.23702085581E-01  0.00000000000E+00 0.  1.
     999901    1    3    3    0    0 -0.43839086159E-01  0.39719102486E-02 -0.14127658933E+00  0.89235459109E+00  0.88000000000E+00 0. -1.
        -11    1    4    4    0    0  0.35423811947E-01 -0.10161668669E-02  0.78658274117E-01  0.86274354567E-01  0.51100000000E-03 0.  1.
         11    1    4    4    0    0  0.56709280402E-02  0.58602450304E-02  0.40788615869E-01  0.41598968763E-01  0.51100000000E-03 0. -1.
</event>
<event>
 8    1  0.1051655E+005  0.1043930E+01  0.7957747E-01            NaN
         13   -1    0    0    0    0  0.00000000000E+00  0.00000000000E+00  0.74505805969E-08  0.10566000000E+00  0.10566000000E+00 0.  1.
     999900   -1    0    0    0    0 -0.00000000000E+00 -0.00000000000E+00 -0.74505805969E-08  0.93827000000E+00  0.93827000000E+00 0.  1.
     999902    2    1    2    0    0 -0.19816393864E-01  0.56146336276E-02 -0.20759543787E-02  0.10232291990E+01  0.10230197801E+01 0.  0.
     999903    2    3    3    0    0 -0.51361905167E-01 -0.11711959495E+00  0.32208897781E-01  0.13349088844E+00  0.20672672223E-01 0.  0.
         14    1    1    2    0    0  0.19816393864E-01 -0.56146336276E-02  0.20759543787E-02  0.20700801026E-01  0.00000000000E+00 0.  1.
     999901    1    3    3    0    0  0.31545511303E-01  0.12273422857E+00 -0.34284852159E-01  0.88973831054E+00  0.88000000000E+00 0.  1.
        -11    1    4    4    0    0 -0.30310699553E-01 -0.49406383643E-01  0.77596639657E-02  0.58482499587E-01  0.51100000000E-03 0. -1.
         11    1    4    4    0    0 -0.21051205613E-01 -0.67713211304E-01  0.24449233815E-01  0.75008388851E-01  0.51100000000E-03 0.  1.
</event>
<event>
 8    1  0.1051655E+005  0.1043930E+01  0.7957747E-01            NaN
         13   -1    0    0    0    0  0.00000000000E+00  0.00000000000E+00  0.74505805969E-08  0.10566000000E+00  0.10566000000E+00 0. -1.
     999900   -1    0    0    0    0 -0.00000000000E+00 -0.00000000000E+00 -0.74505805969E-08  0.93827000000E+00  0.93827000000E+00 0. -1.
     999902    2    1    2    0    0  0.15154318234E-01 -0.64653457395E-03  0.19075180240E-01  0.10195592415E+01  0.10192679300E+01 0.  0.
     999903    2    3    3    0    0  0.13379882497E-02 -0.10896249336E+00 -0.65524675834E-01  0.12878408832E+00  0.20426529037E-01 0.  0.
         14    1    1    2    0    0 -0.15154318234E-01  0.64653457395E-03 -0.19075180240E-01  0.24370758488E-01  0.00000000000E+00 0.  1.
     999901    1    3    3    0    0  0.13816329985E-01  0.10831595879E+00  0.84599856073E-01  0.89077515320E+00  0.88000000000E+00 0.  1.
        -11    1    4    4    0    0  0.15042134634E-02 -0.34689505212E-01 -0.32267954740E-01  0.47403654438E-01  0.51100000000E-03 0.  1.
         11    1    4    4    0    0 -0.16622521375E-03 -0.74272988149E-01 -0.33256721094E-01  0.81380433879E-01  0.51100000000E-03 0. -1.
</event>
<event>
 8    1  0.1051655E+005  0.1043930E+01  0.7957747E-01            NaN
         13   -1    0    0    0    0  0.00000000000E+00  0.00000000000E+00  0.74505805969E-08  0.10566000000E+00  0.10566000000E+00 0.  1.
     999900   -1    0    0    0    0 -0.00000000000E+00 -0.00000000000E+00 -0.74505805969E-08  0.93827000000E+00  0.93827000000E+00 0.  1.
     999902    2    1    2    0    0 -0.12779028879E-01  0.10489698545E-01 -0.17616466295E-01  0.10197705869E+01  0.10194843661E+01 0.  0.
     999903    2    3    3    0    0 -0.10084808462E+00  0.76775278233E-02 -0.83709215493E-01  0.13290401390E+00  0.20663096256E-01 0.  0.
         14    1    1    2    0    0  0.12779028879E-01 -0.10489698545E-01  0.17616466295E-01  0.24159413059E-01  0.00000000000E+00 0.  1.
     999901    1    3    3    0    0  0.88069055741E-01  0.28121707218E-02  0.66092749198E-01  0.88686657304E+00  0.88000000000E+00 0. -1.
        -11    1    4    4    0    0 -0.86703341552E-01  0.12450805712E-01 -0.76593389991E-01  0.11635849995E+00  0.51100000000E-03 0. -1.
         11    1    4    4    0    0 -0.14144743068E-01 -0.47732778889E-02 -0.71158255014E-02  0.16545513949E-01  0.51100000000E-03 0.  1.
</event>
<event>
 8    1  0.1051655E+005  0.1043930E+01  0.7957747E-01            NaN
         13   -1    0    0    0    0  0.00000000000E+00  0.00000000000E+00  0.74505805969E-08  0.10566000000E+00  0.10566000000E+00 0. -1.
     999900   -1    0    0    0    0 -0.00000000000E+00 -0.00000000000E+00 -0.74505805969E-08  0.93827000000E+00  0.93827000000E+00 0.  1.
     999902    2    1    2    0    0  0.95912593151E-03 -0.58904781741E-02  0.23072298055E-01  0.10200983279E+01  0.10198199106E+01 0.  0.
     999903    2    3    3    0    0  0.33657865021E-01  0.11857025503E+00 -0.32365578952E-01  0.12901301224E+00  0.20126335233E-01 0.  0.
         14    1    1    2    0    0 -0.95912593151E-03  0.58904781741E-02 -0.23072298055E-01  0.23831672061E-01  0.00000000000E+00 0.  1.
     999901    1    3    3    0    0 -0.32698739089E-01 -0.12446073321E+00  0.55437877007E-01  0.89108531570E+00  0.88000000000E+00 0.  1.
        -11    1    4    4    0    0  0.25056255639E-01  0.69674733841E-01 -0.10588844976E-01  0.74798190095E-01  0.51100000000E-03 0. -1.
         11    1    4    4    0    0  0.86016093814E-02  0.48895521192E-01 -0.21776733976E-01  0.54214822145E-01  0.51100000000E-03 0.  1.
</event>
<event>
 8    1  0.1051655E+005  0.1043930E+01  0.7957747E-01            NaN
         13   -1    0    0    0    0  0.00000000000E+00  0.00000000000E+00  0.74505805969E-08  0.10566000000E+00  0.10566000000E+00 0.  1.
     999900   -1    0    0    0    0 -0.00000000000E+00 -0.00000000000E+00 -0.74505805969E-08  0.93827000000E+00  0.93827000000E+00 0.  1.
     999902    2    1    2    0    0  0.22445172565E-01 -0.74689570630E-02  0.41785436308E-02  0.10199085238E+01  0.10196256007E+01 0.  0.
     999903    2    3    3    0    0  0.22523395469E-01  0.12130232711E+00  0.35720426625E-01  0.12997766126E+00  0.19916968708E-01 0.  0.
         14    1    1    2    0    0 -0.22445172565E-01  0.74689570630E-02 -0.41785436308E-02  0.24021476181E-01  0.00000000000E+00 0. -1.
     999901    1    3    3    0    0 -0.78222904399E-04 -0.12877128418E+00 -0.31541882994E-01  0.88993086256E+00  0.88000000000E+00 0.  1.
        -11    1    4    4    0    0  0.72264880614E-02  0.40276492210E-01  0.21750370652E-01  0.46343906816E-01  0.51100000000E-03 0.  1.
         11    1    4    4    0    0  0.15296907408E-01  0.81025834902E-01  0.13970055972E-01  0.83633754446E-01  0.51100000000E-03 0. -1.
</event>
<event>
 8    1  0.1051655E+005  0.1043930E+01  0.7957747E-01            NaN
         13   -1    0    0    0    0  0.00000000000E+00  0.00000000000E+00  0.74505805969E-08  0.10566000000E+00  0.10566000000E+00 0.  1.
     999900   -1    0    0    0    0 -0.00000000000E+00 -0.00000000000E+00 -0.74505805969E-08  0.93827000000E+00  0.93827000000E+00 0.  1.
     999902    2    1    2    0    0  0.15340895929E-01 -0.17808717822E-01  0.47621753695E-02  0.10199472597E+01  0.10196652592E+01 0.  0.
     999903    2    3    3    0    0  0.24277137176E-01 -0.89345208984E-01 -0.91617776976E-01  0.13175447590E+00  0.19836307690E-01 0.  0.
         14    1    1    2    0    0 -0.15340895929E-01  0.17808717822E-01 -0.47621753695E-02  0.23982740307E-01  0.00000000000E+00 0. -1.
     999901    1    3    3    0    0 -0.89362412471E-02  0.71536491162E-01  0.96379952345E-01  0.88819278380E+00  0.88000000000E+00 0. -1.
        -11    1    4    4    0    0 -0.10566154217E-02 -0.20033939773E-01 -0.27162517081E-01  0.33771861574E-01  0.51100000000E-03 0. -1.
         11    1    4    4    0    0  0.25333752598E-01 -0.69311269211E-01 -0.64455259895E-01  0.97982614322E-01  0.51100000000E-03 0.  1.
</event>
<event>
 8    1  0.1051655E+005  0.1043930E+01  0.7957747E-01            NaN
         13   -1    0    0    0    0  0.00000000000E+00  0.00000000000E+00  0.74505805969E-08  0.10566000000E+00  0.10566000000E+00 0. -1.
     999900   -1    0    0    0    0 -0.00000000000E+00 -0.00000000000E+00 -0.74505805969E-08  0.93827000000E+00  0.93827000000E+00 0. -1.
     999902    2    1    2    0    0 -0.12448618925E-01 -0.19955836326E-01  0.20728374022E-02  0.10203185585E+01  0.10200453228E+01 0.  0.
     999903    2    3    3    0    0 -0.12170228192E+00  0.39069466307E-01  0.22484374965E-01  0.13136581501E+00  0.20336214300E-01 0.  0.
         14    1    1    2    0    0  0.12448618925E-01  0.19955836326E-01 -0.20728374022E-02  0.23611441538E-01  0.00000000000E+00 0.  1.
     999901    1    3    3    0    0  0.10925366300E+00 -0.59025302632E-01 -0.20411537563E-01  0.88895274345E+00  0.88000000000E+00 0.  1.
        -11    1    4    4    0    0 -0.51750502725E-01  0.14111412155E-01  0.19354794009E-01  0.57027323780E-01  0.51100000000E-03 0. -1.
         11    1    4    4    0    0 -0.69951779199E-01  0.24958054151E-01  0.31295809559E-02  0.74338491228E-01  0.51100000000E-03 0.  1.
</event>
<event>
 8    1  0.1051655E+005  0.1043930E+01  0.7957747E-01            NaN
         13   -1    0    0    0    0  0.00000000000E+00  0.00000000000E+00  0.74505805969E-08  0.10566000000E+00  0.10566000000E+00 0. -1.
     999900   -1    0    0    0    0 -0.00000000000E+00 -0.00000000000E+00 -0.74505805969E-08  0.93827000000E+00  0.93827000000E+00 0.  1.
     999902    2    1    2    0    0 -0.21425010742E-01 -0.46146742459E-02 -0.10122617282E-01  0.10197888798E+01  0.10195030974E+01 0.  0.
     999903    2    3    3    0    0 -0.10898343311E+00  0.70785139753E-01  0.13108498606E-01  0.13193118061E+00  0.18603198036E-01 0.  0.
         14    1    1    2    0    0  0.21425010742E-01  0.46146742459E-02  0.10122617282E-01  0.24141120197E-01  0.00000000000E+00 0. -1.
     999901    1    3    3    0    0  0.87558422371E-01 -0.75399813999E-01 -0.23231115888E-01  0.88785769920E+00  0.88000000000E+00 0. -1.
        -11    1    4    4    0    0 -0.37322969304E-01  0.14199703426E-01  0.53479668745E-02  0.40292648035E-01  0.51100000000E-03 0.  1.
         11    1    4    4    0    0 -0.71660463810E-01  0.56585436328E-01  0.77605317312E-02  0.91638532570E-01  0.51100000000E-03 0. -1.
</event>
<event>
 8    1  0.1051655E+005  0.1043930E+01  0.7957747E-01            NaN
         13   -1    0    0    0    0  0.00000000000E+00  0.00000000000E+00  0.74505805969E-08  0.10566000000E+00  0.10566000000E+00 0.  1.
     999900   -1    0    0    0    0 -0.00000000000E+00 -0.00000000000E+00 -0.74505805969E-08  0.93827000000E+00  0.93827000000E+00 0. -1.
     999902    2    1    2    0    0  0.88946484980E-02 -0.11389166192E-01  0.18432828502E-01  0.10205078514E+01  0.10202390297E+01 0.  0.
     999903    2    3    3    0    0  0.10316877718E+00 -0.64142327460E-01  0.51072050510E-01  0.13330109637E+00  0.20069708342E-01 0.  0.
         14    1    1    2    0    0 -0.88946484980E-02  0.11389166192E-01 -0.18432828502E-01  0.23422148600E-01  0.00000000000E+00 0. -1.
     999901    1    3    3    0    0 -0.94274128681E-01  0.52753161268E-01 -0.32639222008E-01  0.88720675503E+00  0.88000000000E+00 0. -1.
        -11    1    4    4    0    0  0.67620088881E-01 -0.31966408348E-01  0.25968462347E-01  0.79176700112E-01  0.51100000000E-03 0.  1.
         11    1    4    4    0    0  0.35548688299E-01 -0.32175919111E-01  0.25103588163E-01  0.54124396256E-01  0.51100000000E-03 0. -1.
</event>
<event>
 8    1  0.1051655E+005  0.1043930E+01  0.7957747E-01            NaN
         13   -1    0    0    0    0  0.00000000000E+00  0.00000000000E+00  0.74505805969E-08  0.10566000000E+00  0.10566000000E+00 0.  1.
     999900   -1    0    0    0    0 -0.00000000000E+00 -0.00000000000E+00 -0.74505805969E-08  0.93827000000E+00  0.93827000000E+00 0.  1.
     999902    2    1    2    0    0  0.23630126591E-01  0.60314818394E-02  0.18295544959E-02  0.10194737344E+01  0.10191803502E+01 0.  0.
     999903    2    3    3    0    0  0.11709994428E-01  0.77279822259E-01  0.10271326097E+00  0.13076909407E+00  0.21005882234E-01 0.  0.
         14    1    1    2    0    0 -0.23630126591E-01 -0.60314818394E-02 -0.18295544959E-02  0.24456265568E-01  0.00000000000E+00 0.  1.
     999901    1    3    3    0    0  0.11920132162E-01 -0.71248340420E-01 -0.10088370647E+00  0.88870464036E+00  0.88000000000E+00 0.  1.
        -11    1    4    4    0    0  0.11043942414E-01  0.24881241621E-01  0.24531054278E-01  0.36648036695E-01  0.51100000000E-03 0.  1.
         11    1    4    4    0    0  0.66605201418E-03  0.52398580638E-01  0.78182206689E-01  0.94121057378E-01  0.51100000000E-03 0. -1.
</event>
<event>
 8    1  0.1051655E+005  0.1043930E+01  0.7957747E-01            NaN
         13   -1    0    0    0    0  0.00000000000E+00  0.00000000000E+00  0.74505805969E-08  0.10566000000E+00  0.10566000000E+00 0.  1.
     999900   -1    0    0    0    0 -0.00000000000E+00 -0.00000000000E+00 -0.74505805969E-08  0.93827000000E+00  0.93827000000E+00 0. -1.
     999902    2    1    2    0    0  0.22108897851E-01 -0.47973787104E-02  0.52493653036E-02  0.10207055723E+01  0.10204413218E+01 0.  0.
     999903    2    3    3    0    0  0.11468684641E+00  0.60834585630E-01  0.22057684545E-01  0.13325937622E+00  0.20435272333E-01 0.  0.
         14    1    1    2    0    0 -0.22108897851E-01  0.47973787104E-02 -0.52493653036E-02  0.23224427717E-01  0.00000000000E+00 0. -1.
     999901    1    3    3    0    0 -0.92577948562E-01 -0.65631964340E-01 -0.16808319241E-01  0.88744619606E+00  0.88000000000E+00 0.  1.
        -11    1    4    4    0    0  0.82690748733E-01  0.53808550401E-01  0.16353966263E-01  0.10000416669E+00  0.51100000000E-03 0. -1.
         11    1    4    4    0    0  0.31996097680E-01  0.70260352287E-02  0.57037182824E-02  0.33255209532E-01  0.51100000000E-03 0.  1.
</event>
<event>
 8    1  0.1051655E+005  0.1043930E+01  0.7957747E-01            NaN
         13   -1    0    0    0    0  0.00000000000E+00  0.00000000000E+00  0.74505805969E-08  0.10566000000E+00  0.10566000000E+00 0.  1.
     999900   -1    0    0    0    0 -0.00000000000E+00 -0.00000000000E+00 -0.74505805969E-08  0.93827000000E+00  0.93827000000E+00 0.  1.
     999902    2    1    2    0    0  0.19931307302E-01  0.11274609909E-01 -0.54987093240E-02  0.10203798483E+01  0.10201080459E+01 0.  0.
     999903    2    3    3    0    0 -0.23541301591E-01  0.12671610721E+00  0.16623773533E-01  0.13150077260E+00  0.20123087271E-01 0.  0.
         14    1    1    2    0    0 -0.19931307302E-01 -0.11274609909E-01  0.54987093240E-02  0.23550151668E-01  0.00000000000E+00 0.  1.
     999901    1    3    3    0    0  0.43472608893E-01 -0.11544149730E+00 -0.22122482857E-01  0.88887907573E+00  0.88000000000E+00 0. -1.
        -11    1    4    4    0    0 -0.19358592947E-01  0.51170227733E-01  0.48453465406E-02  0.54926185297E-01  0.51100000000E-03 0.  1.
         11    1    4    4    0    0 -0.41827086445E-02  0.75545879477E-01  0.11778426993E-01  0.76574587305E-01  0.51100000000E-03 0. -1.
</event>
<event>
 8    1  0.1051655E+005  0.1043930E+01  0.7957747E-01            NaN
         13   -1    0    0    0    0  0.00000000000E+00  0.00000000000E+00  0.74505805969E-08  0.10566000000E+00  0.10566000000E+00 0.  1.
     999900   -1    0    0    0    0 -0.00000000000E+00 -0.00000000000E+00 -0.74505805969E-08  0.93827000000E+00  0.93827000000E+00 0. -1.
     999902    2    1    2    0    0 -0.21446484353E-01 -0.84006416142E-02  0.62676948922E-02  0.10200593806E+01  0.10197800417E+01 0.  0.
     999903    2    3    3    0    0 -0.32616998048E-01  0.11221068830E+00 -0.52760877542E-01  0.12980309973E+00  0.20249132604E-01 0.  0.
         14    1    1    2    0    0  0.21446484353E-01  0.84006416142E-02 -0.62676948922E-02  0.23870619387E-01  0.00000000000E+00 0.  1.
     999901    1    3    3    0    0  0.11170513695E-01 -0.12061132991E+00  0.59028572434E-01  0.89025628088E+00  0.88000000000E+00 0.  1.
        -11    1    4    4    0    0 -0.76839721335E-02  0.27489518762E-01 -0.22829358191E-01  0.36553492117E-01  0.51100000000E-03 0.  1.
         11    1    4    4    0    0 -0.24933025915E-01  0.84721169539E-01 -0.29931519351E-01  0.93249607618E-01  0.51100000000E-03 0. -1.
</event>
<event>
 8    1  0.1051655E+005  0.1043930E+01  0.7957747E-01            NaN
         13   -1    0    0    0    0  0.00000000000E+00  0.00000000000E+00  0.74505805969E-08  0.10566000000E+00  0.10566000000E+00 0. -1.
     999900   -1    0    0    0    0 -0.00000000000E+00 -0.00000000000E+00 -0.74505805969E-08  0.93827000000E+00  0.93827000000E+00 0. -1.
     999902    2    1    2    0    0 -0.14551366316E-01 -0.54265863351E-03  0.18236555606E-01  0.10205931472E+01  0.10203263024E+01 0.  0.
     999903    2    3    3    0    0 -0.11088166390E+00 -0.64581586636E-01 -0.23881483987E-01  0.13202438798E+00  0.19864264999E-01 0.  0.
         14    1    1    2    0    0  0.14551366316E-01  0.54265863351E-03 -0.18236555606E-01  0.23336852838E-01  0.00000000000E+00 0.  1.
     999901    1    3    3    0    0  0.96330297580E-01  0.64038928002E-01  0.42118039592E-01  0.88856875918E+00  0.88000000000E+00 0.  1.
        -11    1    4    4    0    0 -0.45579211523E-01 -0.26459467838E-01 -0.19784826927E-01  0.56296256171E-01  0.51100000000E-03 0.  1.
         11    1    4    4    0    0 -0.65302452372E-01 -0.38122118798E-01 -0.40966570592E-02  0.75728131811E-01  0.51100000000E-03 0. -1.
</event>
<event>
 8    1  0.1051655E+005  0.1043930E+01  0.7957747E-01            NaN
         13   -1    0    0    0    0  0.00000000000E+00  0.00000000000E+00  0.74505805969E-08  0.10566000000E+00  0.10566000000E+00 0. -1.
     999900   -1    0    0    0    0 -0.00000000000E+00 -0.00000000000E+00 -0.74505805969E-08  0.93827000000E+00  0.93827000000E+00 0.  1.
     999902    2    1    2    0    0  0.34103365714E-02 -0.20586628527E-01  0.75651314364E-02  0.10217338093E+01  0.10214926853E+01 0.  0.
     999903    2    3    3    0    0  0.91702236430E-01  0.75992653573E-01 -0.51517041489E-01  0.13009839023E+00  0.93489044232E-02 0.  0.
         14    1    1    2    0    0 -0.34103365714E-02  0.20586628527E-01 -0.75651314364E-02  0.22196190738E-01  0.00000000000E+00 0.  1.
     999901    1    3    3    0    0 -0.88291899858E-01 -0.96579282099E-01  0.59082172925E-01  0.89163541903E+00  0.88000000000E+00 0. -1.
        -11    1    4    4    0    0  0.56910672936E-01  0.52579061073E-01 -0.31788978362E-01  0.83750717153E-01  0.51100000000E-03 0.  1.
         11    1    4    4    0    0  0.34791563494E-01  0.23413592500E-01 -0.19728063126E-01  0.46347673079E-01  0.51100000000E-03 0. -1.
</event>
<event>
 8    1  0.1051655E+005  0.1043930E+01  0.7957747E-01            NaN
         13   -1    0    0    0    0  0.00000000000E+00  0.00000000000E+00  0.74505805969E-08  0.10566000000E+00  0.10566000000E+00 0.  1.
     999900   -1    0    0    0    0 -0.00000000000E+00 -0.00000000000E+00 -0.74505805969E-08  0.93827000000E+00  0.93827000000E+00 0.  1.
     999902    2    1    2    0    0  0.15183815565E-01 -0.12895966393E-01  0.13056184681E-01  0.10201115583E+01  0.10198334537E+01 0.  0.
     999903    2    3    3    0    0  0.63382816578E-01  0.62676095804E-03  0.11501732722E+00  0.13281111180E+00  0.19799787602E-01 0.  0.
         14    1    1    2    0    0 -0.15183815565E-01  0.12895966393E-01 -0.13056184681E-01  0.23818441652E-01  0.00000000000E+00 0. -1.
     999901    1    3    3    0    0 -0.48199001013E-01 -0.13522727351E-01 -0.10196114254E+00  0.88730044655E+00  0.88000000000E+00 0.  1.
        -11    1    4    4    0    0  0.36840502331E-01  0.61722011738E-02  0.50418737962E-01  0.62750529384E-01  0.51100000000E-03 0. -1.
         11    1    4    4    0    0  0.26542314247E-01 -0.55454402158E-02  0.64598589263E-01  0.70060582416E-01  0.51100000000E-03 0.  1.
</event>
<event>
 8    1  0.1051655E+005  0.1043930E+01  0.7957747E-01            NaN
         13   -1    0    0    0    0  0.00000000000E+00  0.00000000000E+00  0.74505805969E-08  0.10566000000E+00  0.10566000000E+00 0.  1.
     999900   -1    0    0    0    0 -0.00000000000E+00 -0.00000000000E+00 -0.74505805969E-08  0.93827000000E+00  0.93827000000E+00 0.  1.
     999902    2    1    2    0    0 -0.16720719716E-01 -0.10223202622E-01  0.89873940165E-02  0.10223691653E+01  0.10221417909E+01 0.  0.
     999903    2    3    3    0    0  0.34437424484E-01 -0.12156727662E+00 -0.35089356339E-01  0.13278644381E+00  0.20891093373E-01 0.  0.
         14    1    1    2    0    0  0.16720719716E-01  0.10223202622E-01 -0.89873940165E-02  0.21560834652E-01  0.00000000000E+00 0. -1.
     999901    1    3    3    0    0 -0.51158144200E-01  0.11134407400E+00  0.44076750356E-01  0.88958272154E+00  0.88000000000E+00 0. -1.
        -11    1    4    4    0    0  0.10035276707E-01 -0.30939665352E-01 -0.18660719399E-01  0.37502709771E-01  0.51100000000E-03 0. -1.
         11    1    4    4    0    0  0.24402147777E-01 -0.90627611268E-01 -0.16428636940E-01  0.95283734042E-01  0.51100000000E-03 0.  1.
</event>
<event>
 8    1  0.1051655E+005  0.1043930E+01  0.7957747E-01            NaN
         13   -1    0    0    0    0  0.00000000000E+00  0.00000000000E+00  0.74505805969E-08  0.10566000000E+00  0.10566000000E+00 0. -1.
     999900   -1    0    0    0    0 -0.00000000000E+00 -0.00000000000E+00 -0.74505805969E-08  0.93827000000E+00  0.93827000000E+00 0.  1.
     999902    2    1    2    0    0 -0.81260659722E-02  0.18850469906E-01 -0.78999642222E-02  0.10219349415E+01  0.10216982148E+01 0.  0.
     999903    2    3    3    0    0  0.11621382576E+00 -0.54075833948E-01 -0.11690571563E-01  0.13019898104E+00  0.19627941420E-01 0.  0.
         14    1    1    2    0    0  0.81260659722E-02 -0.18850469906E-01  0.78999642222E-02  0.21995058504E-01  0.00000000000E+00 0. -1.
     999901    1    3    3    0    0 -0.12433989173E+00  0.72926303854E-01  0.37906073412E-02  0.89173596046E+00  0.88000000000E+00 0. -1.
        -11    1    4    4    0    0  0.39349682995E-01 -0.19503760626E-01  0.52401463746E-02  0.44232504851E-01  0.51100000000E-03 0.  1.
         11    1    4    4    0    0  0.76864142767E-01 -0.34572073322E-01 -0.16930717938E-01  0.85966476187E-01  0.51100000000E-03 0. -1.
</event>
<event>
 8    1  0.1051655E+005  0.1043930E+01  0.7957747E-01            NaN
         13   -1    0    0    0    0  0.00000000000E+00  0.00000000000E+00  0.74505805969E-08  0.10566000000E+00  0.10566000000E+00 0.  1.
     999900   -1    0    0    0    0 -0.00000000000E+00 -0.00000000000E+00 -0.74505805969E-08  0.93827000000E+00  0.93827000000E+00 0. -1.
     999902    2    1    2    0    0  0.17567540537E-01  0.11506340567E-01 -0.96249762075E-02  0.10208290364E+01  0.10205676200E+01 0.  0.
     999903    2    3    3    0    0 -0.11015503670E+00 -0.11129700306E-01  0.62272941827E-01  0.12841951283E+00  0.18858675777E-01 0.  0.
         14    1    1    2    0    0 -0.17567540537E-01 -0.11506340567E-01  0.96249762075E-02  0.23100963633E-01  0.00000000000E+00 0.  1.
     999901    1    3    3    0    0  0.12772257724E+00  0.22636040872E-01 -0.71897918035E-01  0.89240952354E+00  0.88000000000E+00 0. -1.
        -11    1    4    4    0    0 -0.36853213700E-01 -0.86649768934E-02  0.29916285240E-01  0.48254392838E-01  0.51100000000E-03 0.  1.
         11    1    4    4    0    0 -0.73301823002E-01 -0.24647234124E-02  0.32356656587E-01  0.80165119992E-01  0.51100000000E-03 0. -1.
</event>
<event>
 8    1  0.1051655E+005  0.1043930E+01  0.7957747E-01            NaN
         13   -1    0    0    0    0  0.00000000000E+00  0.00000000000E+00  0.74505805969E-08  0.10566000000E+00  0.10566000000E+00 0. -1.
     999900   -1    0    0    0    0 -0.00000000000E+00 -0.00000000000E+00 -0.74505805969E-08  0.93827000000E+00  0.93827000000E+00 0.  1.
     999902    2    1    2    0    0  0.21730220270E-01  0.25343843702E-02 -0.93473150573E-02  0.10201392901E+01  0.10198618403E+01 0.  0.
     999903    2    3    3    0    0  0.48660872636E-01  0.11437044976E+00 -0.40260143311E-01  0.13211442083E+00  0.19617868075E-01 0.  0.
         14    1    1    2    0    0 -0.21730220270E-01 -0.25343843702E-02  0.93473150573E-02  0.23790709865E-01  0.00000000000E+00 0.  1.
     999901    1    3    3    0    0 -0.26930652366E-01 -0.11183606539E+00  0.30912828254E-01  0.88802486931E+00  0.88000000000E+00 0. -1.
        -11    1    4    4    0    0  0.30666424700E-01  0.91184055345E-01 -0.34481274660E-01  0.10219677576E+00  0.51100000000E-03 0.  1.
         11    1    4    4    0    0  0.17994447936E-01  0.23186394412E-01 -0.57788686510E-02  0.29917645065E-01  0.51100000000E-03 0. -1.
</event>
<event>
 8    1  0.1051655E+005  0.1043930E+01  0.7957747E-01            NaN
         13   -1    0    0    0    0  0.00000000000E+00  0.00000000000E+00  0.74505805969E-08  0.10566000000E+00  0.10566000000E+00 0.  1.
     999900   -1    0    0    0    0 -0.00000000000E+00 -0.00000000000E+00 -0.74505805969E-08  0.93827000000E+00  0.93827000000E+00 0. -1.
     999902    2    1    2    0    0 -0.15381525343E-01  0.27969884686E-02 -0.16056007633E-01  0.10215199610E+01  0.10212741164E+01 0.  0.
     999903    2    3    3    0    0  0.33146165457E-01 -0.12469372583E+00 -0.88984196387E-02  0.13098077037E+00  0.20726475501E-01 0.  0.
         14    1    1    2    0    0  0.15381525343E-01 -0.27969884686E-02  0.16056007633E-01  0.22410038989E-01  0.00000000000E+00 0.  1.
     999901    1    3    3    0    0 -0.48527690800E-01  0.12749071430E+00 -0.71575879943E-02  0.89053919064E+00  0.88000000000E+00 0. -1.
        -11    1    4    4    0    0  0.25339220490E-01 -0.58473122925E-01 -0.85363654525E-02  0.64298622503E-01  0.51100000000E-03 0.  1.
         11    1    4    4    0    0  0.78069449667E-02 -0.66220602910E-01 -0.36205418622E-03  0.66682147864E-01  0.51100000000E-03 0. -1.
</event>
<event>
 8    1  0.1051655E+005  0.1043930E+01  0.7957747E-01            NaN
         13   -1    0    0    0    0  0.00000000000E+00  0.00000000000E+00  0.74505805969E-08  0.10566000000E+00  0.10566000000E+00 0.  1.
     999900   -1    0    0    0    0 -0.00000000000E+00 -0.00000000000E+00 -0.74505805969E-08  0.93827000000E+00  0.93827000000E+00 0. -1.
     999902    2    1    2    0    0  0.23653849917E-01  0.67126863908E-02  0.29266125715E-02  0.10191685413E+01  0.10188676979E+01 0.  0.
     999903    2    3    3    0    0  0.11959457584E+00 -0.50461191877E-01  0.13984463462E-01  0.13204073131E+00  0.19748292305E-01 0.  0.
         14    1    1    2    0    0 -0.23653849917E-01 -0.67126863908E-02 -0.29266125715E-02  0.24761458673E-01  0.00000000000E+00 0. -1.
     999901    1    3    3    0    0 -0.95940725926E-01  0.57173878268E-01 -0.11057850891E-01  0.88712781002E+00  0.88000000000E+00 0. -1.
        -11    1    4    4    0    0  0.49323224080E-01 -0.31297838894E-01  0.45766699396E-02  0.58596434890E-01  0.51100000000E-03 0. -1.
         11    1    4    4    0    0  0.70271351762E-01 -0.19163352982E-01  0.94077935224E-02  0.73444296416E-01  0.51100000000E-03 0.  1.
</event>
<event>
 8    1  0.1051655E+005  0.1043930E+01  0.7957747E-01            NaN
         13   -1    0    0    0    0  0.00000000000E+00  0.00000000000E+00  0.74505805969E-08  0.10566000000E+00  0.10566000000E+00 0. -1.
     999900   -1    0    0    0    0 -0.00000000000E+00 -0.00000000000E+00 -0.74505805969E-08  0.93827000000E+00  0.93827000000E+00 0. -1.
     999902    2    1    2    0    0  0.13910121093E-01 -0.16193669756E-01  0.10152651761E-01  0.10202909910E+01  0.10200171094E+01 0.  0.
     999903    2    3    3    0    0 -0.51144455811E-01 -0.10136082272E+00 -0.61881131763E-01  0.13086735296E+00  0.20179639751E-01 0.  0.
         14    1    1    2    0    0 -0.13910121093E-01  0.16193669756E-01 -0.10152651761E-01  0.23639009005E-01  0.00000000000E+00 0.  1.
     999901    1    3    3    0    0  0.65054576904E-01  0.85167152965E-01  0.72033783524E-01  0.88942363803E+00  0.88000000000E+00 0.  1.
        -11    1    4    4    0    0 -0.30176536413E-01 -0.69020069356E-01 -0.30931963744E-01  0.81433659047E-01  0.51100000000E-03 0. -1.
         11    1    4    4    0    0 -0.20967919398E-01 -0.32340753365E-01 -0.30949168019E-01  0.49433693916E-01  0.51100000000E-03 0.  1.
</event>
<event>
 8    1  0.1051655E+005  0.1043930E+01  0.7957747E-01            NaN
         13   -1    0    0    0    0  0.00000000000E+00  0.00000000000E+00  0.74505805969E-08  0.10566000000E+00  0.10566000000E+00 0.  1.
     999900   -1    0    0    0    0 -0.00000000000E+00 -0.00000000000E+00 -0.74505805969E-08  0.93827000000E+00  0.93827000000E+00 0.  1.
     999902    2    1    2    0    0  0.20279561048E-01 -0.32385044113E-02  0.12493146411E-01  0.10198919632E+01  0.10196086452E+01 0.  0.
     999903    2    3    3    0    0  0.44767120014E-02  0.12200485327E+00 -0.38529113261E-01  0.12942079595E+00  0.18974316392E-01 0.  0.
         14    1    1    2    0    0 -0.20279561048E-01  0.32385044113E-02 -0.12493146411E-01  0.24038036825E-01  0.00000000000E+00 0. -1.
     999901    1    3    3    0    0  0.15802849047E-01 -0.12524335768E+00  0.51022259672E-01  0.89047116723E+00  0.88000000000E+00 0. -1.
        -11    1    4    4    0    0  0.65795697805E-02  0.13767312901E-01 -0.56445076643E-02  0.16277322593E-01  0.51100000000E-03 0.  1.
         11    1    4    4    0    0 -0.21028577790E-02  0.10823754037E+00 -0.32884605597E-01  0.11314347335E+00  0.51100000000E-03 0. -1.
</event>
<event>
 8    1  0.1051655E+005  0.1043930E+01  0.7957747E-01            NaN
         13   -1    0    0    0    0  0.00000000000E+00  0.00000000000E+00  0.74505805969E-08  0.10566000000E+00  0.10566000000E+00 0. -1.
     999900   -1    0    0    0    0 -0.00000000000E+00 -0.00000000000E+00 -0.74505805969E-08  0.93827000000E+00  0.93827000000E+00 0.  1.
     999902    2    1    2    0    0  0.50749484499E-02  0.19515494132E-01  0.10138696184E-01  0.10213600471E+01  0.10211106419E+01 0.  0.
     999903    2    3    3    0    0 -0.14861647477E-01  0.10912081457E+00 -0.71351076323E-01  0.13284039942E+00  0.20673047386E-01 0.  0.
         14    1    1    2    0    0 -0.50749484499E-02 -0.19515494132E-01 -0.10138696184E-01  0.22569952886E-01  0.00000000000E+00 0.  1.
     999901    1    3    3    0    0  0.19936595927E-01 -0.89605320439E-01  0.81489772507E-01  0.88851964769E+00  0.88000000000E+00 0. -1.
        -11    1    4    4    0    0 -0.70123025904E-02  0.91329458603E-01 -0.65213578883E-01  0.11244249369E+00  0.51100000000E-03 0.  1.
         11    1    4    4    0    0 -0.78493448869E-02  0.17791355968E-01 -0.61374974393E-02  0.20397905730E-01  0.51100000000E-03 0. -1.
</event>
<event>
 8    1  0.1051655E+005  0.1043930E+01  0.7957747E-01            NaN
         13   -1    0    0    0    0  0.00000000000E+00  0.00000000000E+00  0.74505805969E-08  0.10566000000E+00  0.10566000000E+00 0. -1.
     999900   -1    0    0    0    0 -0.00000000000E+00 -0.00000000000E+00 -0.74505805969E-08  0.93827000000E+00  0.93827000000E+00 0.  1.
     999902    2    1    2    0    0 -0.79499621267E-02 -0.10683526122E-01 -0.20355710674E-01  0.10196052269E+01  0.10193150270E+01 0.  0.
     999903    2    3    3    0    0 -0.32975156676E-01  0.60597621399E-01 -0.11033777045E+00  0.13179667017E+00  0.20892726088E-01 0.  0.
         14    1    1    2    0    0  0.79499621267E-02  0.10683526122E-01  0.20355710674E-01  0.24324773077E-01  0.00000000000E+00 0. -1.
     999901    1    3    3    0    0  0.25025194550E-01 -0.71281147520E-01  0.89982059780E-01  0.88780855675E+00  0.88000000000E+00 0.  1.
        -11    1    4    4    0    0 -0.67781275715E-02  0.31981467587E-01 -0.58898883224E-01  0.67365398005E-01  0.51100000000E-03 0.  1.
         11    1    4    4    0    0 -0.26197029105E-01  0.28616153812E-01 -0.51438887230E-01  0.64431272170E-01  0.51100000000E-03 0. -1.
</event>
<event>
 8    1  0.1051655E+005  0.1043930E+01  0.7957747E-01            NaN
         13   -1    0    0    0    0  0.00000000000E+00  0.00000000000E+00  0.74505805969E-08  0.10566000000E+00  0.10566000000E+00 0.  1.
     999900   -1    0    0    0    0 -0.00000000000E+00 -0.00000000000E+00 -0.74505805969E-08  0.93827000000E+00  0.93827000000E+00 0. -1.
     999902    2    1    2    0    0  0.10710516576E-01 -0.18641047105E-01  0.86395543836E-02  0.10207600690E+01  0.10204970714E+01 0.  0.
     999903    2    3    3    0    0 -0.91491009891E-01  0.83868851369E-01 -0.26487346412E-01  0.12824265715E+00  0.18439372884E-01 0.  0.
         14    1    1    2    0    0 -0.10710516576E-01  0.18641047105E-01 -0.86395543836E-02  0.23169930997E-01  0.00000000000E+00 0. -1.
     999901    1    3    3    0    0  0.10220152647E+00 -0.10250989847E+00  0.35126900796E-01  0.89251741185E+00  0.88000000000E+00 0. -1.
        -11    1    4    4    0    0 -0.57383407549E-01  0.59599574332E-01 -0.10369428548E-01  0.83383157124E-01  0.51100000000E-03 0.  1.
         11    1    4    4    0    0 -0.34107602342E-01  0.24269277037E-01 -0.16117917865E-01  0.44859500028E-01  0.51100000000E-03 0. -1.
</event>
<event>
 8    1  0.1051655E+005  0.1043930E+01  0.7957747E-01            NaN
         13   -1    0    0    0    0  0.00000000000E+00  0.00000000000E+00  0.74505805969E-08  0.10566000000E+00  0.10566000000E+00 0.  1.
     999900   -1    0    0    0    0 -0.00000000000E+00 -0.00000000000E+00 -0.74505805969E-08  0.93827000000E+00  0.93827000000E+00 0. -1.
     999902    2    1    2    0    0  0.10982690823E-01 -0.22637024920E-01 -0.53870384252E-03  0.10187636614E+01  0.10184527742E+01 0.  0.
     999903    2    3    3    0    0 -0.10273118056E+00  0.55626057665E-01  0.45476171551E-01  0.12681449057E+00  0.19127966173E-01 0.  0.
         14    1    1    2    0    0 -0.10982690823E-01  0.22637024920E-01  0.53870384252E-03  0.25166338565E-01  0.00000000000E+00 0.  1.
     999901    1    3    3    0    0  0.11371387138E+00 -0.78263082585E-01 -0.46014875393E-01  0.89194917086E+00  0.88000000000E+00 0.  1.
        -11    1    4    4    0    0 -0.83777040532E-02  0.35696241015E-02 -0.15264504945E-02  0.92476653022E-02  0.51100000000E-03 0. -1.
         11    1    4    4    0    0 -0.94353476508E-01  0.52056433564E-01  0.47002622045E-01  0.11756682527E+00  0.51100000000E-03 0.  1.
</event>
<event>
 8    1  0.1051655E+005  0.1043930E+01  0.7957747E-01            NaN
         13   -1    0    0    0    0  0.00000000000E+00  0.00000000000E+00  0.74505805969E-08  0.10566000000E+00  0.10566000000E+00 0.  1.
     999900   -1    0    0    0    0 -0.00000000000E+00 -0.00000000000E+00 -0.74505805969E-08  0.93827000000E+00  0.93827000000E+00 0. -1.
     999902    2    1    2    0    0  0.12341128976E-01  0.29567910283E-02 -0.14572954119E-01  0.10246059976E+01  0.10244237567E+01 0.  0.
     999903    2    3    3    0    0 -0.11863569610E+00 -0.13468547255E-01  0.52867783635E-01  0.13220867937E+00  0.20695463273E-01 0.  0.
         14    1    1    2    0    0 -0.12341128976E-01 -0.29567910283E-02  0.14572954119E-01  0.19324002415E-01  0.00000000000E+00 0.  1.
     999901    1    3    3    0    0  0.13097682508E+00  0.16425338283E-01 -0.67440737754E-01  0.89239731821E+00  0.88000000000E+00 0. -1.
        -11    1    4    4    0    0 -0.38056945469E-01 -0.14017496797E-01  0.16179970793E-01  0.43667767182E-01  0.51100000000E-03 0. -1.
         11    1    4    4    0    0 -0.80578750633E-01  0.54894954149E-03  0.36687812843E-01  0.88540912189E-01  0.51100000000E-03 0.  1.
</event>
<event>
 8    1  0.1051655E+005  0.1043930E+01  0.7957747E-01            NaN
         13   -1    0    0    0    0  0.00000000000E+00  0.00000000000E+00  0.74505805969E-08  0.10566000000E+00  0.10566000000E+00 0.  1.
     999900   -1    0    0    0    0 -0.00000000000E+00 -0.00000000000E+00 -0.74505805969E-08  0.93827000000E+00  0.93827000000E+00 0. -1.
     999902    2    1    2    0    0 -0.21647611110E-01 -0.12105690054E-01 -0.84445822703E-02  0.10177292792E+01  0.10173919638E+01 0.  0.
     999903    2    3    3    0    0  0.37318158437E-01  0.57658473192E-01 -0.10550355951E+00  0.12769307463E+00  0.21386345167E-01 0.  0.
         14    1    1    2    0    0  0.21647611110E-01  0.12105690054E-01  0.84445822703E-02  0.26200720757E-01  0.00000000000E+00 0. -1.
     999901    1    3    3    0    0 -0.58965769547E-01 -0.69764163246E-01  0.97058977243E-01  0.89003620461E+00  0.88000000000E+00 0.  1.
        -11    1    4    4    0    0  0.28912495104E-01  0.32059668918E-01 -0.78222325962E-01  0.89346226245E-01  0.51100000000E-03 0.  1.
         11    1    4    4    0    0  0.84056633333E-02  0.25598804274E-01 -0.27281233551E-01  0.38346848389E-01  0.51100000000E-03 0. -1.
</event>
<event>
 8    1  0.1051655E+005  0.1043930E+01  0.7957747E-01            NaN
         13   -1    0    0    0    0  0.00000000000E+00  0.00000000000E+00  0.74505805969E-08  0.10566000000E+00  0.10566000000E+00 0. -1.
     999900   -1    0    0    0    0 -0.00000000000E+00 -0.00000000000E+00 -0.74505805969E-08  0.93827000000E+00  0.93827000000E+00 0.  1.
     999902    2    1    2    0    0 -0.22626886518E-01 -0.18127692002E-02  0.68553323915E-02  0.10202180261E+01  0.10199424312E+01 0.  0.
     999903    2    3    3    0    0  0.98409953391E-01  0.19141039906E-01  0.78103780011E-01  0.12883409082E+00  0.21145310816E-01 0.  0.
         14    1    1    2    0    0  0.22626886518E-01  0.18127692002E-02 -0.68553323915E-02  0.23711973935E-01  0.00000000000E+00 0.  1.
     999901    1    3    3    0    0 -0.12103683991E+00 -0.20953809106E-01 -0.71248447619E-01  0.89138393525E+00  0.88000000000E+00 0.  1.
        -11    1    4    4    0    0  0.58122630570E-01  0.88282811593E-03  0.41613992569E-01  0.71491293654E-01  0.51100000000E-03 0.  1.
         11    1    4    4    0    0  0.40287322821E-01  0.18258211790E-01  0.36489787442E-01  0.57342797163E-01  0.51100000000E-03 0. -1.
</event>
<event>
 8    1  0.1051655E+005  0.1043930E+01  0.7957747E-01            NaN
         13   -1    0    0    0    0  0.00000000000E+00  0.00000000000E+00  0.74505805969E-08  0.10566000000E+00  0.10566000000E+00 0. -1.
     999900   -1    0    0    0    0 -0.00000000000E+00 -0.00000000000E+00 -0.74505805969E-08  0.93827000000E+00  0.93827000000E+00 0.  1.
     999902    2    1    2    0    0 -0.11191010833E-01  0.15138987447E-01  0.14278767859E-01  0.10203013971E+01  0.10200277594E+01 0.  0.
     999903    2    3    3    0    0 -0.77288403561E-01 -0.10237218707E+00 -0.83164189906E-02  0.12974635446E+00  0.17646293106E-01 0.  0.
         14    1    1    2    0    0  0.11191010833E-01 -0.15138987447E-01 -0.14278767859E-01  0.23628602920E-01  0.00000000000E+00 0.  1.
     999901    1    3    3    0    0  0.66097392727E-01  0.11751117452E+00  0.22595186849E-01  0.89055504262E+00  0.88000000000E+00 0.  1.
        -11    1    4    4    0    0 -0.42889605313E-01 -0.61501671288E-01 -0.13073348400E-01  0.76112728072E-01  0.51100000000E-03 0.  1.
         11    1    4    4    0    0 -0.34398798248E-01 -0.40870515784E-01  0.47569294093E-02  0.53633626390E-01  0.51100000000E-03 0. -1.
</event>
<event>
 8    1  0.1051655E+005  0.1043930E+01  0.7957747E-01            NaN
         13   -1    0    0    0    0  0.00000000000E+00  0.00000000000E+00  0.74505805969E-08  0.10566000000E+00  0.10566000000E+00 0. -1.
     999900   -1    0    0    0    0 -0.00000000000E+00 -0.00000000000E+00 -0.74505805969E-08  0.93827000000E+00  0.93827000000E+00 0.  1.
     999902    2    1    2    0    0 -0.14593136160E-02  0.84051581872E-02  0.20158155409E-01  0.10220410185E+01  0.10218065942E+01 0.  0.
     999903    2    3    3    0    0  0.20669932740E-01 -0.10594584014E+00  0.74118391255E-01  0.13272804695E+00  0.21712470197E-01 0.  0.
         14    1    1    2    0    0  0.14593136160E-02 -0.84051581872E-02 -0.20158155409E-01  0.21888981472E-01  0.00000000000E+00 0.  1.
     999901    1    3    3    0    0 -0.22129246356E-01  0.11435099833E+00 -0.53960235847E-01  0.88931297158E+00  0.88000000000E+00 0.  1.
        -11    1    4    4    0    0  0.17762703295E-01 -0.72656157126E-01  0.62085571588E-01  0.97207562036E-01  0.51100000000E-03 0. -1.
         11    1    4    4    0    0  0.29072294451E-02 -0.33289683017E-01  0.12032819668E-01  0.35520484915E-01  0.51100000000E-03 0.  1.
</event>
<event>
 8    1  0.1101778E+005  0.1043930E+01  0.7957747E-01            NaN
         13   -1    0    0    0    0  0.00000000000E+00  0.00000000000E+00  0.74505805969E-08  0.10566000000E+00  0.10566000000E+00 0.  1.
     999900   -1    0    0    0    0 -0.00000000000E+00 -0.00000000000E+00 -0.74505805969E-08  0.93827000000E+00  0.93827000000E+00 0. -1.
     999902    2    1    2    0    0  0.19645889453E-01  0.10497509608E-01  0.39922367012E-02  0.10213004478E+01  0.10210497089E+01 0.  0.
     999903    2    3    3    0    0  0.94597082053E-01  0.25439228947E-01 -0.88084718787E-01  0.13320185978E+00  0.19699123417E-01 0.  0.
         14    1    1    2    0    0 -0.19645889453E-01 -0.10497509608E-01 -0.39922367012E-02  0.22629552233E-01  0.00000000000E+00 0. -1.
     999901    1    3    3    0    0 -0.74951192600E-01 -0.14941719339E-01  0.92076955488E-01  0.88809858798E+00  0.88000000000E+00 0.  1.
        -11    1    4    4    0    0  0.75779667294E-01  0.12040958096E-01 -0.65392599266E-01  0.10081664449E+00  0.51100000000E-03 0. -1.
         11    1    4    4    0    0  0.18817414759E-01  0.13398270851E-01 -0.22692119521E-01  0.32385215290E-01  0.51100000000E-03 0.  1.
</event>
<event>
 8    1  0.1051655E+005  0.1043930E+01  0.7957747E-01            NaN
         13   -1    0    0    0    0  0.00000000000E+00  0.00000000000E+00  0.74505805969E-08  0.10566000000E+00  0.10566000000E+00 0. -1.
     999900   -1    0    0    0    0 -0.00000000000E+00 -0.00000000000E+00 -0.74505805969E-08  0.93827000000E+00  0.93827000000E+00 0. -1.
     999902    2    1    2    0    0  0.23562435167E-01 -0.21097281596E-02  0.44893940488E-02  0.10198510888E+01  0.10195667950E+01 0.  0.
     999903    2    3    3    0    0 -0.12432130320E+00 -0.11388540526E-01 -0.23243158872E-02  0.12743743863E+00  0.25483583660E-01 0.  0.
         14    1    1    2    0    0 -0.23562435167E-01  0.21097281596E-02 -0.44893940488E-02  0.24078911164E-01  0.00000000000E+00 0. -1.
     999901    1    3    3    0    0  0.14788373836E+00  0.92788123665E-02  0.68137099361E-02  0.89241365021E+00  0.88000000000E+00 0. -1.
        -11    1    4    4    0    0 -0.27828475672E-01 -0.75344153813E-02 -0.10102833974E-01  0.30553557055E-01  0.51100000000E-03 0. -1.
         11    1    4    4    0    0 -0.96492827525E-01 -0.38541251448E-02  0.77785180871E-02  0.96883881575E-01  0.51100000000E-03 0.  1.
</event>
<event>
 8    1  0.1051655E+005  0.1043930E+01  0.7957747E-01            NaN
         13   -1    0    0    0    0  0.00000000000E+00  0.00000000000E+00  0.74505805969E-08  0.10566000000E+00  0.10566000000E+00 0. -1.
     999900   -1    0    0    0    0 -0.00000000000E+00 -0.00000000000E+00 -0.74505805969E-08  0.93827000000E+00  0.93827000000E+00 0.  1.
     999902    2    1    2    0    0  0.11691163937E-01 -0.17859228380E-01 -0.88289973995E-02  0.10208305076E+01  0.10205691249E+01 0.  0.
     999903    2    3    3    0    0 -0.85791272072E-01  0.92905929641E-01  0.10571771298E-01  0.12833505365E+00  0.19143393634E-01 0.  0.
         14    1    1    2    0    0 -0.11691163937E-01  0.17859228380E-01  0.88289973995E-02  0.23099492367E-01  0.00000000000E+00 0. -1.
     999901    1    3    3    0    0  0.97482436009E-01 -0.11076515802E+00 -0.19400768698E-01  0.89249545399E+00  0.88000000000E+00 0.  1.
        -11    1    4    4    0    0 -0.68078159500E-01  0.70551837208E-01  0.15876242560E-01  0.99320258423E-01  0.51100000000E-03 0.  1.
         11    1    4    4    0    0 -0.17713112572E-01  0.22354092432E-01 -0.53044712621E-02  0.29014795223E-01  0.51100000000E-03 0. -1.
</event>
<event>
 8    1  0.1051655E+005  0.1043930E+01  0.7957747E-01            NaN
         13   -1    0    0    0    0  0.00000000000E+00  0.00000000000E+00  0.74505805969E-08  0.10566000000E+00  0.10566000000E+00 0.  1.
     999900   -1    0    0    0    0 -0.00000000000E+00 -0.00000000000E+00 -0.74505805969E-08  0.93827000000E+00  0.93827000000E+00 0. -1.
     999902    2    1    2    0    0  0.15996206305E-01 -0.13233270821E-01 -0.11755301069E-01  0.10200723979E+01  0.10197933672E+01 0.  0.
     999903    2    3    3    0    0  0.93921523996E-01  0.19599809728E-01  0.86386638202E-01  0.13058816168E+00  0.19626805640E-01 0.  0.
         14    1    1    2    0    0 -0.15996206305E-01  0.13233270821E-01  0.11755301069E-01  0.23857602059E-01  0.00000000000E+00 0.  1.
     999901    1    3    3    0    0 -0.77925317691E-01 -0.32833080549E-01 -0.98141939272E-01  0.88948423626E+00  0.88000000000E+00 0. -1.
        -11    1    4    4    0    0  0.63227163263E-01  0.22082140429E-01  0.55671228201E-01  0.87090997644E-01  0.51100000000E-03 0.  1.
         11    1    4    4    0    0  0.30694360732E-01 -0.24823307010E-02  0.30715410001E-01  0.43497164034E-01  0.51100000000E-03 0. -1.
</event>
<event>
 8    1  0.1051655E+005  0.1043930E+01  0.7957747E-01            NaN
         13   -1    0    0    0    0  0.00000000000E+00  0.00000000000E+00  0.74505805969E-08  0.10566000000E+00  0.10566000000E+00 0. -1.
     999900   -1    0    0    0    0 -0.00000000000E+00 -0.00000000000E+00 -0.74505805969E-08  0.93827000000E+00  0.93827000000E+00 0. -1.
     999902    2    1    2    0    0 -0.40931899061E-04 -0.16520820256E-01  0.17648834530E-01  0.10197552086E+01  0.10194686189E+01 0.  0.
     999903    2    3    3    0    0 -0.26826600317E-01 -0.57189648330E-01  0.11509110501E+00  0.13303855621E+00  0.21516798664E-01 0.  0.
         14    1    1    2    0    0  0.40931899061E-04  0.16520820256E-01 -0.17648834530E-01  0.24174791367E-01  0.00000000000E+00 0.  1.
     999901    1    3    3    0    0  0.26785668417E-01  0.40668828074E-01 -0.97442270482E-01  0.88671665242E+00  0.88000000000E+00 0. -1.
        -11    1    4    4    0    0 -0.54450810600E-02 -0.16741823742E-02  0.20593557044E-01  0.21373055633E-01  0.51100000000E-03 0. -1.
         11    1    4    4    0    0 -0.21381519257E-01 -0.55515465956E-01  0.94497547968E-01  0.11166550058E+00  0.51100000000E-03 0.  1.
</event>
<event>
 8    1  0.1051655E+005  0.1043930E+01  0.7957747E-01            NaN
         13   -1    0    0    0    0  0.00000000000E+00  0.00000000000E+00  0.74505805969E-08  0.10566000000E+00  0.10566000000E+00 0. -1.
     999900   -1    0    0    0    0 -0.00000000000E+00 -0.00000000000E+00 -0.74505805969E-08  0.93827000000E+00  0.93827000000E+00 0. -1.
     999902    2    1    2    0    0 -0.15136113979E-01  0.13747590212E-01 -0.14197636015E-01  0.10190368071E+01  0.10187327143E+01 0.  0.
     999903    2    3    3    0    0 -0.68335749336E-01 -0.94046211833E-01 -0.54445407974E-01  0.12995324069E+00  0.20225669795E-01 0.  0.
         14    1    1    2    0    0  0.15136113979E-01 -0.13747590212E-01  0.14197636015E-01  0.24893192874E-01  0.00000000000E+00 0. -1.
     999901    1    3    3    0    0  0.53199635358E-01  0.10779380205E+00  0.40247771958E-01  0.88908356644E+00  0.88000000000E+00 0. -1.
        -11    1    4    4    0    0 -0.23935951880E-01 -0.41158438505E-01 -0.12776545562E-01  0.49299574948E-01  0.51100000000E-03 0.  1.
         11    1    4    4    0    0 -0.44399797457E-01 -0.52887773328E-01 -0.41668862411E-01  0.80653665741E-01  0.51100000000E-03 0. -1.
</event>
<event>
 8    1  0.1051655E+005  0.1043930E+01  0.7957747E-01            NaN
         13   -1    0    0    0    0  0.00000000000E+00  0.00000000000E+00  0.74505805969E-08  0.10566000000E+00  0.10566000000E+00 0.  1.
     999900   -1    0    0    0    0 -0.00000000000E+00 -0.00000000000E+00 -0.74505805969E-08  0.93827000000E+00  0.93827000000E+00 0. -1.
     999902    2    1    2    0    0 -0.20381314202E-01  0.88277204408E-02  0.69993498368E-02  0.10206422883E+01  0.10203765791E+01 0.  0.
     999903    2    3    3    0    0  0.35623800340E-01  0.82503847869E-01 -0.92637445586E-01  0.13019732337E+00  0.17137871087E-01 0.  0.
         14    1    1    2    0    0  0.20381314202E-01 -0.88277204408E-02 -0.69993498368E-02  0.23287711672E-01  0.00000000000E+00 0.  1.
     999901    1    3    3    0    0 -0.56005114543E-01 -0.73676127428E-01  0.99636795422E-01  0.89044496495E+00  0.88000000000E+00 0.  1.
        -11    1    4    4    0    0  0.94616420921E-02  0.39480971570E-01 -0.48353583695E-01  0.63139527749E-01  0.51100000000E-03 0.  1.
         11    1    4    4    0    0  0.26162158248E-01  0.43022876300E-01 -0.44283861890E-01  0.67057795626E-01  0.51100000000E-03 0. -1.
</event>
<event>
 8    1  0.1051655E+005  0.1043930E+01  0.7957747E-01            NaN
         13   -1    0    0    0    0  0.00000000000E+00  0.00000000000E+00  0.74505805969E-08  0.10566000000E+00  0.10566000000E+00 0. -1.
     999900   -1    0    0    0    0 -0.00000000000E+00 -0.00000000000E+00 -0.74505805969E-08  0.93827000000E+00  0.93827000000E+00 0.  1.
     999902    2    1    2    0    0  0.12512872846E-01  0.43817237752E-02 -0.19764469599E-01  0.10201307196E+01  0.10198530675E+01 0.  0.
     999903    2    3    3    0    0  0.23383302400E-01  0.12675948097E+00 -0.17907043659E-01  0.13159375820E+00  0.19532284497E-01 0.  0.
         14    1    1    2    0    0 -0.12512872846E-01 -0.43817237752E-02  0.19764469599E-01  0.23799280422E-01  0.00000000000E+00 0. -1.
     999901    1    3    3    0    0 -0.10870429554E-01 -0.12237775720E+00 -0.18574259398E-02  0.88853696137E+00  0.88000000000E+00 0.  1.
        -11    1    4    4    0    0  0.15519240300E-01  0.35360848118E-01 -0.61219528373E-02  0.39102120488E-01  0.51100000000E-03 0.  1.
         11    1    4    4    0    0  0.78640620994E-02  0.91398632856E-01 -0.11785090822E-01  0.92491637716E-01  0.51100000000E-03 0. -1.
</event>
<event>
 8    1  0.1051655E+005  0.1043930E+01  0.7957747E-01            NaN
         13   -1    0    0    0    0  0.00000000000E+00  0.00000000000E+00  0.74505805969E-08  0.10566000000E+00  0.10566000000E+00 0. -1.
     999900   -1    0    0    0    0 -0.00000000000E+00 -0.00000000000E+00 -0.74505805969E-08  0.93827000000E+00  0.93827000000E+00 0.  1.
     999902    2    1    2    0    0  0.17460928368E-01 -0.96489780346E-02  0.99333636626E-02  0.10216441635E+01  0.10214010663E+01 0.  0.
     999903    2    3    3    0    0 -0.59927565937E-01 -0.60315056617E-01  0.99249740694E-01  0.13229977248E+00  0.20579104833E-01 0.  0.
         14    1    1    2    0    0 -0.17460928368E-01  0.96489780346E-02 -0.99333636626E-02  0.22285836539E-01  0.00000000000E+00 0.  1.
     999901    1    3    3    0    0  0.77388494305E-01  0.50666078582E-01 -0.89316377031E-01  0.88934439098E+00  0.88000000000E+00 0. -1.
        -11    1    4    4    0    0 -0.53573073028E-01 -0.49115440455E-01  0.92841146514E-01  0.11790733757E+00  0.51100000000E-03 0.  1.
         11    1    4    4    0    0 -0.63544929089E-02 -0.11199616162E-01  0.64085941800E-02  0.14392434911E-01  0.51100000000E-03 0. -1.
</event>
<event>
 8    1  0.1051655E+005  0.1043930E+01  0.7957747E-01            NaN
         13   -1    0    0    0    0  0.00000000000E+00  0.00000000000E+00  0.74505805969E-08  0.10566000000E+00  0.10566000000E+00 0.  1.
     999900   -1    0    0    0    0 -0.00000000000E+00 -0.00000000000E+00 -0.74505805969E-08  0.93827000000E+00  0.93827000000E+00 0.  1.
     999902    2    1    2    0    0  0.24154582862E-02  0.24052411854E-01 -0.61720311845E-02  0.10189811138E+01  0.10186756419E+01 0.  0.
     999903    2    3    3    0    0 -0.38501141106E-01  0.57384992931E-01 -0.10985703283E+00  0.13132362993E+00  0.20048761452E-01 0.  0.
         14    1    1    2    0    0 -0.24154582862E-02 -0.24052411854E-01  0.61720311845E-02  0.24948886221E-01  0.00000000000E+00 0.  1.
     999901    1    3    3    0    0  0.40916599392E-01 -0.33332581077E-01  0.10368500164E+00  0.88765748385E+00  0.88000000000E+00 0. -1.
        -11    1    4    4    0    0 -0.36023645918E-01  0.40515597471E-01 -0.75322969731E-01  0.92806398452E-01  0.51100000000E-03 0.  1.
         11    1    4    4    0    0 -0.24774951879E-02  0.16869395460E-01 -0.34534063098E-01  0.38517231477E-01  0.51100000000E-03 0. -1.
</event>
<event>
 8    1  0.1051655E+005  0.1043930E+01  0.7957747E-01            NaN
         13   -1    0    0    0    0  0.00000000000E+00  0.00000000000E+00  0.74505805969E-08  0.10566000000E+00  0.10566000000E+00 0. -1.
     999900   -1    0    0    0    0 -0.00000000000E+00 -0.00000000000E+00 -0.74505805969E-08  0.93827000000E+00  0.93827000000E+00 0.  1.
     999902    2    1    2    0    0  0.37110308268E-02 -0.13853844644E-01  0.19665862699E-01  0.10195897675E+01  0.10192991941E+01 0.  0.
     999903    2    3    3    0    0 -0.46571619923E-01  0.86840540123E-01  0.84579750017E-01  0.13004970836E+00  0.69998100804E-02 0.  0.
         14    1    1    2    0    0 -0.37110308268E-02  0.13853844644E-01 -0.19665862699E-01  0.24340232474E-01  0.00000000000E+00 0.  1.
     999901    1    3    3    0    0  0.50282650750E-01 -0.10069438477E+00 -0.64913887319E-01  0.88954005916E+00  0.88000000000E+00 0.  1.
        -11    1    4    4    0    0 -0.23686084039E-01  0.50946172114E-01  0.49721580424E-01  0.75026926573E-01  0.51100000000E-03 0. -1.
         11    1    4    4    0    0 -0.22885535884E-01  0.35894368009E-01  0.34858169594E-01  0.55022781790E-01  0.51100000000E-03 0.  1.
</event>
<event>
 8    1  0.1051655E+005  0.1043930E+01  0.7957747E-01            NaN
         13   -1    0    0    0    0  0.00000000000E+00  0.00000000000E+00  0.74505805969E-08  0.10566000000E+00  0.10566000000E+00 0.  1.
     999900   -1    0    0    0    0 -0.00000000000E+00 -0.00000000000E+00 -0.74505805969E-08  0.93827000000E+00  0.93827000000E+00 0. -1.
     999902    2    1    2    0    0  0.78569415776E-02 -0.22451428422E-01 -0.15582638694E-02  0.10200925011E+01  0.10198139460E+01 0.  0.
     999903    2    3    3    0    0  0.55604617136E-01 -0.10989237691E+00 -0.46859547469E-01  0.13331295333E+00  0.20206889544E-01 0.  0.
         14    1    1    2    0    0 -0.78569415776E-02  0.22451428422E-01  0.15582638694E-02  0.23837498934E-01  0.00000000000E+00 0.  1.
     999901    1    3    3    0    0 -0.47747675559E-01  0.87440948491E-01  0.45301283599E-01  0.88677954774E+00  0.88000000000E+00 0.  1.
        -11    1    4    4    0    0  0.47819185783E-01 -0.76339425086E-01 -0.37820168942E-01  0.97698560129E-01  0.51100000000E-03 0.  1.
         11    1    4    4    0    0  0.77854313530E-02 -0.33552951827E-01 -0.90393785269E-02  0.35614393197E-01  0.51100000000E-03 0. -1.
</event>
<event>
 8    1  0.1051655E+005  0.1043930E+01  0.7957747E-01            NaN
         13   -1    0    0    0    0  0.00000000000E+00  0.00000000000E+00  0.74505805969E-08  0.10566000000E+00  0.10566000000E+00 0.  1.
     999900   -1    0    0    0    0 -0.00000000000E+00 -0.00000000000E+00 -0.74505805969E-08  0.93827000000E+00  0.93827000000E+00 0.  1.
     999902    2    1    2    0    0  0.45531697895E-02  0.22289615806E-01  0.43127627569E-02  0.10207749088E+01  0.10205122518E+01 0.  0.
     999903    2    3    3    0    0 -0.43040504677E-01  0.10679137874E+00 -0.63224315183E-01  0.13287459752E+00  0.20036492217E-01 0.  0.
         14    1    1    2    0    0 -0.45531697895E-02 -0.22289615806E-01 -0.43127627569E-02  0.23155091244E-01  0.00000000000E+00 0. -1.
     999901    1    3    3    0    0  0.47593674467E-01 -0.84501762936E-01  0.67537077940E-01  0.88790031123E+00  0.88000000000E+00 0. -1.
        -11    1    4    4    0    0 -0.44041176414E-01  0.95590566635E-01 -0.53850359052E-01  0.11822564840E+00  0.51100000000E-03 0. -1.
         11    1    4    4    0    0  0.10006717366E-02  0.11200812107E-01 -0.93739561307E-02  0.14648949120E-01  0.51100000000E-03 0.  1.
</event>
<event>
 8    1  0.1051655E+005  0.1043930E+01  0.7957747E-01            NaN
         13   -1    0    0    0    0  0.00000000000E+00  0.00000000000E+00  0.74505805969E-08  0.10566000000E+00  0.10566000000E+00 0.  1.
     999900   -1    0    0    0    0 -0.00000000000E+00 -0.00000000000E+00 -0.74505805969E-08  0.93827000000E+00  0.93827000000E+00 0. -1.
     999902    2    1    2    0    0  0.21485520696E-01 -0.86607666388E-02 -0.12856174351E-02  0.10207289377E+01  0.10204652248E+01 0.  0.
     999903    2    3    3    0    0 -0.12239396867E-01  0.91048724128E-01 -0.89815771972E-01  0.13004552547E+00  0.20131885113E-01 0.  0.
         14    1    1    2    0    0 -0.21485520696E-01  0.86607666388E-02  0.12856174351E-02  0.23201062272E-01  0.00000000000E+00 0. -1.
     999901    1    3    3    0    0  0.33724917563E-01 -0.99709490766E-01  0.88530154537E-01  0.89068341226E+00  0.88000000000E+00 0.  1.
        -11    1    4    4    0    0  0.13970753377E-02  0.31725644925E-01 -0.20531731635E-01  0.37819062526E-01  0.51100000000E-03 0. -1.
         11    1    4    4    0    0 -0.13636472205E-01  0.59323079203E-01 -0.69284040337E-01  0.92226462942E-01  0.51100000000E-03 0.  1.
</event>
<event>
 8    1  0.1051655E+005  0.1043930E+01  0.7957747E-01            NaN
         13   -1    0    0    0    0  0.00000000000E+00  0.00000000000E+00  0.74505805969E-08  0.10566000000E+00  0.10566000000E+00 0.  1.
     999900   -1    0    0    0    0 -0.00000000000E+00 -0.00000000000E+00 -0.74505805969E-08  0.93827000000E+00  0.93827000000E+00 0. -1.
     999902    2    1    2    0    0 -0.18549958273E-01  0.16912078706E-02  0.14743676076E-01  0.10201742192E+01  0.10198975931E+01 0.  0.
     999903    2    3    3    0    0  0.49260518031E-01  0.65383474266E-01 -0.96700759252E-01  0.12828026384E+00  0.20079639091E-01 0.  0.
         14    1    1    2    0    0  0.18549958273E-01 -0.16912078706E-02 -0.14743676076E-01  0.23755780775E-01  0.00000000000E+00 0. -1.
     999901    1    3    3    0    0 -0.67810476304E-01 -0.63692266396E-01  0.11144443533E+00  0.89189395539E+00  0.88000000000E+00 0.  1.
        -11    1    4    4    0    0  0.18341970342E-01  0.32634706308E-01 -0.57248015981E-01  0.68403569984E-01  0.51100000000E-03 0.  1.
         11    1    4    4    0    0  0.30918547689E-01  0.32748767958E-01 -0.39452743271E-01  0.59876693851E-01  0.51100000000E-03 0. -1.
</event>
<event>
 8    1  0.1051655E+005  0.1043930E+01  0.7957747E-01            NaN
         13   -1    0    0    0    0  0.00000000000E+00  0.00000000000E+00  0.74505805969E-08  0.10566000000E+00  0.10566000000E+00 0. -1.
     999900   -1    0    0    0    0 -0.00000000000E+00 -0.00000000000E+00 -0.74505805969E-08  0.93827000000E+00  0.93827000000E+00 0.  1.
     999902    2    1    2    0    0  0.50123064708E-02 -0.70196063473E-02 -0.22640510443E-01  0.10197021069E+01  0.10194142416E+01 0.  0.
     999903    2    3    3    0    0 -0.70839697454E-01  0.99484739479E-01 -0.39253336331E-01  0.12988600899E+00  0.20348827795E-01 0.  0.
         14    1    1    2    0    0 -0.50123064708E-02  0.70196063473E-02  0.22640510443E-01  0.24227893068E-01  0.00000000000E+00 0. -1.
     999901    1    3    3    0    0  0.75852003925E-01 -0.10650434583E+00  0.16612825889E-01  0.88981609795E+00  0.88000000000E+00 0.  1.
        -11    1    4    4    0    0 -0.78160597908E-02  0.12975225810E-01 -0.12279067751E-01  0.19505996548E-01  0.51100000000E-03 0.  1.
         11    1    4    4    0    0 -0.63023637663E-01  0.86509513668E-01 -0.26974268580E-01  0.11038001244E+00  0.51100000000E-03 0. -1.
</event>
<event>
 8    1  0.1051655E+005  0.1043930E+01  0.7957747E-01            NaN
         13   -1    0    0    0    0  0.00000000000E+00  0.00000000000E+00  0.74505805969E-08  0.10566000000E+00  0.10566000000E+00 0. -1.
     999900   -1    0    0    0    0 -0.00000000000E+00 -0.00000000000E+00 -0.74505805969E-08  0.93827000000E+00  0.93827000000E+00 0.  1.
     999902    2    1    2    0    0 -0.13725236455E-01  0.16350085597E-03  0.19871899478E-01  0.10197783699E+01  0.10194923357E+01 0.  0.
     999903    2    3    3    0    0 -0.11680433344E+00 -0.45991177529E-01  0.36773770464E-01  0.13239951741E+00  0.20466589764E-01 0.  0.
         14    1    1    2    0    0  0.13725236455E-01 -0.16350085597E-03 -0.19871899478E-01  0.24151630113E-01  0.00000000000E+00 0.  1.
     999901    1    3    3    0    0  0.10307909699E+00  0.46154678385E-01 -0.16901870986E-01  0.88737885247E+00  0.88000000000E+00 0. -1.
        -11    1    4    4    0    0 -0.43049481717E-01 -0.21000970468E-01  0.45377915246E-02  0.48116019262E-01  0.51100000000E-03 0. -1.
         11    1    4    4    0    0 -0.73754851723E-01 -0.24990207061E-01  0.32235978939E-01  0.84283498152E-01  0.51100000000E-03 0.  1.
</event>
<event>
 8    1  0.1051655E+005  0.1043930E+01  0.7957747E-01            NaN
         13   -1    0    0    0    0  0.00000000000E+00  0.00000000000E+00  0.74505805969E-08  0.10566000000E+00  0.10566000000E+00 0.  1.
     999900   -1    0    0    0    0 -0.00000000000E+00 -0.00000000000E+00 -0.74505805969E-08  0.93827000000E+00  0.93827000000E+00 0.  1.
     999902    2    1    2    0    0 -0.72019615188E-02 -0.38491766654E-02 -0.23858850195E-01  0.10187123644E+01  0.10184001926E+01 0.  0.
     999903    2    3    3    0    0 -0.11285902930E+00  0.60098799561E-01 -0.11011023743E-01  0.12999540934E+00  0.20701149784E-01 0.  0.
         14    1    1    2    0    0  0.72019615188E-02  0.38491766654E-02  0.23858850195E-01  0.25217635562E-01  0.00000000000E+00 0.  1.
     999901    1    3    3    0    0  0.10565706778E+00 -0.63947976226E-01 -0.12847826452E-01  0.88871695510E+00  0.88000000000E+00 0.  1.
        -11    1    4    4    0    0 -0.14539566106E-01  0.12509246565E-02 -0.42570274808E-02  0.15210101874E-01  0.51100000000E-03 0.  1.
         11    1    4    4    0    0 -0.98319463193E-01  0.58847874904E-01 -0.67539962623E-02  0.11478530746E+00  0.51100000000E-03 0. -1.
</event>
<event>
 8    1  0.1184381E+005  0.1043930E+01  0.7957747E-01            NaN
         13   -1    0    0    0    0  0.00000000000E+00  0.00000000000E+00  0.74505805969E-08  0.10566000000E+00  0.10566000000E+00 0. -1.
     999900   -1    0    0    0    0 -0.00000000000E+00 -0.00000000000E+00 -0.74505805969E-08  0.93827000000E+00  0.93827000000E+00 0.  1.
     999902    2    1    2    0    0 -0.11874612211E-01  0.27451222582E-01  0.72190376413E-02  0.10131616633E+01  0.10126943594E+01 0.  0.
     999903    2    3    3    0    0  0.11032943981E+00  0.25537943073E-01 -0.44398375911E-01  0.12321680642E+00  0.19656901518E-01 0.  0.
         14    1    1    2    0    0  0.11874612211E-01 -0.27451222582E-01 -0.72190376413E-02  0.30768336661E-01  0.00000000000E+00 0.  1.
     999901    1    3    3    0    0 -0.12220405202E+00  0.19132795093E-02  0.51617413552E-01  0.88994485692E+00  0.88000000000E+00 0.  1.
        -11    1    4    4    0    0  0.16052729518E-01  0.57017211257E-02  0.21956323608E-03  0.17044326851E-01  0.51100000000E-03 0. -1.
         11    1    4    4    0    0  0.94276710289E-01  0.19836221947E-01 -0.44617939147E-01  0.10617247957E+00  0.51100000000E-03 0.  1.
</event>
<event>
 8    1  0.1051655E+005  0.1043930E+01  0.7957747E-01            NaN
         13   -1    0    0    0    0  0.00000000000E+00  0.00000000000E+00  0.74505805969E-08  0.10566000000E+00  0.10566000000E+00 0.  1.
     999900   -1    0    0    0    0 -0.00000000000E+00 -0.00000000000E+00 -0.74505805969E-08  0.93827000000E+00  0.93827000000E+00 0. -1.
     999902    2    1    2    0    0  0.83920628455E-02  0.44169072570E-02  0.21915665000E-01  0.10200504656E+01  0.10197709156E+01 0.  0.
     999903    2    3    3    0    0 -0.43072506448E-01  0.61336608902E-01  0.10720329424E+00  0.13260332129E+00  0.21764055643E-01 0.  0.
         14    1    1    2    0    0 -0.83920628455E-02 -0.44169072570E-02 -0.21915665000E-01  0.23879534353E-01  0.00000000000E+00 0. -1.
     999901    1    3    3    0    0  0.51464569293E-01 -0.56919701645E-01 -0.85287629239E-01  0.88744714436E+00  0.88000000000E+00 0.  1.
        -11    1    4    4    0    0 -0.24124194961E-01  0.21605456961E-01  0.32428592266E-01  0.45832818704E-01  0.51100000000E-03 0.  1.
         11    1    4    4    0    0 -0.18948311487E-01  0.39731151942E-01  0.74774701973E-01  0.86770502586E-01  0.51100000000E-03 0. -1.
</event>
<event>
 8    1  0.1051655E+005  0.1043930E+01  0.7957747E-01            NaN
         13   -1    0    0    0    0  0.00000000000E+00  0.00000000000E+00  0.74505805969E-08  0.10566000000E+00  0.10566000000E+00 0.  1.
     999900   -1    0    0    0    0 -0.00000000000E+00 -0.00000000000E+00 -0.74505805969E-08  0.93827000000E+00  0.93827000000E+00 0.  1.
     999902    2    1    2    0    0 -0.45637065392E-02  0.84147359188E-02 -0.21799112599E-01  0.10201216715E+01  0.10198438057E+01 0.  0.
     999903    2    3    3    0    0 -0.89183360257E-01  0.30009485226E-01 -0.91822958914E-01  0.13303083166E+00  0.20285596834E-01 0.  0.
         14    1    1    2    0    0  0.45637065392E-02 -0.84147359188E-02  0.21799112599E-01  0.23808328544E-01  0.00000000000E+00 0.  1.
     999901    1    3    3    0    0  0.84619653718E-01 -0.21594749307E-01  0.70023846315E-01  0.88709083979E+00  0.88000000000E+00 0.  1.
        -11    1    4    4    0    0 -0.71912213155E-01  0.16146778075E-01 -0.75524783086E-01  0.10552885304E+00  0.51100000000E-03 0. -1.
         11    1    4    4    0    0 -0.17271147102E-01  0.13862707151E-01 -0.16298175828E-01  0.27501978621E-01  0.51100000000E-03 0.  1.
</event>
<event>
 8    1  0.1051655E+005  0.1043930E+01  0.7957747E-01            NaN
         13   -1    0    0    0    0  0.00000000000E+00  0.00000000000E+00  0.74505805969E-08  0.10566000000E+00  0.10566000000E+00 0. -1.
     999900   -1    0    0    0    0 -0.00000000000E+00 -0.00000000000E+00 -0.74505805969E-08  0.93827000000E+00  0.93827000000E+00 0.  1.
     999902    2    1    2    0    0  0.78948797252E-02  0.15758252626E-01 -0.15401001022E-01  0.10205239648E+01  0.10202555171E+01 0.  0.
     999903    2    3    3    0    0 -0.70245995864E-01  0.94855974017E-01 -0.57256602170E-01  0.13254066691E+00  0.18882641540E-01 0.  0.
         14    1    1    2    0    0 -0.78948797252E-02 -0.15758252626E-01  0.15401001022E-01  0.23406035209E-01  0.00000000000E+00 0.  1.
     999901    1    3    3    0    0  0.78140875589E-01 -0.79097721391E-01  0.41855601148E-01  0.88798329788E+00  0.88000000000E+00 0. -1.
        -11    1    4    4    0    0 -0.11128605292E-01  0.28134518131E-01 -0.17232612531E-01  0.34822708422E-01  0.51100000000E-03 0. -1.
         11    1    4    4    0    0 -0.59117390572E-01  0.66721455886E-01 -0.40023989639E-01  0.97717958489E-01  0.51100000000E-03 0.  1.
</event>
<event>
 8    1  0.1051655E+005  0.1043930E+01  0.7957747E-01            NaN
         13   -1    0    0    0    0  0.00000000000E+00  0.00000000000E+00  0.74505805969E-08  0.10566000000E+00  0.10566000000E+00 0. -1.
     999900   -1    0    0    0    0 -0.00000000000E+00 -0.00000000000E+00 -0.74505805969E-08  0.93827000000E+00  0.93827000000E+00 0.  1.
     999902    2    1    2    0    0 -0.22260857455E-02 -0.19439930873E-01  0.13991588484E-01  0.10198752516E+01  0.10195915349E+01 0.  0.
     999903    2    3    3    0    0 -0.18938431787E-01 -0.23382073234E-01  0.12737722909E+00  0.13243446687E+00  0.20212470794E-01 0.  0.
         14    1    1    2    0    0  0.22260857455E-02  0.19439930873E-01 -0.13991588484E-01  0.24054748354E-01  0.00000000000E+00 0. -1.
     999901    1    3    3    0    0  0.16712346041E-01  0.39421423612E-02 -0.11338564061E+00  0.88744078478E+00  0.88000000000E+00 0.  1.
        -11    1    4    4    0    0 -0.12195677136E-01 -0.68474098945E-02  0.89116492722E-01  0.90208824175E-01  0.51100000000E-03 0. -1.
         11    1    4    4    0    0 -0.67427546504E-02 -0.16534663339E-01  0.38260736370E-01  0.42225642690E-01  0.51100000000E-03 0.  1.
</event>
<event>
 8    1  0.1051655E+005  0.1043930E+01  0.7957747E-01            NaN
         13   -1    0    0    0    0  0.00000000000E+00  0.00000000000E+00  0.74505805969E-08  0.10566000000E+00  0.10566000000E+00 0. -1.
     999900   -1    0    0    0    0 -0.00000000000E+00 -0.00000000000E+00 -0.74505805969E-08  0.93827000000E+00  0.93827000000E+00 0. -1.
     999902    2    1    2    0    0  0.15469930930E-01 -0.12548384331E-01  0.12650645979E-01  0.10203329757E+01  0.10200600775E+01 0.  0.
     999903    2    3    3    0    0 -0.70950880708E-02  0.42442430969E-01 -0.11930746886E+00  0.12851118076E+00  0.20715965664E-01 0.  0.
         14    1    1    2    0    0 -0.15469930930E-01  0.12548384331E-01 -0.12650645979E-01  0.23597024304E-01  0.00000000000E+00 0.  1.
     999901    1    3    3    0    0  0.22565019001E-01 -0.54990815300E-01  0.13195811484E+00  0.89182179494E+00  0.88000000000E+00 0.  1.
        -11    1    4    4    0    0 -0.72013248690E-02  0.32620102357E-02 -0.13138214460E-01  0.15341890067E-01  0.51100000000E-03 0.  1.
         11    1    4    4    0    0  0.10623679823E-03  0.39180420733E-01 -0.10616925440E+00  0.11316929069E+00  0.51100000000E-03 0. -1.
</event>
<event>
 8    1  0.1051655E+005  0.1043930E+01  0.7957747E-01            NaN
         13   -1    0    0    0    0  0.00000000000E+00  0.00000000000E+00  0.74505805969E-08  0.10566000000E+00  0.10566000000E+00 0.  1.
     999900   -1    0    0    0    0 -0.00000000000E+00 -0.00000000000E+00 -0.74505805969E-08  0.93827000000E+00  0.93827000000E+00 0. -1.
     999902    2    1    2    0    0 -0.22568493791E-01 -0.62842878366E-02 -0.36717723426E-02  0.10202169003E+01  0.10199412790E+01 0.  0.
     999903    2    3    3    0    0  0.78362013701E-01 -0.13730510145E-01  0.99033091899E-01  0.12848224093E+00  0.19261382174E-01 0.  0.
         14    1    1    2    0    0  0.22568493791E-01  0.62842878366E-02  0.36717723426E-02  0.23713099707E-01  0.00000000000E+00 0.  1.
     999901    1    3    3    0    0 -0.10093050749E+00  0.74462223085E-02 -0.10270486424E+00  0.89173465936E+00  0.88000000000E+00 0. -1.
        -11    1    4    4    0    0  0.25427538220E-01 -0.18764582576E-02  0.46126023267E-01  0.52706279881E-01  0.51100000000E-03 0. -1.
         11    1    4    4    0    0  0.52934475482E-01 -0.11854051888E-01  0.52907068632E-01  0.75775961049E-01  0.51100000000E-03 0.  1.
</event>
<event>
 8    1  0.1051655E+005  0.1043930E+01  0.7957747E-01            NaN
         13   -1    0    0    0    0  0.00000000000E+00  0.00000000000E+00  0.74505805969E-08  0.10566000000E+00  0.10566000000E+00 0.  1.
     999900   -1    0    0    0    0 -0.00000000000E+00 -0.00000000000E+00 -0.74505805969E-08  0.93827000000E+00  0.93827000000E+00 0. -1.
     999902    2    1    2    0    0  0.16008846760E-01 -0.13922539587E-01 -0.37565518813E-02  0.10223839571E+01  0.10221568978E+01 0.  0.
     999903    2    3    3    0    0  0.10939171324E+00  0.21489781640E-01 -0.71806079069E-01  0.13412434954E+00  0.20121394314E-01 0.  0.
         14    1    1    2    0    0 -0.16008846760E-01  0.13922539587E-01  0.37565518813E-02  0.21546042912E-01  0.00000000000E+00 0.  1.
     999901    1    3    3    0    0 -0.93382866478E-01 -0.35412321226E-01  0.68049527187E-01  0.88825960755E+00  0.88000000000E+00 0.  1.
        -11    1    4    4    0    0  0.59057143642E-01  0.16656038495E-01 -0.49566258741E-01  0.78881207902E-01  0.51100000000E-03 0.  1.
         11    1    4    4    0    0  0.50334569595E-01  0.48337431452E-02 -0.22239820327E-01  0.55243141641E-01  0.51100000000E-03 0. -1.
</event>
<event>
 8    1  0.1051655E+005  0.1043930E+01  0.7957747E-01            NaN
         13   -1    0    0    0    0  0.00000000000E+00  0.00000000000E+00  0.74505805969E-08  0.10566000000E+00  0.10566000000E+00 0. -1.
     999900   -1    0    0    0    0 -0.00000000000E+00 -0.00000000000E+00 -0.74505805969E-08  0.93827000000E+00  0.93827000000E+00 0.  1.
     999902    2    1    2    0    0 -0.17324015491E-01 -0.15371745173E-01  0.59714033751E-02  0.10200120210E+01  0.10197315594E+01 0.  0.
     999903    2    3    3    0    0 -0.45258464773E-01  0.11737272816E+00 -0.21435375712E-01  0.12919634969E+00  0.20187508326E-01 0.  0.
         14    1    1    2    0    0  0.17324015491E-01  0.15371745173E-01 -0.59714033751E-02  0.23917979026E-01  0.00000000000E+00 0.  1.
     999901    1    3    3    0    0  0.27934449282E-01 -0.13274447334E+00  0.27406779087E-01  0.89081567128E+00  0.88000000000E+00 0.  1.
        -11    1    4    4    0    0 -0.99831574772E-02  0.49806219395E-01 -0.36748507774E-02  0.50932195838E-01  0.51100000000E-03 0.  1.
         11    1    4    4    0    0 -0.35275307296E-01  0.67566508767E-01 -0.17760524934E-01  0.78264153856E-01  0.51100000000E-03 0. -1.
</event>
<event>
 8    1  0.1051655E+005  0.1043930E+01  0.7957747E-01            NaN
         13   -1    0    0    0    0  0.00000000000E+00  0.00000000000E+00  0.74505805969E-08  0.10566000000E+00  0.10566000000E+00 0. -1.
     999900   -1    0    0    0    0 -0.00000000000E+00 -0.00000000000E+00 -0.74505805969E-08  0.93827000000E+00  0.93827000000E+00 0.  1.
     999902    2    1    2    0    0 -0.12651554338E-01  0.11639641988E-01  0.15017836807E-01  0.10211028557E+01  0.10208476691E+01 0.  0.
     999903    2    3    3    0    0  0.32368502032E-03  0.13119834756E+00 -0.37541700055E-02  0.13272510435E+00  0.19716702531E-01 0.  0.
         14    1    1    2    0    0  0.12651554338E-01 -0.11639641988E-01 -0.15017836807E-01  0.22827144261E-01  0.00000000000E+00 0. -1.
     999901    1    3    3    0    0 -0.12975239358E-01 -0.11955870557E+00  0.18772006812E-01  0.88837775138E+00  0.88000000000E+00 0.  1.
        -11    1    4    4    0    0 -0.63260548048E-02  0.79559638001E-01 -0.93476038346E-02  0.80357910542E-01  0.51100000000E-03 0.  1.
         11    1    4    4    0    0  0.66497398251E-02  0.51638709560E-01  0.55934338291E-02  0.52367193812E-01  0.51100000000E-03 0. -1.
</event>
<event>
 8    1  0.1051655E+005  0.1043930E+01  0.7957747E-01            NaN
         13   -1    0    0    0    0  0.00000000000E+00  0.00000000000E+00  0.74505805969E-08  0.10566000000E+00  0.10566000000E+00 0.  1.
     999900   -1    0    0    0    0 -0.00000000000E+00 -0.00000000000E+00 -0.74505805969E-08  0.93827000000E+00  0.93827000000E+00 0. -1.
     999902    2    1    2    0    0 -0.19549026776E-01 -0.10261588811E-01 -0.81777371890E-02  0.10203855731E+01  0.10201139043E+01 0.  0.
     999903    2    3    3    0    0 -0.13051073566E+00  0.14164884072E-01 -0.84992395699E-02  0.13308108377E+00  0.20115708312E-01 0.  0.
         14    1    1    2    0    0  0.19549026776E-01  0.10261588811E-01  0.81777371890E-02  0.23544426907E-01  0.00000000000E+00 0. -1.
     999901    1    3    3    0    0  0.11096170888E+00 -0.24426472883E-01  0.32150238090E-03  0.88730448933E+00  0.88000000000E+00 0.  1.
        -11    1    4    4    0    0 -0.86166889973E-01 -0.59691030491E-04 -0.34731789334E-02  0.86238393906E-01  0.51100000000E-03 0.  1.
         11    1    4    4    0    0 -0.44343845683E-01  0.14224575102E-01 -0.50260606365E-02  0.46842689860E-01  0.51100000000E-03 0. -1.
</event>
<event>
 8    1  0.1051655E+005  0.1043930E+01  0.7957747E-01            NaN
         13   -1    0    0    0    0  0.00000000000E+00  0.00000000000E+00  0.74505805969E-08  0.10566000000E+00  0.10566000000E+00 0.  1.
     999900   -1    0    0    0    0 -0.00000000000E+00 -0.00000000000E+00 -0.74505805969E-08  0.93827000000E+00  0.93827000000E+00 0. -1.
     999902    2    1    2    0    0  0.16339298339E-01  0.60360260213E-02  0.16047462538E-01  0.10202460955E+01  0.10199711604E+01 0.  0.
     999903    2    3    3    0    0  0.99410483589E-01  0.60789367548E-01 -0.57865327090E-01  0.13156063328E+00  0.19545145034E-01 0.  0.
         14    1    1    2    0    0 -0.16339298339E-01 -0.60360260213E-02 -0.16047462538E-01  0.23683904540E-01  0.00000000000E+00 0. -1.
     999901    1    3    3    0    0 -0.83071185251E-01 -0.54753341527E-01  0.73912789628E-01  0.88868546218E+00  0.88000000000E+00 0. -1.
        -11    1    4    4    0    0  0.10003082721E+00  0.58922264134E-01 -0.56520515122E-01  0.12912331065E+00  0.51100000000E-03 0. -1.
         11    1    4    4    0    0 -0.62034361656E-03  0.18671034143E-02 -0.13448119676E-02  0.24373226275E-02  0.51100000000E-03 0.  1.
</event>
<event>
 8    1  0.1051655E+005  0.1043930E+01  0.7957747E-01            NaN
         13   -1    0    0    0    0  0.00000000000E+00  0.00000000000E+00  0.74505805969E-08  0.10566000000E+00  0.10566000000E+00 0.  1.
     999900   -1    0    0    0    0 -0.00000000000E+00 -0.00000000000E+00 -0.74505805969E-08  0.93827000000E+00  0.93827000000E+00 0.  1.
     999902    2    1    2    0    0 -0.47877525026E-02 -0.74112732262E-02 -0.20434837885E-01  0.10216716949E+01  0.10214292046E+01 0.  0.
     999903    2    3    3    0    0  0.51918574947E-01 -0.75655267756E-01 -0.95571129891E-01  0.13402406624E+00  0.20232436783E-01 0.  0.
         14    1    1    2    0    0  0.47877525026E-02  0.74112732262E-02  0.20434837885E-01  0.22258305062E-01  0.00000000000E+00 0.  1.
     999901    1    3    3    0    0 -0.56706327450E-01  0.68243994530E-01  0.75136292006E-01  0.88764762870E+00  0.88000000000E+00 0. -1.
        -11    1    4    4    0    0  0.98174039999E-02 -0.13540822534E-01 -0.75493298725E-02  0.18357254662E-01  0.51100000000E-03 0.  1.
         11    1    4    4    0    0  0.42101170947E-01 -0.62114445222E-01 -0.88021800018E-01  0.11566681157E+00  0.51100000000E-03 0. -1.
</event>
<event>
 8    1  0.1051655E+005  0.1043930E+01  0.7957747E-01            NaN
         13   -1    0    0    0    0  0.00000000000E+00  0.00000000000E+00  0.74505805969E-08  0.10566000000E+00  0.10566000000E+00 0. -1.
     999900   -1    0    0    0    0 -0.00000000000E+00 -0.00000000000E+00 -0.74505805969E-08  0.93827000000E+00  0.93827000000E+00 0. -1.
     999902    2    1    2    0    0  0.45809442674E-02  0.14672822914E-01  0.17565553604E-01  0.10205885036E+01  0.10203215513E+01 0.  0.
     999903    2    3    3    0    0  0.10592023690E-02 -0.80761764986E-01  0.10183663748E+00  0.13141935272E+00  0.19410330807E-01 0.  0.
         14    1    1    2    0    0 -0.45809442674E-02 -0.14672822914E-01 -0.17565553604E-01  0.23341496440E-01  0.00000000000E+00 0.  1.
     999901    1    3    3    0    0  0.35217418984E-02  0.95434587901E-01 -0.84271083875E-01  0.88916915084E+00  0.88000000000E+00 0.  1.
        -11    1    4    4    0    0  0.10117365327E-01 -0.44508348337E-01  0.58262293299E-01  0.74014256021E-01  0.51100000000E-03 0. -1.
         11    1    4    4    0    0 -0.90581629582E-02 -0.36253416649E-01  0.43574344180E-01  0.57405096696E-01  0.51100000000E-03 0.  1.
</event>
<event>
 8    1  0.1051655E+005  0.1043930E+01  0.7957747E-01            NaN
         13   -1    0    0    0    0  0.00000000000E+00  0.00000000000E+00  0.74505805969E-08  0.10566000000E+00  0.10566000000E+00 0.  1.
     999900   -1    0    0    0    0 -0.00000000000E+00 -0.00000000000E+00 -0.74505805969E-08  0.93827000000E+00  0.93827000000E+00 0.  1.
     999902    2    1    2    0    0 -0.87582220325E-04 -0.23017345357E-01  0.46519640316E-02  0.10204470993E+01  0.10201768649E+01 0.  0.
     999903    2    3    3    0    0  0.11476304816E+00 -0.22940640700E-01 -0.55401561446E-01  0.13095449158E+00  0.19568230283E-01 0.  0.
         14    1    1    2    0    0  0.87582220325E-04  0.23017345357E-01 -0.46519640316E-02  0.23482900743E-01  0.00000000000E+00 0. -1.
     999901    1    3    3    0    0 -0.11485063038E+00 -0.76704657636E-04  0.60053525478E-01  0.88949260767E+00  0.88000000000E+00 0. -1.
        -11    1    4    4    0    0  0.27612412679E-01 -0.34732349889E-02 -0.22482138052E-01  0.35780111062E-01  0.51100000000E-03 0. -1.
         11    1    4    4    0    0  0.87150635483E-01 -0.19467405711E-01 -0.32919423394E-01  0.95174380522E-01  0.51100000000E-03 0.  1.
</event>
<event>
 8    1  0.1051655E+005  0.1043930E+01  0.7957747E-01            NaN
         13   -1    0    0    0    0  0.00000000000E+00  0.00000000000E+00  0.74505805969E-08  0.10566000000E+00  0.10566000000E+00 0. -1.
     999900   -1    0    0    0    0 -0.00000000000E+00 -0.00000000000E+00 -0.74505805969E-08  0.93827000000E+00  0.93827000000E+00 0.  1.
     999902    2    1    2    0    0  0.62649512128E-03  0.39672841063E-02  0.23925049114E-01  0.10196701605E+01  0.10193815264E+01 0.  0.
     999903    2    3    3    0    0  0.44430945443E-01  0.28937347401E-01  0.12024529641E+00  0.13297972746E+00  0.20327262963E-01 0.  0.
         14    1    1    2    0    0 -0.62649512128E-03 -0.39672841063E-02 -0.23925049114E-01  0.24259839539E-01  0.00000000000E+00 0.  1.
     999901    1    3    3    0    0 -0.43804450322E-01 -0.24970063295E-01 -0.96320247298E-01  0.88669043300E+00  0.88000000000E+00 0.  1.
        -11    1    4    4    0    0  0.17758882593E-01  0.10861633587E-01  0.72090784539E-01  0.75037959271E-01  0.51100000000E-03 0.  1.
         11    1    4    4    0    0  0.26672062850E-01  0.18075713814E-01  0.48154511874E-01  0.57941768194E-01  0.51100000000E-03 0. -1.
</event>
<event>
 8    1  0.1051655E+005  0.1043930E+01  0.7957747E-01            NaN
         13   -1    0    0    0    0  0.00000000000E+00  0.00000000000E+00  0.74505805969E-08  0.10566000000E+00  0.10566000000E+00 0.  1.
     999900   -1    0    0    0    0 -0.00000000000E+00 -0.00000000000E+00 -0.74505805969E-08  0.93827000000E+00  0.93827000000E+00 0. -1.
     999902    2    1    2    0    0  0.78916882202E-02  0.21284122313E-01 -0.70294533291E-02  0.10201664603E+01  0.10198896513E+01 0.  0.
     999903    2    3    3    0    0 -0.77541646748E-01  0.10346396062E+00  0.16908224672E-01  0.13189544704E+00  0.19824801646E-01 0.  0.
         14    1    1    2    0    0 -0.78916882202E-02 -0.21284122313E-01  0.70294533291E-02  0.23763539714E-01  0.00000000000E+00 0.  1.
     999901    1    3    3    0    0  0.85433334968E-01 -0.82179838307E-01 -0.23937678001E-01  0.88827101325E+00  0.88000000000E+00 0.  1.
        -11    1    4    4    0    0 -0.41501845394E-01  0.39660829424E-01  0.10225613780E-01  0.58311309879E-01  0.51100000000E-03 0.  1.
         11    1    4    4    0    0 -0.36039801355E-01  0.63803131197E-01  0.66826108927E-02  0.73584137160E-01  0.51100000000E-03 0. -1.
</event>
<event>
 8    1  0.1051655E+005  0.1043930E+01  0.7957747E-01            NaN
         13   -1    0    0    0    0  0.00000000000E+00  0.00000000000E+00  0.74505805969E-08  0.10566000000E+00  0.10566000000E+00 0.  1.
     999900   -1    0    0    0    0 -0.00000000000E+00 -0.00000000000E+00 -0.74505805969E-08  0.93827000000E+00  0.93827000000E+00 0. -1.
     999902    2    1    2    0    0 -0.17995308601E-01  0.38398670052E-02 -0.11154051781E-01  0.10224128305E+01  0.10221863859E+01 0.  0.
     999903    2    3    3    0    0  0.92023644060E-01  0.68203590788E-01  0.58418553682E-01  0.13051193565E+00  0.22373132777E-01 0.  0.
         14    1    1    2    0    0  0.17995308601E-01 -0.38398670052E-02  0.11154051781E-01  0.21517169456E-01  0.00000000000E+00 0.  1.
     999901    1    3    3    0    0 -0.11001895266E+00 -0.64363723783E-01 -0.69572605463E-01  0.89190089490E+00  0.88000000000E+00 0.  1.
        -11    1    4    4    0    0  0.67686032594E-01  0.42980916933E-01  0.30831288177E-01  0.85904526542E-01  0.51100000000E-03 0. -1.
         11    1    4    4    0    0  0.24337611466E-01  0.25222673854E-01  0.27587265505E-01  0.44607409107E-01  0.51100000000E-03 0.  1.
</event>
<event>
 8    1  0.1051655E+005  0.1043930E+01  0.7957747E-01            NaN
         13   -1    0    0    0    0  0.00000000000E+00  0.00000000000E+00  0.74505805969E-08  0.10566000000E+00  0.10566000000E+00 0.  1.
     999900   -1    0    0    0    0 -0.00000000000E+00 -0.00000000000E+00 -0.74505805969E-08  0.93827000000E+00  0.93827000000E+00 0. -1.
     999902    2    1    2    0    0 -0.13576886026E-01  0.75833574923E-02  0.17872969836E-01  0.10202386050E+01  0.10199634940E+01 0.  0.
     999903    2    3    3    0    0 -0.62524981247E-02  0.29508982370E-01 -0.12368589037E+00  0.12862585804E+00  0.18344975016E-01 0.  0.
         14    1    1    2    0    0  0.13576886026E-01 -0.75833574923E-02 -0.17872969836E-01  0.23691394973E-01  0.00000000000E+00 0.  1.
     999901    1    3    3    0    0 -0.73243879008E-02 -0.21925624878E-01  0.14155886020E+00  0.89161274698E+00  0.88000000000E+00 0.  1.
        -11    1    4    4    0    0 -0.99622638340E-02  0.71204532723E-02 -0.52347164300E-01  0.53762759292E-01  0.51100000000E-03 0.  1.
         11    1    4    4    0    0  0.37097657093E-02  0.22388529098E-01 -0.71338726066E-01  0.74863098750E-01  0.51100000000E-03 0. -1.
</event>
<event>
 8    1  0.1051655E+005  0.1043930E+01  0.7957747E-01            NaN
         13   -1    0    0    0    0  0.00000000000E+00  0.00000000000E+00  0.74505805969E-08  0.10566000000E+00  0.10566000000E+00 0.  1.
     999900   -1    0    0    0    0 -0.00000000000E+00 -0.00000000000E+00 -0.74505805969E-08  0.93827000000E+00  0.93827000000E+00 0. -1.
     999902    2    1    2    0    0  0.23302924652E-01  0.16623785146E-02  0.46699295482E-02  0.10201056838E+01  0.10198274404E+01 0.  0.
     999903    2    3    3    0    0  0.11614979700E+00 -0.60848627643E-01 -0.93987007072E-02  0.13290441355E+00  0.19542690150E-01 0.  0.
         14    1    1    2    0    0 -0.23302924652E-01 -0.16623785146E-02 -0.46699295482E-02  0.23824316185E-01  0.00000000000E+00 0. -1.
     999901    1    3    3    0    0 -0.92846872347E-01  0.62511006158E-01  0.14068630255E-01  0.88720127026E+00  0.88000000000E+00 0.  1.
        -11    1    4    4    0    0  0.74856841157E-01 -0.49464881160E-01 -0.71327619506E-02  0.90008102692E-01  0.51100000000E-03 0.  1.
         11    1    4    4    0    0  0.41292955841E-01 -0.11383746483E-01 -0.22659387566E-02  0.42896310862E-01  0.51100000000E-03 0. -1.
</event>
<event>
 8    1  0.1051655E+005  0.1043930E+01  0.7957747E-01            NaN
         13   -1    0    0    0    0  0.00000000000E+00  0.00000000000E+00  0.74505805969E-08  0.10566000000E+00  0.10566000000E+00 0.  1.
     999900   -1    0    0    0    0 -0.00000000000E+00 -0.00000000000E+00 -0.74505805969E-08  0.93827000000E+00  0.93827000000E+00 0.  1.
     999902    2    1    2    0    0 -0.10847476653E-01  0.20075049866E-01 -0.99947858419E-02  0.10190187351E+01  0.10187141951E+01 0.  0.
     999903    2    3    3    0    0 -0.17365636859E-01  0.39638162853E-01  0.12015399604E+00  0.12920757126E+00  0.19617961376E-01 0.  0.
         14    1    1    2    0    0  0.10847476653E-01 -0.20075049866E-01  0.99947858419E-02  0.24911264939E-01  0.00000000000E+00 0.  1.
     999901    1    3    3    0    0  0.65181602063E-02 -0.19563112988E-01 -0.13014878188E+00  0.88981116380E+00  0.88000000000E+00 0.  1.
        -11    1    4    4    0    0 -0.15424856443E-01  0.31796358272E-01  0.70129695199E-01  0.78532603836E-01  0.51100000000E-03 0.  1.
         11    1    4    4    0    0 -0.19407804158E-02  0.78418045814E-02  0.50024300840E-01  0.50674967422E-01  0.51100000000E-03 0. -1.
</event>
<event>
 8    1  0.1051655E+005  0.1043930E+01  0.7957747E-01            NaN
         13   -1    0    0    0    0  0.00000000000E+00  0.00000000000E+00  0.74505805969E-08  0.10566000000E+00  0.10566000000E+00 0. -1.
     999900   -1    0    0    0    0 -0.00000000000E+00 -0.00000000000E+00 -0.74505805969E-08  0.93827000000E+00  0.93827000000E+00 0. -1.
     999902    2    1    2    0    0 -0.14244324400E-01 -0.13475493783E-01  0.91125945494E-02  0.10223075790E+01  0.10220788898E+01 0.  0.
     999903    2    3    3    0    0  0.76889940135E-02  0.12514683052E+00  0.31415534487E-01  0.13090719737E+00  0.20710110992E-01 0.  0.
         14    1    1    2    0    0  0.14244324400E-01  0.13475493783E-01 -0.91125945494E-02  0.21622420996E-01  0.00000000000E+00 0.  1.
     999901    1    3    3    0    0 -0.21933318414E-01 -0.13862232430E+00 -0.22302939937E-01  0.89140038164E+00  0.88000000000E+00 0.  1.
        -11    1    4    4    0    0  0.92677067088E-02  0.56026894294E-01  0.54461732198E-02  0.57051075324E-01  0.51100000000E-03 0. -1.
         11    1    4    4    0    0 -0.15787126953E-02  0.69119936226E-01  0.25969361267E-01  0.73856122043E-01  0.51100000000E-03 0.  1.
</event>
<event>
 8    1  0.1051655E+005  0.1043930E+01  0.7957747E-01            NaN
         13   -1    0    0    0    0  0.00000000000E+00  0.00000000000E+00  0.74505805969E-08  0.10566000000E+00  0.10566000000E+00 0.  1.
     999900   -1    0    0    0    0 -0.00000000000E+00 -0.00000000000E+00 -0.74505805969E-08  0.93827000000E+00  0.93827000000E+00 0.  1.
     999902    2    1    2    0    0  0.97961835281E-02 -0.18172537294E-01 -0.11681876211E-01  0.10202092800E+01  0.10199334795E+01 0.  0.
     999903    2    3    3    0    0 -0.49853233669E-01  0.11468045878E+00 -0.15343961865E-01  0.12823316915E+00  0.23903053584E-01 0.  0.
         14    1    1    2    0    0 -0.97961835281E-02  0.18172537294E-01  0.11681876211E-01  0.23720719956E-01  0.00000000000E+00 0.  1.
     999901    1    3    3    0    0  0.59649417197E-01 -0.13285299607E+00  0.36620856542E-02  0.89197611090E+00  0.88000000000E+00 0. -1.
        -11    1    4    4    0    0 -0.30475934644E-01  0.77187494013E-01  0.94128188505E-03  0.82993005471E-01  0.51100000000E-03 0. -1.
         11    1    4    4    0    0 -0.19377299025E-01  0.37492964767E-01 -0.16285243750E-01  0.45240163677E-01  0.51100000000E-03 0.  1.
</event>
<event>
 8    1  0.1051655E+005  0.1043930E+01  0.7957747E-01            NaN
         13   -1    0    0    0    0  0.00000000000E+00  0.00000000000E+00  0.74505805969E-08  0.10566000000E+00  0.10566000000E+00 0. -1.
     999900   -1    0    0    0    0 -0.00000000000E+00 -0.00000000000E+00 -0.74505805969E-08  0.93827000000E+00  0.93827000000E+00 0. -1.
     999902    2    1    2    0    0 -0.20928626355E-01  0.13381273234E-02 -0.10951958478E-01  0.10202711036E+01  0.10199967556E+01 0.  0.
     999903    2    3    3    0    0  0.67925190879E-01  0.67489400989E-01 -0.85774475997E-01  0.13017593957E+00  0.20490576095E-01 0.  0.
         14    1    1    2    0    0  0.20928626355E-01 -0.13381273234E-02  0.10951958478E-01  0.23658896431E-01  0.00000000000E+00 0.  1.
     999901    1    3    3    0    0 -0.88853817234E-01 -0.66151273666E-01  0.74822517519E-01  0.89009516400E+00  0.88000000000E+00 0.  1.
        -11    1    4    4    0    0  0.25028430548E-01  0.27089038978E-01 -0.46526401441E-01  0.59373441205E-01  0.51100000000E-03 0. -1.
         11    1    4    4    0    0  0.42896760331E-01  0.40400362011E-01 -0.39248074557E-01  0.70802498366E-01  0.51100000000E-03 0.  1.
</event>
<event>
 8    1  0.1051655E+005  0.1043930E+01  0.7957747E-01            NaN
         13   -1    0    0    0    0  0.00000000000E+00  0.00000000000E+00  0.74505805969E-08  0.10566000000E+00  0.10566000000E+00 0.  1.
     999900   -1    0    0    0    0 -0.00000000000E+00 -0.00000000000E+00 -0.74505805969E-08  0.93827000000E+00  0.93827000000E+00 0. -1.
     999902    2    1    2    0    0 -0.26325721762E-02  0.17091623864E-01 -0.14901529532E-01  0.10211021743E+01  0.10208469723E+01 0.  0.
     999903    2    3    3    0    0  0.73195497734E-01 -0.20461058881E-01 -0.10693220381E+00  0.13226599978E+00  0.16839319115E-01 0.  0.
         14    1    1    2    0    0  0.26325721762E-02 -0.17091623864E-01  0.14901529532E-01  0.22827825673E-01  0.00000000000E+00 0.  1.
     999901    1    3    3    0    0 -0.75828069910E-01  0.37552682746E-01  0.92030674278E-01  0.88883617454E+00  0.88000000000E+00 0.  1.
        -11    1    4    4    0    0  0.26777945542E-01 -0.15429156771E-01 -0.47774853787E-01  0.56901801566E-01  0.51100000000E-03 0.  1.
         11    1    4    4    0    0  0.46417552192E-01 -0.50319021107E-02 -0.59157350023E-01  0.75364198218E-01  0.51100000000E-03 0. -1.
</event>
<event>
 8    1  0.1051655E+005  0.1043930E+01  0.7957747E-01            NaN
         13   -1    0    0    0    0  0.00000000000E+00  0.00000000000E+00  0.74505805969E-08  0.10566000000E+00  0.10566000000E+00 0. -1.
     999900   -1    0    0    0    0 -0.00000000000E+00 -0.00000000000E+00 -0.74505805969E-08  0.93827000000E+00  0.93827000000E+00 0.  1.
     999902    2    1    2    0    0  0.68562286086E-02 -0.13495230231E-01  0.17738495091E-01  0.10206108380E+01  0.10203444023E+01 0.  0.
     999903    2    3    3    0    0 -0.10424245660E+00 -0.55532481152E-02  0.77367649767E-01  0.13158798729E+00  0.20792230467E-01 0.  0.
         14    1    1    2    0    0 -0.68562286086E-02  0.13495230231E-01 -0.17738495091E-01  0.23319162031E-01  0.00000000000E+00 0.  1.
     999901    1    3    3    0    0  0.11109868521E+00 -0.79419821156E-02 -0.59629154676E-01  0.88902285067E+00  0.88000000000E+00 0.  1.
        -11    1    4    4    0    0 -0.15362363852E-01  0.48039690004E-02  0.62052211916E-02  0.17258222165E-01  0.51100000000E-03 0. -1.
         11    1    4    4    0    0 -0.88880092745E-01 -0.10357217116E-01  0.71162428576E-01  0.11432976513E+00  0.51100000000E-03 0.  1.
</event>
<event>
 8    1  0.1051655E+005  0.1043930E+01  0.7957747E-01            NaN
         13   -1    0    0    0    0  0.00000000000E+00  0.00000000000E+00  0.74505805969E-08  0.10566000000E+00  0.10566000000E+00 0. -1.
     999900   -1    0    0    0    0 -0.00000000000E+00 -0.00000000000E+00 -0.74505805969E-08  0.93827000000E+00  0.93827000000E+00 0. -1.
     999902    2    1    2    0    0  0.20293474537E-01 -0.11362441504E-01 -0.56248641665E-02  0.10200015800E+01  0.10197208706E+01 0.  0.
     999903    2    3    3    0    0 -0.10967406068E+00 -0.41407568462E-01  0.48151451127E-01  0.12832553910E+00  0.20146846632E-01 0.  0.
         14    1    1    2    0    0 -0.20293474537E-01  0.11362441504E-01  0.56248641665E-02  0.23928419978E-01  0.00000000000E+00 0.  1.
     999901    1    3    3    0    0  0.12996753521E+00  0.30045126958E-01 -0.53776315294E-01  0.89167604092E+00  0.88000000000E+00 0.  1.
        -11    1    4    4    0    0 -0.30630357525E-01 -0.13635008848E-01  0.44361076791E-02  0.33824139911E-01  0.51100000000E-03 0. -1.
         11    1    4    4    0    0 -0.79043703151E-01 -0.27772559614E-01  0.43715343448E-01  0.94501399192E-01  0.51100000000E-03 0.  1.
</event>
<event>
 8    1  0.1051655E+005  0.1043930E+01  0.7957747E-01            NaN
         13   -1    0    0    0    0  0.00000000000E+00  0.00000000000E+00  0.74505805969E-08  0.10566000000E+00  0.10566000000E+00 0.  1.
     999900   -1    0    0    0    0 -0.00000000000E+00 -0.00000000000E+00 -0.74505805969E-08  0.93827000000E+00  0.93827000000E+00 0.  1.
     999902    2    1    2    0    0  0.12405551727E-01  0.10611457840E-01  0.16548633598E-01  0.10206843977E+01  0.10204196596E+01 0.  0.
     999903    2    3    3    0    0 -0.70544786284E-01  0.59043992899E-01  0.92902712471E-01  0.13217079941E+00  0.19376435773E-01 0.  0.
         14    1    1    2    0    0 -0.12405551727E-01 -0.10611457840E-01 -0.16548633598E-01  0.23245602275E-01  0.00000000000E+00 0. -1.
     999901    1    3    3    0    0  0.82950338011E-01 -0.48432535059E-01 -0.76354078873E-01  0.88851359831E+00  0.88000000000E+00 0.  1.
        -11    1    4    4    0    0 -0.30233583738E-01  0.14133149232E-01  0.38072324470E-01  0.50631793415E-01  0.51100000000E-03 0. -1.
         11    1    4    4    0    0 -0.40311202545E-01  0.44910843666E-01  0.54830388001E-01  0.81539005996E-01  0.51100000000E-03 0.  1.
</event>
<event>
 8    1  0.1051655E+005  0.1043930E+01  0.7957747E-01            NaN
         13   -1    0    0    0    0  0.00000000000E+00  0.00000000000E+00  0.74505805969E-08  0.10566000000E+00  0.10566000000E+00 0. -1.
     999900   -1    0    0    0    0 -0.00000000000E+00 -0.00000000000E+00 -0.74505805969E-08  0.93827000000E+00  0.93827000000E+00 0.  1.
     999902    2    1    2    0    0  0.55335758223E-02 -0.17794591466E-01 -0.14526958648E-01  0.10203016172E+01  0.10200279847E+01 0.  0.
     999903    2    3    3    0    0 -0.69001042485E-01  0.89880274327E-01 -0.59366031325E-01  0.12948186635E+00  0.20040470550E-01 0.  0.
         14    1    1    2    0    0 -0.55335758223E-02  0.17794591466E-01  0.14526958648E-01  0.23628382813E-01  0.00000000000E+00 0. -1.
     999901    1    3    3    0    0  0.74534618308E-01 -0.10767486579E+00  0.44839072677E-01  0.89081975084E+00  0.88000000000E+00 0. -1.
        -11    1    4    4    0    0 -0.10140262931E-01  0.11795284593E-01 -0.98603344747E-03  0.15594455870E-01  0.51100000000E-03 0. -1.
         11    1    4    4    0    0 -0.58860779555E-01  0.78084989734E-01 -0.58379997878E-01  0.11388741048E+00  0.51100000000E-03 0.  1.
</event>
<event>
 8    1  0.1051655E+005  0.1043930E+01  0.7957747E-01            NaN
         13   -1    0    0    0    0  0.00000000000E+00  0.00000000000E+00  0.74505805969E-08  0.10566000000E+00  0.10566000000E+00 0.  1.
     999900   -1    0    0    0    0 -0.00000000000E+00 -0.00000000000E+00 -0.74505805969E-08  0.93827000000E+00  0.93827000000E+00 0.  1.
     999902    2    1    2    0    0  0.35557805018E-02  0.14911079463E-01 -0.17710094192E-01  0.10205071201E+01  0.10202382814E+01 0.  0.
     999903    2    3    3    0    0 -0.36895510685E-01  0.12353890727E+00 -0.25313470822E-01  0.13287311712E+00  0.19782647244E-01 0.  0.
         14    1    1    2    0    0 -0.35557805018E-02 -0.14911079463E-01  0.17710094192E-01  0.23422879883E-01  0.00000000000E+00 0.  1.
     999901    1    3    3    0    0  0.40451291187E-01 -0.10862782780E+00  0.76033766303E-02  0.88763400299E+00  0.88000000000E+00 0.  1.
        -11    1    4    4    0    0 -0.23917768258E-01  0.74474787607E-01 -0.55931105256E-02  0.78422558195E-01  0.51100000000E-03 0. -1.
         11    1    4    4    0    0 -0.12977742427E-01  0.49064119659E-01 -0.19720360297E-01  0.54450558929E-01  0.51100000000E-03 0.  1.
</event>
<event>
 8    1  0.1051655E+005  0.1043930E+01  0.7957747E-01            NaN
         13   -1    0    0    0    0  0.00000000000E+00  0.00000000000E+00  0.74505805969E-08  0.10566000000E+00  0.10566000000E+00 0.  1.
     999900   -1    0    0    0    0 -0.00000000000E+00 -0.00000000000E+00 -0.74505805969E-08  0.93827000000E+00  0.93827000000E+00 0.  1.
     999902    2    1    2    0    0 -0.16096833925E-01 -0.16977504294E-01  0.51327558168E-02  0.10199781964E+01  0.10196969315E+01 0.  0.
     999903    2    3    3    0    0  0.65321679131E-01 -0.93638629472E-01  0.61347005689E-01  0.13112165887E+00  0.19857482822E-01 0.  0.
         14    1    1    2    0    0  0.16096833925E-01  0.16977504294E-01 -0.51327558168E-02  0.23951803622E-01  0.00000000000E+00 0.  1.
     999901    1    3    3    0    0 -0.81418513056E-01  0.76661125178E-01 -0.56214249872E-01  0.88885653751E+00  0.88000000000E+00 0.  1.
        -11    1    4    4    0    0  0.28839582300E-01 -0.26504604695E-01  0.16341915976E-01  0.42444492175E-01  0.51100000000E-03 0.  1.
         11    1    4    4    0    0  0.36482096831E-01 -0.67134024777E-01  0.45005089713E-01  0.88677166695E-01  0.51100000000E-03 0. -1.
</event>
<event>
 8    1  0.1051655E+005  0.1043930E+01  0.7957747E-01            NaN
         13   -1    0    0    0    0  0.00000000000E+00  0.00000000000E+00  0.74505805969E-08  0.10566000000E+00  0.10566000000E+00 0. -1.
     999900   -1    0    0    0    0 -0.00000000000E+00 -0.00000000000E+00 -0.74505805969E-08  0.93827000000E+00  0.93827000000E+00 0.  1.
     999902    2    1    2    0    0  0.65448148383E-02  0.18082072772E-01 -0.14765606703E-01  0.10196850191E+01  0.10193967427E+01 0.  0.
     999903    2    3    3    0    0 -0.20502828227E-01 -0.14872184670E-01  0.12359422843E+00  0.12785487718E+00  0.20731340417E-01 0.  0.
         14    1    1    2    0    0 -0.65448148383E-02 -0.18082072772E-01  0.14765606703E-01  0.24244980889E-01  0.00000000000E+00 0.  1.
     999901    1    3    3    0    0  0.27047643066E-01  0.32954257442E-01 -0.13835983513E+00  0.89183014193E+00  0.88000000000E+00 0.  1.
        -11    1    4    4    0    0 -0.10566884123E-01 -0.38561266098E-02  0.18066056341E-01  0.21287843132E-01  0.51100000000E-03 0. -1.
         11    1    4    4    0    0 -0.99359441041E-02 -0.11016058060E-01  0.10552817209E+00  0.10656703405E+00  0.51100000000E-03 0.  1.
</event>
<event>
 8    1  0.1051655E+005  0.1043930E+01  0.7957747E-01            NaN
         13   -1    0    0    0    0  0.00000000000E+00  0.00000000000E+00  0.74505805969E-08  0.10566000000E+00  0.10566000000E+00 0. -1.
     999900   -1    0    0    0    0 -0.00000000000E+00 -0.00000000000E+00 -0.74505805969E-08  0.93827000000E+00  0.93827000000E+00 0.  1.
     999902    2    1    2    0    0  0.13639366335E-01 -0.15061827760E-01 -0.13398772385E-01  0.10195903601E+01  0.10192998010E+01 0.  0.
     999903    2    3    3    0    0  0.13414904295E-02 -0.12738468198E+00 -0.29881618437E-01  0.13221256820E+00  0.18936611898E-01 0.  0.
         14    1    1    2    0    0 -0.13639366335E-01  0.15061827760E-01  0.13398772385E-01  0.24339639910E-01  0.00000000000E+00 0.  1.
     999901    1    3    3    0    0  0.12297875906E-01  0.11232285422E+00  0.16482846052E-01  0.88737779189E+00  0.88000000000E+00 0. -1.
        -11    1    4    4    0    0 -0.52461975805E-02 -0.88866549459E-01 -0.14413545397E-01  0.90182024893E-01  0.51100000000E-03 0.  1.
         11    1    4    4    0    0  0.65876880100E-02 -0.38518132517E-01 -0.15468073040E-01  0.42030543304E-01  0.51100000000E-03 0. -1.
</event>
<event>
 8    1  0.1051655E+005  0.1043930E+01  0.7957747E-01            NaN
         13   -1    0    0    0    0  0.00000000000E+00  0.00000000000E+00  0.74505805969E-08  0.10566000000E+00  0.10566000000E+00 0. -1.
     999900   -1    0    0    0    0 -0.00000000000E+00 -0.00000000000E+00 -0.74505805969E-08  0.93827000000E+00  0.93827000000E+00 0.  1.
     999902    2    1    2    0    0 -0.12147523081E-01 -0.10583561253E-01  0.17452990973E-01  0.10201775058E+01  0.10199009572E+01 0.  0.
     999903    2    3    3    0    0 -0.97250165236E-01  0.21563451948E-01  0.85395670234E-01  0.13288268569E+00  0.21043064516E-01 0.  0.
         14    1    1    2    0    0  0.12147523081E-01  0.10583561253E-01 -0.17452990973E-01  0.23752494179E-01  0.00000000000E+00 0.  1.
     999901    1    3    3    0    0  0.85102642155E-01 -0.32147013201E-01 -0.67942679261E-01  0.88729482013E+00  0.88000000000E+00 0. -1.
        -11    1    4    4    0    0 -0.16194854087E-01  0.45577003027E-02  0.25969061415E-01  0.30946715540E-01  0.51100000000E-03 0.  1.
         11    1    4    4    0    0 -0.81055311149E-01  0.17005751645E-01  0.59426608819E-01  0.10193597015E+00  0.51100000000E-03 0. -1.
</event>
<event>
 8    1  0.1051655E+005  0.1043930E+01  0.7957747E-01            NaN
         13   -1    0    0    0    0  0.00000000000E+00  0.00000000000E+00  0.74505805969E-08  0.10566000000E+00  0.10566000000E+00 0.  1.
     999900   -1    0    0    0    0 -0.00000000000E+00 -0.00000000000E+00 -0.74505805969E-08  0.93827000000E+00  0.93827000000E+00 0. -1.
     999902    2    1    2    0    0  0.69379641937E-02  0.64731652752E-02  0.22155322649E-01  0.10198282254E+01  0.10195433850E+01 0.  0.
     999903    2    3    3    0    0  0.76490092502E-01  0.10478524390E+00  0.54102851889E-02  0.13146841114E+00  0.20591026004E-01 0.  0.
         14    1    1    2    0    0 -0.69379641937E-02 -0.64731652752E-02 -0.22155322649E-01  0.24101774572E-01  0.00000000000E+00 0. -1.
     999901    1    3    3    0    0 -0.69552128309E-01 -0.98312078628E-01  0.16745037460E-01  0.88835981428E+00  0.88000000000E+00 0.  1.
        -11    1    4    4    0    0  0.57959168103E-01  0.65515413358E-01  0.87702492670E-02  0.87913098841E-01  0.51100000000E-03 0. -1.
         11    1    4    4    0    0  0.18530924399E-01  0.39269830545E-01 -0.33599640781E-02  0.43555312302E-01  0.51100000000E-03 0.  1.
</event>
<event>
 8    1  0.1051655E+005  0.1043930E+01  0.7957747E-01            NaN
         13   -1    0    0    0    0  0.00000000000E+00  0.00000000000E+00  0.74505805969E-08  0.10566000000E+00  0.10566000000E+00 0.  1.
     999900   -1    0    0    0    0 -0.00000000000E+00 -0.00000000000E+00 -0.74505805969E-08  0.93827000000E+00  0.93827000000E+00 0.  1.
     999902    2    1    2    0    0  0.22343183573E-01  0.16298672958E-02 -0.11909345829E-01  0.10185586217E+01  0.10182425836E+01 0.  0.
     999903    2    3    3    0    0  0.62571564658E-01  0.77365805386E-01 -0.83599886727E-01  0.13148828140E+00  0.19988960378E-01 0.  0.
         14    1    1    2    0    0 -0.22343183573E-01 -0.16298672958E-02  0.11909345829E-01  0.25371378316E-01  0.00000000000E+00 0.  1.
     999901    1    3    3    0    0 -0.40228381085E-01 -0.75735938090E-01  0.71690540898E-01  0.88707034029E+00  0.88000000000E+00 0.  1.
        -11    1    4    4    0    0  0.40459853139E-01  0.54997788114E-01 -0.45361267982E-01  0.81973545534E-01  0.51100000000E-03 0. -1.
         11    1    4    4    0    0  0.22111711519E-01  0.22368017272E-01 -0.38238618746E-01  0.49514735863E-01  0.51100000000E-03 0.  1.
</event>
<event>
 8    1  0.1051655E+005  0.1043930E+01  0.7957747E-01            NaN
         13   -1    0    0    0    0  0.00000000000E+00  0.00000000000E+00  0.74505805969E-08  0.10566000000E+00  0.10566000000E+00 0. -1.
     999900   -1    0    0    0    0 -0.00000000000E+00 -0.00000000000E+00 -0.74505805969E-08  0.93827000000E+00  0.93827000000E+00 0. -1.
     999902    2    1    2    0    0  0.11047943902E-01 -0.12774481855E-01  0.11609111410E-01  0.10234357101E+01  0.10232304905E+01 0.  0.
     999903    2    3    3    0    0  0.85230191825E-01  0.32048962433E-01  0.97662273791E-01  0.13500040360E+00  0.19896423267E-01 0.  0.
         14    1    1    2    0    0 -0.11047943902E-01  0.12774481855E-01 -0.11609111410E-01  0.20494289908E-01  0.00000000000E+00 0.  1.
     999901    1    3    3    0    0 -0.74182247923E-01 -0.44823444288E-01 -0.86053162381E-01  0.88843530649E+00  0.88000000000E+00 0. -1.
        -11    1    4    4    0    0  0.74135775868E-01  0.30729276161E-01  0.75547738329E-01  0.11021852641E+00  0.51100000000E-03 0. -1.
         11    1    4    4    0    0  0.11094415957E-01  0.13196862727E-02  0.22114535462E-01  0.24781877188E-01  0.51100000000E-03 0.  1.
</event>
<event>
 8    1  0.1051655E+005  0.1043930E+01  0.7957747E-01            NaN
         13   -1    0    0    0    0  0.00000000000E+00  0.00000000000E+00  0.74505805969E-08  0.10566000000E+00  0.10566000000E+00 0. -1.
     999900   -1    0    0    0    0 -0.00000000000E+00 -0.00000000000E+00 -0.74505805969E-08  0.93827000000E+00  0.93827000000E+00 0.  1.
     999902    2    1    2    0    0  0.11652524015E-01 -0.45837969071E-02 -0.21067225537E-01  0.10194224399E+01  0.10191278087E+01 0.  0.
     999903    2    3    3    0    0  0.34573540154E-01  0.24532968295E-01 -0.12434506442E+00  0.13260821415E+00  0.18056777218E-01 0.  0.
         14    1    1    2    0    0 -0.11652524015E-01  0.45837969071E-02  0.21067225537E-01  0.24507560095E-01  0.00000000000E+00 0. -1.
     999901    1    3    3    0    0 -0.22921016139E-01 -0.29116765202E-01  0.10327783888E+00  0.88681422575E+00  0.88000000000E+00 0. -1.
        -11    1    4    4    0    0  0.79054175019E-03  0.75394111883E-02 -0.30427202847E-01  0.31361496639E-01  0.51100000000E-03 0. -1.
         11    1    4    4    0    0  0.33782998404E-01  0.16993557107E-01 -0.93917861569E-01  0.10124671751E+00  0.51100000000E-03 0.  1.
</event>
<event>
 8    1  0.1051655E+005  0.1043930E+01  0.7957747E-01            NaN
         13   -1    0    0    0    0  0.00000000000E+00  0.00000000000E+00  0.74505805969E-08  0.10566000000E+00  0.10566000000E+00 0.  1.
     999900   -1    0    0    0    0 -0.00000000000E+00 -0.00000000000E+00 -0.74505805969E-08  0.93827000000E+00  0.93827000000E+00 0.  1.
     999902    2    1    2    0    0  0.96019902752E-02  0.10766450898E-01 -0.18619667200E-01  0.10203756652E+01  0.10201037650E+01 0.  0.
     999903    2    3    3    0    0 -0.90086497167E-01  0.78416897522E-01  0.46061118426E-01  0.12981517791E+00  0.21577001563E-01 0.  0.
         14    1    1    2    0    0 -0.96019902752E-02 -0.10766450898E-01  0.18619667200E-01  0.23554334820E-01  0.00000000000E+00 0.  1.
     999901    1    3    3    0    0  0.99688487443E-01 -0.67650446624E-01 -0.64680785625E-01  0.89056048727E+00  0.88000000000E+00 0.  1.
        -11    1    4    4    0    0 -0.89990065289E-01  0.74774964085E-01  0.46881074075E-01  0.12604603656E+00  0.51100000000E-03 0. -1.
         11    1    4    4    0    0 -0.96431878288E-04  0.36419334368E-02 -0.81995564914E-03  0.37691413521E-02  0.51100000000E-03 0.  1.
</event>
<event>
 8    1  0.1051655E+005  0.1043930E+01  0.7957747E-01            NaN
         13   -1    0    0    0    0  0.00000000000E+00  0.00000000000E+00  0.74505805969E-08  0.10566000000E+00  0.10566000000E+00 0. -1.
     999900   -1    0    0    0    0 -0.00000000000E+00 -0.00000000000E+00 -0.74505805969E-08  0.93827000000E+00  0.93827000000E+00 0.  1.
     999902    2    1    2    0    0  0.11738650102E-01  0.20072748286E-01 -0.53894164620E-02  0.10200604181E+01  0.10197811038E+01 0.  0.
     999903    2    3    3    0    0  0.64312278779E-01  0.28477292903E-01  0.10973354402E+00  0.13096654295E+00  0.12796846419E-01 0.  0.
         14    1    1    2    0    0 -0.11738650102E-01 -0.20072748286E-01  0.53894164620E-02  0.23869581894E-01  0.00000000000E+00 0.  1.
     999901    1    3    3    0    0 -0.52573628677E-01 -0.84045446167E-02 -0.11512296048E+00  0.88909387515E+00  0.88000000000E+00 0.  1.
        -11    1    4    4    0    0  0.19351974016E-01  0.25632322278E-02  0.27543894086E-01  0.33763830946E-01  0.51100000000E-03 0. -1.
         11    1    4    4    0    0  0.44960304763E-01  0.25914060675E-01  0.82189649931E-01  0.97202712009E-01  0.51100000000E-03 0.  1.
</event>
<event>
 8    1  0.1051655E+005  0.1043930E+01  0.7957747E-01            NaN
         13   -1    0    0    0    0  0.00000000000E+00  0.00000000000E+00  0.74505805969E-08  0.10566000000E+00  0.10566000000E+00 0.  1.
     999900   -1    0    0    0    0 -0.00000000000E+00 -0.00000000000E+00 -0.74505805969E-08  0.93827000000E+00  0.93827000000E+00 0. -1.
     999902    2    1    2    0    0 -0.12722421416E-01 -0.11521415993E-01  0.12384456114E-01  0.10227645143E+01  0.10225454874E+01 0.  0.
     999903    2    3    3    0    0  0.55087183821E-02  0.10784709889E+00  0.74028722651E-01  0.13238188168E+00  0.19579788153E-01 0.  0.
         14    1    1    2    0    0  0.12722421416E-01  0.11521415993E-01 -0.12384456114E-01  0.21165485735E-01  0.00000000000E+00 0. -1.
     999901    1    3    3    0    0 -0.18231139798E-01 -0.11936851488E+00 -0.61644266537E-01  0.89038263258E+00  0.88000000000E+00 0.  1.
        -11    1    4    4    0    0  0.66346609444E-02  0.13771252941E-01  0.67518084962E-02  0.16718677352E-01  0.51100000000E-03 0.  1.
         11    1    4    4    0    0 -0.11259425623E-02  0.94075845947E-01  0.67276914155E-01  0.11566320433E+00  0.51100000000E-03 0. -1.
</event>
<event>
 8    1  0.1051655E+005  0.1043930E+01  0.7957747E-01            NaN
         13   -1    0    0    0    0  0.00000000000E+00  0.00000000000E+00  0.74505805969E-08  0.10566000000E+00  0.10566000000E+00 0. -1.
     999900   -1    0    0    0    0 -0.00000000000E+00 -0.00000000000E+00 -0.74505805969E-08  0.93827000000E+00  0.93827000000E+00 0.  1.
     999902    2    1    2    0    0 -0.12350474794E-01 -0.15614588977E-01  0.13198629856E-01  0.10200437394E+01  0.10197640300E+01 0.  0.
     999903    2    3    3    0    0  0.14670036879E-01 -0.11128553845E+00 -0.64567988710E-01  0.13103829193E+00  0.20058108974E-01 0.  0.
         14    1    1    2    0    0  0.12350474794E-01  0.15614588977E-01 -0.13198629856E-01  0.23886260624E-01  0.00000000000E+00 0.  1.
     999901    1    3    3    0    0 -0.27020511673E-01  0.95670949474E-01  0.77766618566E-01  0.88900544745E+00  0.88000000000E+00 0.  1.
        -11    1    4    4    0    0  0.93173257468E-02 -0.10578218601E+00 -0.58506762955E-01  0.12124349825E+00  0.51100000000E-03 0.  1.
         11    1    4    4    0    0  0.53527111319E-02 -0.55033524445E-02 -0.60612257551E-02  0.97947936806E-02  0.51100000000E-03 0. -1.
</event>
<event>
 8    1  0.1051655E+005  0.1043930E+01  0.7957747E-01            NaN
         13   -1    0    0    0    0  0.00000000000E+00  0.00000000000E+00  0.74505805969E-08  0.10566000000E+00  0.10566000000E+00 0.  1.
     999900   -1    0    0    0    0 -0.00000000000E+00 -0.00000000000E+00 -0.74505805969E-08  0.93827000000E+00  0.93827000000E+00 0. -1.
     999902    2    1    2    0    0 -0.92645052583E-02  0.12997921037E-02 -0.21936205622E-01  0.10200821985E+01  0.10198033998E+01 0.  0.
     999903    2    3    3    0    0  0.11316657519E+00  0.27903955952E-01  0.49696926243E-01  0.12832637065E+00  0.20311780529E-01 0.  0.
         14    1    1    2    0    0  0.92645052583E-02 -0.12997921037E-02  0.21936205622E-01  0.23847801456E-01  0.00000000000E+00 0.  1.
     999901    1    3    3    0    0 -0.12243108045E+00 -0.26604163849E-01 -0.71633131865E-01  0.89175582789E+00  0.88000000000E+00 0. -1.
        -11    1    4    4    0    0  0.44015245665E-01  0.23752181590E-02  0.24444280695E-01  0.50406026346E-01  0.51100000000E-03 0. -1.
         11    1    4    4    0    0  0.69151329530E-01  0.25528737793E-01  0.25252645548E-01  0.77920344309E-01  0.51100000000E-03 0.  1.
</event>
<event>
 8    1  0.1051655E+005  0.1043930E+01  0.7957747E-01            NaN
         13   -1    0    0    0    0  0.00000000000E+00  0.00000000000E+00  0.74505805969E-08  0.10566000000E+00  0.10566000000E+00 0.  1.
     999900   -1    0    0    0    0 -0.00000000000E+00 -0.00000000000E+00 -0.74505805969E-08  0.93827000000E+00  0.93827000000E+00 0.  1.
     999902    2    1    2    0    0  0.16549474186E-01 -0.15259209215E-02 -0.16071322950E-01  0.10208107234E+01  0.10205488876E+01 0.  0.
     999903    2    3    3    0    0  0.44558028454E-01 -0.44963607550E-01 -0.11594815449E+00  0.13365420211E+00  0.20305844232E-01 0.  0.
         14    1    1    2    0    0 -0.16549474186E-01  0.15259209215E-02  0.16071322950E-01  0.23119276629E-01  0.00000000000E+00 0.  1.
     999901    1    3    3    0    0 -0.28008554268E-01  0.43437686629E-01  0.99876831537E-01  0.88715652126E+00  0.88000000000E+00 0. -1.
        -11    1    4    4    0    0  0.10147729073E-02 -0.75605424271E-02 -0.24653908128E-01  0.25812165210E-01  0.51100000000E-03 0. -1.
         11    1    4    4    0    0  0.43543255546E-01 -0.37403065123E-01 -0.91294246359E-01  0.10784203690E+00  0.51100000000E-03 0.  1.
</event>
<event>
 8    1  0.1051655E+005  0.1043930E+01  0.7957747E-01            NaN
         13   -1    0    0    0    0  0.00000000000E+00  0.00000000000E+00  0.74505805969E-08  0.10566000000E+00  0.10566000000E+00 0. -1.
     999900   -1    0    0    0    0 -0.00000000000E+00 -0.00000000000E+00 -0.74505805969E-08  0.93827000000E+00  0.93827000000E+00 0. -1.
     999902    2    1    2    0    0 -0.13888288155E-01 -0.22584595055E-01  0.10903325369E-01  0.10152624053E+01  0.10148575864E+01 0.  0.
     999903    2    3    3    0    0 -0.96945157848E-01 -0.71890900522E-01 -0.39385745426E-01  0.12855019381E+00  0.20180440496E-01 0.  0.
         14    1    1    2    0    0  0.13888288155E-01  0.22584595055E-01 -0.10903325369E-01  0.28667594698E-01  0.00000000000E+00 0. -1.
     999901    1    3    3    0    0  0.83056869693E-01  0.49306305467E-01  0.50289070795E-01  0.88671221149E+00  0.88000000000E+00 0.  1.
        -11    1    4    4    0    0 -0.66223386360E-01 -0.59957250283E-01 -0.30706212394E-01  0.94464497898E-01  0.51100000000E-03 0. -1.
         11    1    4    4    0    0 -0.30721771488E-01 -0.11933650239E-01 -0.86795330323E-02  0.34085695916E-01  0.51100000000E-03 0.  1.
</event>
<event>
 8    1  0.1051655E+005  0.1043930E+01  0.7957747E-01            NaN
         13   -1    0    0    0    0  0.00000000000E+00  0.00000000000E+00  0.74505805969E-08  0.10566000000E+00  0.10566000000E+00 0.  1.
     999900   -1    0    0    0    0 -0.00000000000E+00 -0.00000000000E+00 -0.74505805969E-08  0.93827000000E+00  0.93827000000E+00 0. -1.
     999902    2    1    2    0    0 -0.18603386163E-01  0.43275649887E-02  0.28712822916E-01  0.10094446409E+01  0.10088554123E+01 0.  0.
     999903    2    3    3    0    0  0.52038889348E-01 -0.87608584111E-03  0.10979770586E+00  0.12288264792E+00  0.18324721497E-01 0.  0.
         14    1    1    2    0    0  0.18603386163E-01 -0.43275649887E-02 -0.28712822916E-01  0.34485359144E-01  0.00000000000E+00 0. -1.
     999901    1    3    3    0    0 -0.70642275511E-01  0.52036508299E-02 -0.81084882942E-01  0.88656199293E+00  0.88000000000E+00 0. -1.
        -11    1    4    4    0    0  0.17337129829E-01  0.41595295021E-02  0.21881030368E-01  0.28229742601E-01  0.51100000000E-03 0.  1.
         11    1    4    4    0    0  0.34701759519E-01 -0.50356153432E-02  0.87916675491E-01  0.94652905322E-01  0.51100000000E-03 0. -1.
</event>
<event>
 8    1  0.1051655E+005  0.1043930E+01  0.7957747E-01            NaN
         13   -1    0    0    0    0  0.00000000000E+00  0.00000000000E+00  0.74505805969E-08  0.10566000000E+00  0.10566000000E+00 0.  1.
     999900   -1    0    0    0    0 -0.00000000000E+00 -0.00000000000E+00 -0.74505805969E-08  0.93827000000E+00  0.93827000000E+00 0. -1.
     999902    2    1    2    0    0  0.17224960532E-01  0.13738703310E-01 -0.10332274267E-01  0.10195946938E+01  0.10193042395E+01 0.  0.
     999903    2    3    3    0    0 -0.10868345905E+00  0.49048622179E-02  0.62809599562E-01  0.12758533259E+00  0.22289444798E-01 0.  0.
         14    1    1    2    0    0 -0.17224960532E-01 -0.13738703310E-01  0.10332274267E-01  0.24335306151E-01  0.00000000000E+00 0.  1.
     999901    1    3    3    0    0  0.12590841958E+00  0.88338410925E-02 -0.73141873828E-01  0.89200936126E+00  0.88000000000E+00 0. -1.
        -11    1    4    4    0    0 -0.62050760341E-01 -0.37488458504E-02  0.45723013340E-01  0.77169979746E-01  0.51100000000E-03 0.  1.
         11    1    4    4    0    0 -0.46632698711E-01  0.86537080683E-02  0.17086586222E-01  0.50415352841E-01  0.51100000000E-03 0. -1.
</event>
<event>
 8    1  0.1051655E+005  0.1043930E+01  0.7957747E-01            NaN
         13   -1    0    0    0    0  0.00000000000E+00  0.00000000000E+00  0.74505805969E-08  0.10566000000E+00  0.10566000000E+00 0. -1.
     999900   -1    0    0    0    0 -0.00000000000E+00 -0.00000000000E+00 -0.74505805969E-08  0.93827000000E+00  0.93827000000E+00 0.  1.
     999902    2    1    2    0    0  0.30721017356E-02  0.19470932636E-01 -0.13400737468E-01  0.10200944217E+01  0.10198159120E+01 0.  0.
     999903    2    3    3    0    0  0.76428067003E-01  0.59480397554E-01 -0.88914371560E-01  0.13291678233E+00  0.19543245258E-01 0.  0.
         14    1    1    2    0    0 -0.30721017356E-02 -0.19470932636E-01  0.13400737468E-01  0.23835578270E-01  0.00000000000E+00 0. -1.
     999901    1    3    3    0    0 -0.73355965267E-01 -0.40009464918E-01  0.75513634092E-01  0.88717763940E+00  0.88000000000E+00 0. -1.
        -11    1    4    4    0    0  0.39638927077E-01  0.36225601207E-01 -0.60706812382E-01  0.81050088916E-01  0.51100000000E-03 0.  1.
         11    1    4    4    0    0  0.36789139926E-01  0.23254796347E-01 -0.28207559178E-01  0.51866693411E-01  0.51100000000E-03 0. -1.
</event>
<event>
 8    1  0.1051655E+005  0.1043930E+01  0.7957747E-01            NaN
         13   -1    0    0    0    0  0.00000000000E+00  0.00000000000E+00  0.74505805969E-08  0.10566000000E+00  0.10566000000E+00 0. -1.
     999900   -1    0    0    0    0 -0.00000000000E+00 -0.00000000000E+00 -0.74505805969E-08  0.93827000000E+00  0.93827000000E+00 0. -1.
     999902    2    1    2    0    0  0.11022414852E-01 -0.19068465510E-01  0.83886761306E-02  0.10203615912E+01  0.10200893622E+01 0.  0.
     999903    2    3    3    0    0  0.35980578643E-01  0.79602184250E-01  0.94560866025E-01  0.13031414675E+00  0.20221515348E-01 0.  0.
         14    1    1    2    0    0 -0.11022414852E-01  0.19068465510E-01 -0.83886761306E-02  0.23568408798E-01  0.00000000000E+00 0.  1.
     999901    1    3    3    0    0 -0.24958163791E-01 -0.98670649760E-01 -0.86172189894E-01  0.89004744445E+00  0.88000000000E+00 0.  1.
        -11    1    4    4    0    0  0.19821057421E-01  0.22334239578E-01  0.26725062167E-01  0.40077208531E-01  0.51100000000E-03 0. -1.
         11    1    4    4    0    0  0.16159521222E-01  0.57267944673E-01  0.67835803858E-01  0.90236938219E-01  0.51100000000E-03 0.  1.
</event>
<event>
 8    1  0.1051655E+005  0.1043930E+01  0.7957747E-01            NaN
         13   -1    0    0    0    0  0.00000000000E+00  0.00000000000E+00  0.74505805969E-08  0.10566000000E+00  0.10566000000E+00 0. -1.
     999900   -1    0    0    0    0 -0.00000000000E+00 -0.00000000000E+00 -0.74505805969E-08  0.93827000000E+00  0.93827000000E+00 0.  1.
     999902    2    1    2    0    0 -0.14837193136E-01  0.11905133160E-01  0.14328024503E-01  0.10201147364E+01  0.10198367068E+01 0.  0.
     999903    2    3    3    0    0  0.15495603422E-01 -0.83860047911E-01  0.96810696925E-01  0.13056741345E+00  0.20072793928E-01 0.  0.
         14    1    1    2    0    0  0.14837193136E-01 -0.11905133160E-01 -0.14328024503E-01  0.23815263632E-01  0.00000000000E+00 0.  1.
     999901    1    3    3    0    0 -0.30332796558E-01  0.95765181071E-01 -0.82482672423E-01  0.88954732291E+00  0.88000000000E+00 0.  1.
        -11    1    4    4    0    0  0.47795181516E-02 -0.53881555871E-02  0.30671876104E-02  0.78450478157E-02  0.51100000000E-03 0. -1.
         11    1    4    4    0    0  0.10716085270E-01 -0.78471892323E-01  0.93743509315E-01  0.12272236564E+00  0.51100000000E-03 0.  1.
</event>
<event>
 8    1  0.1051655E+005  0.1043930E+01  0.7957747E-01            NaN
         13   -1    0    0    0    0  0.00000000000E+00  0.00000000000E+00  0.74505805969E-08  0.10566000000E+00  0.10566000000E+00 0. -1.
     999900   -1    0    0    0    0 -0.00000000000E+00 -0.00000000000E+00 -0.74505805969E-08  0.93827000000E+00  0.93827000000E+00 0.  1.
     999902    2    1    2    0    0 -0.22345722368E-01  0.56635354438E-02  0.49134455171E-03  0.10208724988E+01  0.10206120764E+01 0.  0.
     999903    2    3    3    0    0  0.11199067932E+00  0.29464861144E-01  0.52880279804E-01  0.12882016152E+00  0.19703292224E-01 0.  0.
         14    1    1    2    0    0  0.22345722368E-01 -0.56635354438E-02 -0.49134455171E-03  0.23057501195E-01  0.00000000000E+00 0. -1.
     999901    1    3    3    0    0 -0.13433640169E+00 -0.23801325700E-01 -0.52388935252E-01  0.89205233729E+00  0.88000000000E+00 0. -1.
        -11    1    4    4    0    0  0.62707469891E-01  0.77493856190E-02  0.33969294083E-01  0.71738788804E-01  0.51100000000E-03 0. -1.
         11    1    4    4    0    0  0.49283209429E-01  0.21715475525E-01  0.18910985721E-01  0.57081372713E-01  0.51100000000E-03 0.  1.
</event>
<event>
 8    1  0.1051655E+005  0.1043930E+01  0.7957747E-01            NaN
         13   -1    0    0    0    0  0.00000000000E+00  0.00000000000E+00  0.74505805969E-08  0.10566000000E+00  0.10566000000E+00 0. -1.
     999900   -1    0    0    0    0 -0.00000000000E+00 -0.00000000000E+00 -0.74505805969E-08  0.93827000000E+00  0.93827000000E+00 0. -1.
     999902    2    1    2    0    0  0.15341633640E-01 -0.16570632806E-01 -0.15339740289E-03  0.10213473712E+01  0.10210976826E+01 0.  0.
     999903    2    3    3    0    0  0.13175554964E+00 -0.24061550033E-02  0.84334800657E-02  0.13352612410E+00  0.19818874588E-01 0.  0.
         14    1    1    2    0    0 -0.15341633640E-01  0.16570632806E-01  0.15339740289E-03  0.22582628835E-01  0.00000000000E+00 0. -1.
     999901    1    3    3    0    0 -0.11641391600E+00 -0.14164477803E-01 -0.85868774686E-02  0.88782124706E+00  0.88000000000E+00 0. -1.
        -11    1    4    4    0    0  0.84154089880E-01 -0.10155388490E-01  0.93988975550E-02  0.85285656210E-01  0.51100000000E-03 0.  1.
         11    1    4    4    0    0  0.47601459757E-01  0.77492334867E-02 -0.96541748931E-03  0.48240467894E-01  0.51100000000E-03 0. -1.
</event>
<event>
 8    1  0.1051655E+005  0.1043930E+01  0.7957747E-01            NaN
         13   -1    0    0    0    0  0.00000000000E+00  0.00000000000E+00  0.74505805969E-08  0.10566000000E+00  0.10566000000E+00 0.  1.
     999900   -1    0    0    0    0 -0.00000000000E+00 -0.00000000000E+00 -0.74505805969E-08  0.93827000000E+00  0.93827000000E+00 0.  1.
     999902    2    1    2    0    0 -0.19208531557E-01  0.10201725662E-01  0.11145693574E-01  0.10194909048E+01  0.10191979374E+01 0.  0.
     999903    2    3    3    0    0 -0.28929033106E-01 -0.26632446785E-01 -0.12094947098E+00  0.12881679100E+00  0.20464968522E-01 0.  0.
         14    1    1    2    0    0  0.19208531557E-01 -0.10201725662E-01 -0.11145693574E-01  0.24439095243E-01  0.00000000000E+00 0. -1.
     999901    1    3    3    0    0  0.97205015490E-02  0.36834172446E-01  0.13209516455E+00  0.89067411375E+00  0.88000000000E+00 0. -1.
        -11    1    4    4    0    0 -0.25429361138E-01 -0.29953283795E-01 -0.10360646427E+00  0.11080799690E+00  0.51100000000E-03 0. -1.
         11    1    4    4    0    0 -0.34996719685E-02  0.33208370100E-02 -0.17343006711E-01  0.18008794105E-01  0.51100000000E-03 0.  1.
</event>
<event>
 8    1  0.1051655E+005  0.1043930E+01  0.7957747E-01            NaN
         13   -1    0    0    0    0  0.00000000000E+00  0.00000000000E+00  0.74505805969E-08  0.10566000000E+00  0.10566000000E+00 0. -1.
     999900   -1    0    0    0    0 -0.00000000000E+00 -0.00000000000E+00 -0.74505805969E-08  0.93827000000E+00  0.93827000000E+00 0.  1.
     999902    2    1    2    0    0  0.16333088850E-02 -0.11733079371E-01  0.20302456200E-01  0.10204242012E+01  0.10201534335E+01 0.  0.
     999903    2    3    3    0    0 -0.50639766110E-02 -0.52865546183E-01  0.12100247117E+00  0.13370145622E+00  0.20348747724E-01 0.  0.
         14    1    1    2    0    0 -0.16333088850E-02  0.11733079371E-01 -0.20302456200E-01  0.23505798799E-01  0.00000000000E+00 0.  1.
     999901    1    3    3    0    0  0.66972854960E-02  0.41132466812E-01 -0.10070001497E+00  0.88672274498E+00  0.88000000000E+00 0.  1.
        -11    1    4    4    0    0 -0.10608450067E-01 -0.46545710668E-01  0.94212796001E-01  0.10561891140E+00  0.51100000000E-03 0. -1.
         11    1    4    4    0    0  0.55444734560E-02 -0.63198355150E-02  0.26789675165E-01  0.28082544815E-01  0.51100000000E-03 0.  1.
</event>
<event>
 8    1  0.1051655E+005  0.1043930E+01  0.7957747E-01            NaN
         13   -1    0    0    0    0  0.00000000000E+00  0.00000000000E+00  0.74505805969E-08  0.10566000000E+00  0.10566000000E+00 0.  1.
     999900   -1    0    0    0    0 -0.00000000000E+00 -0.00000000000E+00 -0.74505805969E-08  0.93827000000E+00  0.93827000000E+00 0.  1.
     999902    2    1    2    0    0  0.13716980878E-01  0.57630921673E-02  0.58802331148E-02  0.10279316896E+01  0.10278071864E+01 0.  0.
     999903    2    3    3    0    0  0.70131013432E-01  0.11802756888E+00 -0.43395002344E-02  0.13894895701E+00  0.20955078938E-01 0.  0.
         14    1    1    2    0    0 -0.13716980878E-01 -0.57630921673E-02 -0.58802331148E-02  0.15998310449E-01  0.00000000000E+00 0. -1.
     999901    1    3    3    0    0 -0.56414032555E-01 -0.11226447671E+00  0.10219733349E-01  0.88898273254E+00  0.88000000000E+00 0. -1.
        -11    1    4    4    0    0  0.51807523932E-01  0.67432507852E-01 -0.40667019694E-02  0.85134962483E-01  0.51100000000E-03 0.  1.
         11    1    4    4    0    0  0.18323489501E-01  0.50595061023E-01 -0.27279826503E-03  0.53813994531E-01  0.51100000000E-03 0. -1.
</event>
<event>
 8    1  0.1051655E+005  0.1043930E+01  0.7957747E-01            NaN
         13   -1    0    0    0    0  0.00000000000E+00  0.00000000000E+00  0.74505805969E-08  0.10566000000E+00  0.10566000000E+00 0. -1.
     999900   -1    0    0    0    0 -0.00000000000E+00 -0.00000000000E+00 -0.74505805969E-08  0.93827000000E+00  0.93827000000E+00 0. -1.
     999902    2    1    2    0    0 -0.20231720305E-02  0.51304519851E-02 -0.24164523392E-01  0.10191441380E+01  0.10188426940E+01 0.  0.
     999903    2    3    3    0    0  0.45694620568E-02 -0.51063239227E-01 -0.12018695781E+00  0.13211454345E+00  0.19519564009E-01 0.  0.
         14    1    1    2    0    0  0.20231720305E-02 -0.51304519851E-02  0.24164523392E-01  0.24785861966E-01  0.00000000000E+00 0. -1.
     999901    1    3    3    0    0 -0.65926340873E-02  0.56193691212E-01  0.96022434420E-01  0.88702959458E+00  0.88000000000E+00 0.  1.
        -11    1    4    4    0    0 -0.53927990859E-02 -0.38155393918E-01 -0.83519348783E-01  0.91981841193E-01  0.51100000000E-03 0.  1.
         11    1    4    4    0    0  0.99622611427E-02 -0.12907845308E-01 -0.36667609029E-01  0.40132702257E-01  0.51100000000E-03 0. -1.
</event>
<event>
 8    1  0.1051655E+005  0.1043930E+01  0.7957747E-01            NaN
         13   -1    0    0    0    0  0.00000000000E+00  0.00000000000E+00  0.74505805969E-08  0.10566000000E+00  0.10566000000E+00 0.  1.
     999900   -1    0    0    0    0 -0.00000000000E+00 -0.00000000000E+00 -0.74505805969E-08  0.93827000000E+00  0.93827000000E+00 0. -1.
     999902    2    1    2    0    0  0.13708812340E-01 -0.17676975653E-01  0.50108307525E-02  0.10210058767E+01  0.10207484924E+01 0.  0.
     999903    2    3    3    0    0  0.50613240396E-01 -0.92089162435E-01 -0.79158935840E-01  0.13309616285E+00  0.20157814870E-01 0.  0.
         14    1    1    2    0    0 -0.13708812340E-01  0.17676975653E-01 -0.50108307525E-02  0.22924123295E-01  0.00000000000E+00 0.  1.
     999901    1    3    3    0    0 -0.36904428057E-01  0.74412186782E-01  0.84169766593E-01  0.88790971386E+00  0.88000000000E+00 0.  1.
        -11    1    4    4    0    0  0.19047970337E-01 -0.18675075867E-01 -0.14956605716E-01  0.30586676971E-01  0.51100000000E-03 0. -1.
         11    1    4    4    0    0  0.31565270060E-01 -0.73414086569E-01 -0.64202330124E-01  0.10250948588E+00  0.51100000000E-03 0.  1.
</event>
<event>
 8    1  0.1051655E+005  0.1043930E+01  0.7957747E-01            NaN
         13   -1    0    0    0    0  0.00000000000E+00  0.00000000000E+00  0.74505805969E-08  0.10566000000E+00  0.10566000000E+00 0. -1.
     999900   -1    0    0    0    0 -0.00000000000E+00 -0.00000000000E+00 -0.74505805969E-08  0.93827000000E+00  0.93827000000E+00 0.  1.
     999902    2    1    2    0    0 -0.12823799096E-01 -0.15803146372E-01  0.10802701808E-01  0.10208890012E+01  0.10206289557E+01 0.  0.
     999903    2    3    3    0    0 -0.11258108721E+00 -0.39196603207E-01 -0.53444509671E-01  0.13261737917E+00  0.22807427398E-01 0.  0.
         14    1    1    2    0    0  0.12823799096E-01  0.15803146372E-01 -0.10802701808E-01  0.23040998782E-01  0.00000000000E+00 0. -1.
     999901    1    3    3    0    0  0.99757288109E-01  0.23393456834E-01  0.64247211479E-01  0.88827162205E+00  0.88000000000E+00 0. -1.
        -11    1    4    4    0    0 -0.55431130592E-01 -0.11683361869E-01 -0.15617700000E-01  0.58764656534E-01  0.51100000000E-03 0.  1.
         11    1    4    4    0    0 -0.57149956614E-01 -0.27513241337E-01 -0.37826809671E-01  0.73852722636E-01  0.51100000000E-03 0. -1.
</event>
<event>
 8    1  0.1051655E+005  0.1043930E+01  0.7957747E-01            NaN
         13   -1    0    0    0    0  0.00000000000E+00  0.00000000000E+00  0.74505805969E-08  0.10566000000E+00  0.10566000000E+00 0.  1.
     999900   -1    0    0    0    0 -0.00000000000E+00 -0.00000000000E+00 -0.74505805969E-08  0.93827000000E+00  0.93827000000E+00 0.  1.
     999902    2    1    2    0    0 -0.22514399196E-01 -0.13370996551E-01 -0.44350669188E-02  0.10173715449E+01  0.10170248319E+01 0.  0.
     999903    2    3    3    0    0 -0.25383676883E-02 -0.10943672519E+00  0.64764640653E-01  0.12921825542E+00  0.22804796062E-01 0.  0.
         14    1    1    2    0    0  0.22514399196E-01  0.13370996551E-01  0.44350669188E-02  0.26558455122E-01  0.00000000000E+00 0.  1.
     999901    1    3    3    0    0 -0.19976031507E-01  0.96065728638E-01 -0.69199707571E-01  0.88815328946E+00  0.88000000000E+00 0.  1.
        -11    1    4    4    0    0  0.77758754617E-02 -0.55908050460E-01  0.40897798907E-01  0.69706996936E-01  0.51100000000E-03 0.  1.
         11    1    4    4    0    0 -0.10314243150E-01 -0.53528674729E-01  0.23866841745E-01  0.59511258480E-01  0.51100000000E-03 0. -1.
</event>
<event>
 8    1  0.1051655E+005  0.1043930E+01  0.7957747E-01            NaN
         13   -1    0    0    0    0  0.00000000000E+00  0.00000000000E+00  0.74505805969E-08  0.10566000000E+00  0.10566000000E+00 0.  1.
     999900   -1    0    0    0    0 -0.00000000000E+00 -0.00000000000E+00 -0.74505805969E-08  0.93827000000E+00  0.93827000000E+00 0. -1.
     999902    2    1    2    0    0  0.19474513121E-01  0.12405457853E-01 -0.69155531748E-02  0.10198265371E+01  0.10195416563E+01 0.  0.
     999903    2    3    3    0    0 -0.92564149871E-01  0.18176420897E-01 -0.86006458841E-01  0.12918556718E+00  0.19831683941E-01 0.  0.
         14    1    1    2    0    0 -0.19474513121E-01 -0.12405457853E-01  0.69155531748E-02  0.24103462853E-01  0.00000000000E+00 0.  1.
     999901    1    3    3    0    0  0.11203866299E+00 -0.57709630445E-02  0.79090905666E-01  0.89064096996E+00  0.88000000000E+00 0.  1.
        -11    1    4    4    0    0 -0.22718754385E-01  0.10042944104E-01 -0.13905930242E-01  0.28471714806E-01  0.51100000000E-03 0. -1.
         11    1    4    4    0    0 -0.69845395486E-01  0.81334767927E-02 -0.72100528598E-01  0.10071385238E+00  0.51100000000E-03 0.  1.
</event>
<event>
 8    1  0.1051655E+005  0.1043930E+01  0.7957747E-01            NaN
         13   -1    0    0    0    0  0.00000000000E+00  0.00000000000E+00  0.74505805969E-08  0.10566000000E+00  0.10566000000E+00 0.  1.
     999900   -1    0    0    0    0 -0.00000000000E+00 -0.00000000000E+00 -0.74505805969E-08  0.93827000000E+00  0.93827000000E+00 0.  1.
     999902    2    1    2    0    0 -0.73321058724E-02 -0.21289345541E-01 -0.33886501392E-02  0.10211598669E+01  0.10209059677E+01 0.  0.
     999903    2    3    3    0    0  0.38350894019E-01  0.10331189467E+00  0.63460128924E-01  0.12870193246E+00  0.19820716557E-01 0.  0.
         14    1    1    2    0    0  0.73321058724E-02  0.21289345541E-01  0.33886501392E-02  0.22770133066E-01  0.00000000000E+00 0. -1.
     999901    1    3    3    0    0 -0.45682999892E-01 -0.12460124021E+00 -0.66848779063E-01  0.89245793447E+00  0.88000000000E+00 0.  1.
        -11    1    4    4    0    0  0.11261102100E-01  0.57753464218E-01  0.36343510493E-01  0.69162033846E-01  0.51100000000E-03 0. -1.
         11    1    4    4    0    0  0.27089791919E-01  0.45558430447E-01  0.27116618431E-01  0.59539898616E-01  0.51100000000E-03 0.  1.
</event>
<event>
 8    1  0.1051655E+005  0.1043930E+01  0.7957747E-01            NaN
         13   -1    0    0    0    0  0.00000000000E+00  0.00000000000E+00  0.74505805969E-08  0.10566000000E+00  0.10566000000E+00 0.  1.
     999900   -1    0    0    0    0 -0.00000000000E+00 -0.00000000000E+00 -0.74505805969E-08  0.93827000000E+00  0.93827000000E+00 0. -1.
     999902    2    1    2    0    0 -0.16660738511E-01  0.10045362737E-01 -0.10131517816E-01  0.10219951607E+01  0.10217597425E+01 0.  0.
     999903    2    3    3    0    0  0.55882374647E-01 -0.14750829262E-01 -0.11711517196E+00  0.13220706424E+00  0.20550366707E-01 0.  0.
         14    1    1    2    0    0  0.16660738511E-01 -0.10045362737E-01  0.10131517816E-01  0.21934839264E-01  0.00000000000E+00 0.  1.
     999901    1    3    3    0    0 -0.72543113159E-01  0.24796191999E-01  0.10698365415E+00  0.88978809649E+00  0.88000000000E+00 0.  1.
        -11    1    4    4    0    0  0.51698775473E-01 -0.19165988571E-01 -0.10753603816E+00  0.12084849659E+00  0.51100000000E-03 0. -1.
         11    1    4    4    0    0  0.41835991740E-02  0.44151593093E-02 -0.95791338057E-02  0.11358567658E-01  0.51100000000E-03 0.  1.
</event>
<event>
 8    1  0.1051655E+005  0.1043930E+01  0.7957747E-01            NaN
         13   -1    0    0    0    0  0.00000000000E+00  0.00000000000E+00  0.74505805969E-08  0.10566000000E+00  0.10566000000E+00 0.  1.
     999900   -1    0    0    0    0 -0.00000000000E+00 -0.00000000000E+00 -0.74505805969E-08  0.93827000000E+00  0.93827000000E+00 0.  1.
     999902    2    1    2    0    0  0.20331740827E-01 -0.53667220616E-02 -0.93165342050E-02  0.10209304522E+01  0.10206713521E+01 0.  0.
     999903    2    3    3    0    0  0.38331990294E-01  0.11786117371E+00  0.37088890243E-01  0.13095147113E+00  0.20300351305E-01 0.  0.
         14    1    1    2    0    0 -0.20331740827E-01  0.53667220616E-02  0.93165342050E-02  0.22999547829E-01  0.00000000000E+00 0. -1.
     999901    1    3    3    0    0 -0.18000249467E-01 -0.12322789577E+00 -0.46405424448E-01  0.88997898104E+00  0.88000000000E+00 0.  1.
        -11    1    4    4    0    0  0.26239507515E-01  0.69521507673E-01  0.31838847934E-01  0.80843831815E-01  0.51100000000E-03 0.  1.
         11    1    4    4    0    0  0.12092482779E-01  0.48339666038E-01  0.52500423082E-02  0.50107639314E-01  0.51100000000E-03 0. -1.
</event>
<event>
 8    1  0.1051655E+005  0.1043930E+01  0.7957747E-01            NaN
         13   -1    0    0    0    0  0.00000000000E+00  0.00000000000E+00  0.74505805969E-08  0.10566000000E+00  0.10566000000E+00 0.  1.
     999900   -1    0    0    0    0 -0.00000000000E+00 -0.00000000000E+00 -0.74505805969E-08  0.93827000000E+00  0.93827000000E+00 0.  1.
     999902    2    1    2    0    0 -0.16143161374E-01  0.12953907895E-01  0.10696209142E-01  0.10206316250E+01  0.10203656696E+01 0.  0.
     999903    2    3    3    0    0  0.44046877806E-01 -0.11507537817E+00  0.32625364922E-01  0.12906265581E+00  0.20255482778E-01 0.  0.
         14    1    1    2    0    0  0.16143161374E-01 -0.12953907895E-01 -0.10696209142E-01  0.23298375027E-01  0.00000000000E+00 0. -1.
     999901    1    3    3    0    0 -0.60190039180E-01  0.12802928606E+00 -0.21929155780E-01  0.89156896917E+00  0.88000000000E+00 0. -1.
        -11    1    4    4    0    0  0.27185492162E-01 -0.93621962524E-01  0.27493495312E-01  0.10129302176E+00  0.51100000000E-03 0. -1.
         11    1    4    4    0    0  0.16861385644E-01 -0.21453415645E-01  0.51318696093E-02  0.27769634051E-01  0.51100000000E-03 0.  1.
</event>
<event>
 8    1  0.1051655E+005  0.1043930E+01  0.7957747E-01            NaN
         13   -1    0    0    0    0  0.00000000000E+00  0.00000000000E+00  0.74505805969E-08  0.10566000000E+00  0.10566000000E+00 0. -1.
     999900   -1    0    0    0    0 -0.00000000000E+00 -0.00000000000E+00 -0.74505805969E-08  0.93827000000E+00  0.93827000000E+00 0.  1.
     999902    2    1    2    0    0  0.10816400173E-01 -0.19415439110E-01 -0.73418118234E-02  0.10205236763E+01  0.10202552219E+01 0.  0.
     999903    2    3    3    0    0 -0.11735842500E+00 -0.44994957098E-01  0.28032899976E-01  0.13016730507E+00  0.18977295475E-01 0.  0.
         14    1    1    2    0    0 -0.10816400173E-01  0.19415439110E-01  0.73418118234E-02  0.23406323705E-01  0.00000000000E+00 0. -1.
     999901    1    3    3    0    0  0.12817482518E+00  0.25579517988E-01 -0.35374711800E-01  0.89035637123E+00  0.88000000000E+00 0.  1.
        -11    1    4    4    0    0 -0.14506812354E-01 -0.25148116642E-03  0.67150569027E-02  0.15995748112E-01  0.51100000000E-03 0.  1.
         11    1    4    4    0    0 -0.10285161265E+00 -0.44743475932E-01  0.21317843074E-01  0.11417155696E+00  0.51100000000E-03 0. -1.
</event>
<event>
 7    1  0.1143390E+005  0.1043930E+01  0.7957747E-01            NaN
         13   -1    0    0    0    0  0.00000000000E+00  0.00000000000E+00  0.74505805969E-08  0.10566000000E+00  0.10566000000E+00 0. -1.
     999900   -1    0    0    0    0 -0.00000000000E+00 -0.00000000000E+00 -0.74505805969E-08  0.93827000000E+00  0.93827000000E+00 0.  1.
     999903    2    1    2    0    0  0.82815930256E-01  0.49686917933E-01 -0.32418820548E-01  0.10384318264E+00  0.20128550309E-01 0.  0.
         14    1    1    2    0    0 -0.51711455296E-01  0.19384285678E-01 -0.85481354828E-02  0.55882875376E-01  0.00000000000E+00 0.  1.
     999901    1    1    2    0    0 -0.31104474959E-01 -0.69071203611E-01  0.40966956031E-01  0.88420394198E+00  0.88000000000E+00 0. -1.
        -11    1    3    3    0    0  0.14875280777E-01  0.11403912446E-02 -0.74648577125E-02  0.16690107611E-01  0.51100000000E-03 0. -1.
         11    1    3    3    0    0  0.67940649478E-01  0.48546526689E-01 -0.24953962835E-01  0.87153075030E-01  0.51100000000E-03 0.  1.
</event>
<event>
 8    1  0.1051655E+005  0.1043930E+01  0.7957747E-01            NaN
         13   -1    0    0    0    0  0.00000000000E+00  0.00000000000E+00  0.74505805969E-08  0.10566000000E+00  0.10566000000E+00 0. -1.
     999900   -1    0    0    0    0 -0.00000000000E+00 -0.00000000000E+00 -0.74505805969E-08  0.93827000000E+00  0.93827000000E+00 0. -1.
     999902    2    1    2    0    0  0.11676481809E-03  0.19598312373E-01 -0.17366542313E-01  0.10177440443E+01  0.10174071140E+01 0.  0.
     999903    2    3    3    0    0  0.52835260312E-01 -0.53094008594E-01 -0.10309007450E+00  0.12903040246E+00  0.20266791000E-01 0.  0.
         14    1    1    2    0    0 -0.11676481809E-03 -0.19598312373E-01  0.17366542313E-01  0.26185955659E-01  0.00000000000E+00 0. -1.
     999901    1    3    3    0    0 -0.52718495494E-01  0.72692320967E-01  0.85723532188E-01  0.88871364188E+00  0.88000000000E+00 0.  1.
        -11    1    4    4    0    0  0.32723268406E-01 -0.35739127529E-01 -0.49815192222E-01  0.69497568511E-01  0.51100000000E-03 0.  1.
         11    1    4    4    0    0  0.20111991906E-01 -0.17354881064E-01 -0.53274882279E-01  0.59532833949E-01  0.51100000000E-03 0. -1.
</event>
<event>
 8    1  0.1051655E+005  0.1043930E+01  0.7957747E-01            NaN
         13   -1    0    0    0    0  0.00000000000E+00  0.00000000000E+00  0.74505805969E-08  0.10566000000E+00  0.10566000000E+00 0. -1.
     999900   -1    0    0    0    0 -0.00000000000E+00 -0.00000000000E+00 -0.74505805969E-08  0.93827000000E+00  0.93827000000E+00 0. -1.
     999902    2    1    2    0    0  0.18092653596E-01 -0.32533783141E-02 -0.14876116122E-01  0.10202820103E+01  0.10200079182E+01 0.  0.
     999903    2    3    3    0    0 -0.51893390246E-01  0.11604630952E+00  0.90199152410E-02  0.12915829155E+00  0.20996083004E-01 0.  0.
         14    1    1    2    0    0 -0.18092653596E-01  0.32533783141E-02  0.14876116122E-01  0.23647989671E-01  0.00000000000E+00 0. -1.
     999901    1    3    3    0    0  0.69986043842E-01 -0.11929968783E+00 -0.23896031363E-01  0.89112371878E+00  0.88000000000E+00 0.  1.
        -11    1    4    4    0    0 -0.18827618593E-01  0.67180173301E-01  0.69803672977E-02  0.70118767496E-01  0.51100000000E-03 0.  1.
         11    1    4    4    0    0 -0.33065771654E-01  0.48866136219E-01  0.20395479433E-02  0.59039524057E-01  0.51100000000E-03 0. -1.
</event>
<event>
 8    1  0.1051655E+005  0.1043930E+01  0.7957747E-01            NaN
         13   -1    0    0    0    0  0.00000000000E+00  0.00000000000E+00  0.74505805969E-08  0.10566000000E+00  0.10566000000E+00 0. -1.
     999900   -1    0    0    0    0 -0.00000000000E+00 -0.00000000000E+00 -0.74505805969E-08  0.93827000000E+00  0.93827000000E+00 0. -1.
     999902    2    1    2    0    0  0.22477476902E-01 -0.82340129925E-03 -0.77593244803E-02  0.10201366801E+01  0.10198591687E+01 0.  0.
     999903    2    3    3    0    0 -0.61964535049E-01 -0.10837244378E+00  0.25733203507E-01  0.12894702608E+00  0.19517878931E-01 0.  0.
         14    1    1    2    0    0 -0.22477476902E-01  0.82340129925E-03  0.77593244803E-02  0.23793319944E-01  0.00000000000E+00 0. -1.
     999901    1    3    3    0    0  0.84442011951E-01  0.10754904248E+00 -0.33492527987E-01  0.89118965397E+00  0.88000000000E+00 0. -1.
        -11    1    4    4    0    0 -0.37247051621E-01 -0.82108427714E-01  0.15825802387E-01  0.91541541926E-01  0.51100000000E-03 0.  1.
         11    1    4    4    0    0 -0.24717483428E-01 -0.26264016065E-01  0.99074011198E-02  0.37405484154E-01  0.51100000000E-03 0. -1.
</event>
<event>
 8    1  0.1051655E+005  0.1043930E+01  0.7957747E-01            NaN
         13   -1    0    0    0    0  0.00000000000E+00  0.00000000000E+00  0.74505805969E-08  0.10566000000E+00  0.10566000000E+00 0.  1.
     999900   -1    0    0    0    0 -0.00000000000E+00 -0.00000000000E+00 -0.74505805969E-08  0.93827000000E+00  0.93827000000E+00 0. -1.
     999902    2    1    2    0    0  0.58502352181E-02  0.20771416870E-01  0.68316224584E-02  0.10212948928E+01  0.10210440294E+01 0.  0.
     999903    2    3    3    0    0 -0.95606644696E-01 -0.13742676971E-01 -0.84740547472E-01  0.13007652259E+00  0.20234862577E-01 0.  0.
         14    1    1    2    0    0 -0.58502352181E-02 -0.20771416870E-01 -0.68316224584E-02  0.22635107163E-01  0.00000000000E+00 0.  1.
     999901    1    3    3    0    0  0.10145687991E+00  0.34514093840E-01  0.91572169930E-01  0.89121837024E+00  0.88000000000E+00 0. -1.
        -11    1    4    4    0    0 -0.26547713402E-01  0.52130104021E-02 -0.22356752037E-01  0.35100456506E-01  0.51100000000E-03 0. -1.
         11    1    4    4    0    0 -0.69058931294E-01 -0.18955687373E-01 -0.62383795435E-01  0.94976066086E-01  0.51100000000E-03 0.  1.
</event>
<event>
 8    1  0.1051655E+005  0.1043930E+01  0.7957747E-01            NaN
         13   -1    0    0    0    0  0.00000000000E+00  0.00000000000E+00  0.74505805969E-08  0.10566000000E+00  0.10566000000E+00 0.  1.
     999900   -1    0    0    0    0 -0.00000000000E+00 -0.00000000000E+00 -0.74505805969E-08  0.93827000000E+00  0.93827000000E+00 0. -1.
     999902    2    1    2    0    0 -0.84921877714E-03 -0.41767917074E-02  0.22377747807E-01  0.10211499570E+01  0.10208958342E+01 0.  0.
     999903    2    3    3    0    0  0.77724784316E-01  0.82731916945E-01 -0.59345706854E-01  0.12963118512E+00  0.19915297001E-01 0.  0.
         14    1    1    2    0    0  0.84921877714E-03  0.41767917074E-02 -0.22377747807E-01  0.22780042986E-01  0.00000000000E+00 0. -1.
     999901    1    3    3    0    0 -0.78574003094E-01 -0.86908708653E-01  0.81723454661E-01  0.89151877190E+00  0.88000000000E+00 0.  1.
        -11    1    4    4    0    0  0.41240508838E-01  0.42949486923E-01 -0.19935486802E-01  0.62794289161E-01  0.51100000000E-03 0. -1.
         11    1    4    4    0    0  0.36484275478E-01  0.39782430022E-01 -0.39410220052E-01  0.66836895957E-01  0.51100000000E-03 0.  1.
</event>
<event>
 8    1  0.1051655E+005  0.1043930E+01  0.7957747E-01            NaN
         13   -1    0    0    0    0  0.00000000000E+00  0.00000000000E+00  0.74505805969E-08  0.10566000000E+00  0.10566000000E+00 0.  1.
     999900   -1    0    0    0    0 -0.00000000000E+00 -0.00000000000E+00 -0.74505805969E-08  0.93827000000E+00  0.93827000000E+00 0.  1.
     999902    2    1    2    0    0 -0.10500248728E-01 -0.19343033592E-01 -0.91573954850E-02  0.10200916682E+01  0.10198130934E+01 0.  0.
     999903    2    3    3    0    0 -0.97132268150E-01 -0.14769046963E-01  0.84072476695E-01  0.13092473379E+00  0.20501275976E-01 0.  0.
         14    1    1    2    0    0  0.10500248728E-01  0.19343033592E-01  0.91573954850E-02  0.23838331820E-01  0.00000000000E+00 0. -1.
     999901    1    3    3    0    0  0.86632019422E-01 -0.45739866290E-02 -0.93229872180E-01  0.88916693439E+00  0.88000000000E+00 0.  1.
        -11    1    4    4    0    0 -0.39712230373E-01 -0.31227995410E-02  0.46901299598E-01  0.61537030665E-01  0.51100000000E-03 0. -1.
         11    1    4    4    0    0 -0.57420037777E-01 -0.11646247422E-01  0.37171177097E-01  0.69387703126E-01  0.51100000000E-03 0.  1.
</event>
<event>
 8    1  0.1051655E+005  0.1043930E+01  0.7957747E-01            NaN
         13   -1    0    0    0    0  0.00000000000E+00  0.00000000000E+00  0.74505805969E-08  0.10566000000E+00  0.10566000000E+00 0.  1.
     999900   -1    0    0    0    0 -0.00000000000E+00 -0.00000000000E+00 -0.74505805969E-08  0.93827000000E+00  0.93827000000E+00 0. -1.
     999902    2    1    2    0    0 -0.28925275303E-02 -0.22947802967E-01  0.39583409161E-02  0.10204643477E+01  0.10201945148E+01 0.  0.
     999903    2    3    3    0    0 -0.12425709975E+00  0.16847522631E-02  0.36936747633E-01  0.13118166062E+00  0.20040946310E-01 0.  0.
         14    1    1    2    0    0  0.28925275303E-02  0.22947802967E-01 -0.39583409161E-02  0.23465652332E-01  0.00000000000E+00 0.  1.
     999901    1    3    3    0    0  0.12136457222E+00 -0.24632555230E-01 -0.32978406717E-01  0.88928268704E+00  0.88000000000E+00 0. -1.
        -11    1    4    4    0    0 -0.80224025506E-01  0.10338369725E-01  0.26336653658E-01  0.85068540624E-01  0.51100000000E-03 0. -1.
         11    1    4    4    0    0 -0.44033074247E-01 -0.86536174621E-02  0.10600093975E-01  0.46113120000E-01  0.51100000000E-03 0.  1.
</event>
<event>
 8    1  0.1051655E+005  0.1043930E+01  0.7957747E-01            NaN
         13   -1    0    0    0    0  0.00000000000E+00  0.00000000000E+00  0.74505805969E-08  0.10566000000E+00  0.10566000000E+00 0. -1.
     999900   -1    0    0    0    0 -0.00000000000E+00 -0.00000000000E+00 -0.74505805969E-08  0.93827000000E+00  0.93827000000E+00 0.  1.
     999902    2    1    2    0    0  0.80977822570E-02 -0.11200251194E-01  0.10305346298E-02  0.10300706455E+01  0.10299774042E+01 0.  0.
     999903    2    3    3    0    0  0.31908392841E-01  0.90392907437E-02 -0.13385718764E+00  0.13924446617E+00  0.19272269371E-01 0.  0.
         14    1    1    2    0    0 -0.80977822570E-02  0.11200251194E-01 -0.10305346298E-02  0.13859354456E-01  0.00000000000E+00 0.  1.
     999901    1    3    3    0    0 -0.23810610584E-01 -0.20239541938E-01  0.13488772227E+00  0.89082617937E+00  0.88000000000E+00 0. -1.
        -11    1    4    4    0    0  0.31974093814E-01  0.31269714064E-02 -0.11855055539E+00  0.12282758619E+00  0.51100000000E-03 0. -1.
         11    1    4    4    0    0 -0.65700972567E-04  0.59123193373E-02 -0.15306632250E-01  0.16416879984E-01  0.51100000000E-03 0.  1.
</event>
<event>
 8    1  0.1051655E+005  0.1043930E+01  0.7957747E-01            NaN
         13   -1    0    0    0    0  0.00000000000E+00  0.00000000000E+00  0.74505805969E-08  0.10566000000E+00  0.10566000000E+00 0. -1.
     999900   -1    0    0    0    0 -0.00000000000E+00 -0.00000000000E+00 -0.74505805969E-08  0.93827000000E+00  0.93827000000E+00 0.  1.
     999902    2    1    2    0    0 -0.17093852608E-01 -0.15544471238E-01 -0.60916948688E-02  0.10200356674E+01  0.10197557667E+01 0.  0.
     999903    2    3    3    0    0 -0.10207344390E+00  0.63642417173E-01  0.47188256103E-01  0.13080518694E+00  0.20345028967E-01 0.  0.
         14    1    1    2    0    0  0.17093852608E-01  0.15544471238E-01  0.60916948688E-02  0.23894332579E-01  0.00000000000E+00 0. -1.
     999901    1    3    3    0    0  0.84979591295E-01 -0.79186888411E-01 -0.53279950972E-01  0.88923048048E+00  0.88000000000E+00 0. -1.
        -11    1    4    4    0    0 -0.40433744080E-01  0.13807109779E-01  0.16317433845E-01  0.45738864318E-01  0.51100000000E-03 0. -1.
         11    1    4    4    0    0 -0.61639699822E-01  0.49835307395E-01  0.30870822257E-01  0.85066322626E-01  0.51100000000E-03 0.  1.
</event>
<event>
 8    1  0.1051655E+005  0.1043930E+01  0.7957747E-01            NaN
         13   -1    0    0    0    0  0.00000000000E+00  0.00000000000E+00  0.74505805969E-08  0.10566000000E+00  0.10566000000E+00 0.  1.
     999900   -1    0    0    0    0 -0.00000000000E+00 -0.00000000000E+00 -0.74505805969E-08  0.93827000000E+00  0.93827000000E+00 0. -1.
     999902    2    1    2    0    0 -0.81918400175E-02 -0.18804007536E-01 -0.12436436732E-01  0.10199432974E+01  0.10196612026E+01 0.  0.
     999903    2    3    3    0    0  0.10006223060E+00  0.65331027105E-01 -0.42742698921E-01  0.12881136701E+00  0.22019011442E-01 0.  0.
         14    1    1    2    0    0  0.81918400175E-02  0.18804007536E-01  0.12436436732E-01  0.23986702585E-01  0.00000000000E+00 0.  1.
     999901    1    3    3    0    0 -0.10825407062E+00 -0.84135034641E-01  0.30306262189E-01  0.89113193040E+00  0.88000000000E+00 0.  1.
        -11    1    4    4    0    0  0.64298542193E-01  0.32994999172E-01 -0.17388886934E-01  0.74334426804E-01  0.51100000000E-03 0.  1.
         11    1    4    4    0    0  0.35763688406E-01  0.32336027934E-01 -0.25353811987E-01  0.54476940206E-01  0.51100000000E-03 0. -1.
</event>
<event>
 8    1  0.1051655E+005  0.1043930E+01  0.7957747E-01            NaN
         13   -1    0    0    0    0  0.00000000000E+00  0.00000000000E+00  0.74505805969E-08  0.10566000000E+00  0.10566000000E+00 0. -1.
     999900   -1    0    0    0    0 -0.00000000000E+00 -0.00000000000E+00 -0.74505805969E-08  0.93827000000E+00  0.93827000000E+00 0.  1.
     999902    2    1    2    0    0  0.93806601534E-02 -0.36462946917E-02  0.21256020209E-01  0.10204116955E+01  0.10201406363E+01 0.  0.
     999903    2    3    3    0    0  0.47228914944E-01 -0.32207278177E-02  0.12357854962E+00  0.13367465925E+00  0.18876257691E-01 0.  0.
         14    1    1    2    0    0 -0.93806601534E-02  0.36462946917E-02 -0.21256020209E-01  0.23518304467E-01  0.00000000000E+00 0.  1.
     999901    1    3    3    0    0 -0.37848254791E-01 -0.42556687402E-03 -0.10232252941E+00  0.88673703629E+00  0.88000000000E+00 0.  1.
        -11    1    4    4    0    0  0.42446524729E-01 -0.35520169224E-02  0.87967590576E-01  0.97738847949E-01  0.51100000000E-03 0.  1.
         11    1    4    4    0    0  0.47823902148E-02  0.33128910470E-03  0.35610959042E-01  0.35935811297E-01  0.51100000000E-03 0. -1.
</event>
<event>
 8    1  0.1051655E+005  0.1043930E+01  0.7957747E-01            NaN
         13   -1    0    0    0    0  0.00000000000E+00  0.00000000000E+00  0.74505805969E-08  0.10566000000E+00  0.10566000000E+00 0. -1.
     999900   -1    0    0    0    0 -0.00000000000E+00 -0.00000000000E+00 -0.74505805969E-08  0.93827000000E+00  0.93827000000E+00 0. -1.
     999902    2    1    2    0    0 -0.21092930366E-01  0.15865274566E-02  0.16454709053E-01  0.10171310032E+01  0.10167778968E+01 0.  0.
     999903    2    3    3    0    0  0.11473343261E+00 -0.24257099647E-01 -0.36849048057E-01  0.12474208322E+00  0.21226576266E-01 0.  0.
         14    1    1    2    0    0  0.21092930366E-01 -0.15865274566E-02 -0.16454709053E-01  0.26798996825E-01  0.00000000000E+00 0.  1.
     999901    1    3    3    0    0 -0.13582636298E+00  0.25843627103E-01  0.53303757110E-01  0.89238891996E+00  0.88000000000E+00 0.  1.
        -11    1    4    4    0    0  0.96136785756E-02 -0.23966689227E-03 -0.94354550684E-02  0.13482180437E-01  0.51100000000E-03 0.  1.
         11    1    4    4    0    0  0.10511975404E+00 -0.24017432754E-01 -0.27413592989E-01  0.11125990278E+00  0.51100000000E-03 0. -1.
</event>
<event>
 8    1  0.1051655E+005  0.1043930E+01  0.7957747E-01            NaN
         13   -1    0    0    0    0  0.00000000000E+00  0.00000000000E+00  0.74505805969E-08  0.10566000000E+00  0.10566000000E+00 0.  1.
     999900   -1    0    0    0    0 -0.00000000000E+00 -0.00000000000E+00 -0.74505805969E-08  0.93827000000E+00  0.93827000000E+00 0.  1.
     999902    2    1    2    0    0 -0.22341259347E-01 -0.51269633617E-02  0.43162307574E-02  0.10206051748E+01  0.10203386082E+01 0.  0.
     999903    2    3    3    0    0 -0.94633914988E-01  0.40818578838E-01  0.82043194257E-01  0.13303619058E+00  0.18595914462E-01 0.  0.
         14    1    1    2    0    0  0.22341259347E-01  0.51269633617E-02 -0.43162307574E-02  0.23324825197E-01  0.00000000000E+00 0.  1.
     999901    1    3    3    0    0  0.72292655642E-01 -0.45945542199E-01 -0.77726963499E-01  0.88756898423E+00  0.88000000000E+00 0.  1.
        -11    1    4    4    0    0 -0.68337015750E-01  0.35121471301E-01  0.52419564182E-01  0.93013640387E-01  0.51100000000E-03 0.  1.
         11    1    4    4    0    0 -0.26296899239E-01  0.56971075368E-02  0.29623630074E-01  0.40022550189E-01  0.51100000000E-03 0. -1.
</event>
<event>
 8    1  0.1051655E+005  0.1043930E+01  0.7957747E-01            NaN
         13   -1    0    0    0    0  0.00000000000E+00  0.00000000000E+00  0.74505805969E-08  0.10566000000E+00  0.10566000000E+00 0. -1.
     999900   -1    0    0    0    0 -0.00000000000E+00 -0.00000000000E+00 -0.74505805969E-08  0.93827000000E+00  0.93827000000E+00 0. -1.
     999902    2    1    2    0    0  0.20934387219E-01  0.96742899609E-02  0.13616020478E-02  0.10208281729E+01  0.10205667368E+01 0.  0.
     999903    2    3    3    0    0  0.10824512430E-01  0.33055831038E-01  0.12545772651E+00  0.13175632310E+00  0.20254123065E-01 0.  0.
         14    1    1    2    0    0 -0.20934387219E-01 -0.96742899609E-02 -0.13616020478E-02  0.23101827084E-01  0.00000000000E+00 0.  1.
     999901    1    3    3    0    0  0.10109874789E-01 -0.23381541077E-01 -0.12409612446E+00  0.88907184982E+00  0.88000000000E+00 0. -1.
        -11    1    4    4    0    0  0.99261393741E-02  0.14750402956E-01  0.91024517585E-01  0.92746032545E-01  0.51100000000E-03 0. -1.
         11    1    4    4    0    0  0.89837305546E-03  0.18305428082E-01  0.34433208923E-01  0.39010290554E-01  0.51100000000E-03 0.  1.
</event>
<event>
 8    1  0.1051655E+005  0.1043930E+01  0.7957747E-01            NaN
         13   -1    0    0    0    0  0.00000000000E+00  0.00000000000E+00  0.74505805969E-08  0.10566000000E+00  0.10566000000E+00 0. -1.
     999900   -1    0    0    0    0 -0.00000000000E+00 -0.00000000000E+00 -0.74505805969E-08  0.93827000000E+00  0.93827000000E+00 0. -1.
     999902    2    1    2    0    0 -0.17465107595E-01  0.16680095182E-04  0.18831265110E-01  0.10182464098E+01  0.10179224451E+01 0.  0.
     999903    2    3    3    0    0  0.30565589177E-01  0.23788042232E-01 -0.11816972658E+00  0.12603494536E+00  0.20508461111E-01 0.  0.
         14    1    1    2    0    0  0.17465107595E-01 -0.16680095182E-04 -0.18831265110E-01  0.25683590231E-01  0.00000000000E+00 0.  1.
     999901    1    3    3    0    0 -0.48030696772E-01 -0.23771362137E-01  0.13700099169E+00  0.89221146440E+00  0.88000000000E+00 0.  1.
        -11    1    4    4    0    0  0.22844056850E-01  0.80555939506E-02 -0.86578727334E-01  0.89904842333E-01  0.51100000000E-03 0. -1.
         11    1    4    4    0    0  0.77215323272E-02  0.15732448282E-01 -0.31590999250E-01  0.36130103030E-01  0.51100000000E-03 0.  1.
</event>
<event>
 8    1  0.1051655E+005  0.1043930E+01  0.7957747E-01            NaN
         13   -1    0    0    0    0  0.00000000000E+00  0.00000000000E+00  0.74505805969E-08  0.10566000000E+00  0.10566000000E+00 0. -1.
     999900   -1    0    0    0    0 -0.00000000000E+00 -0.00000000000E+00 -0.74505805969E-08  0.93827000000E+00  0.93827000000E+00 0.  1.
     999902    2    1    2    0    0 -0.71714017770E-03 -0.21735523109E-01  0.12321132624E-01  0.10189348492E+01  0.10186282292E+01 0.  0.
     999903    2    3    3    0    0  0.21251592338E-01  0.12246637372E+00  0.16060164303E-01  0.12691983104E+00  0.20026776194E-01 0.  0.
         14    1    1    2    0    0  0.71714017770E-03  0.21735523109E-01 -0.12321132624E-01  0.24995150810E-01  0.00000000000E+00 0.  1.
     999901    1    3    3    0    0 -0.21968732515E-01 -0.14420189682E+00 -0.37390316784E-02  0.89201501815E+00  0.88000000000E+00 0.  1.
        -11    1    4    4    0    0  0.17747158182E-01  0.73154105144E-01  0.18155332439E-01  0.77436179786E-01  0.51100000000E-03 0.  1.
         11    1    4    4    0    0  0.35044341555E-02  0.49312268572E-01 -0.20951681356E-02  0.49483651249E-01  0.51100000000E-03 0. -1.
</event>
<event>
 7    1  0.1051655E+005  0.1043930E+01  0.7957747E-01            NaN
         13   -1    0    0    0    0  0.00000000000E+00  0.00000000000E+00  0.74505805969E-08  0.10566000000E+00  0.10566000000E+00 0.  1.
     999900   -1    0    0    0    0 -0.00000000000E+00 -0.00000000000E+00 -0.74505805969E-08  0.93827000000E+00  0.93827000000E+00 0. -1.
     999903    2    1    2    0    0  0.55133010836E-02  0.99846344561E-01 -0.56487960479E-01  0.11664203007E+00  0.20366258566E-01 0.  0.
         14    1    1    2    0    0 -0.34245355928E-01 -0.23895865543E-01  0.20401454118E-03  0.41758812419E-01  0.00000000000E+00 0. -1.
     999901    1    1    2    0    0  0.28732054845E-01 -0.75950479018E-01  0.56283945937E-01  0.88552915751E+00  0.88000000000E+00 0.  1.
        -11    1    3    3    0    0 -0.46464089545E-02  0.74596932912E-01 -0.39260261287E-01  0.84427014358E-01  0.51100000000E-03 0.  1.
         11    1    3    3    0    0  0.10159710038E-01  0.25249411648E-01 -0.17227699191E-01  0.32215015708E-01  0.51100000000E-03 0. -1.
</event>
<event>
 8    1  0.1051655E+005  0.1043930E+01  0.7957747E-01            NaN
         13   -1    0    0    0    0  0.00000000000E+00  0.00000000000E+00  0.74505805969E-08  0.10566000000E+00  0.10566000000E+00 0.  1.
     999900   -1    0    0    0    0 -0.00000000000E+00 -0.00000000000E+00 -0.74505805969E-08  0.93827000000E+00  0.93827000000E+00 0.  1.
     999902    2    1    2    0    0  0.54488790183E-02 -0.68096442508E-02  0.22247460942E-01  0.10200341624E+01  0.10197542260E+01 0.  0.
     999903    2    3    3    0    0 -0.12028123681E+00  0.10765141620E-01 -0.39673441864E-01  0.12877037801E+00  0.20600098522E-01 0.  0.
         14    1    1    2    0    0 -0.54488790183E-02  0.68096442508E-02 -0.22247460942E-01  0.23895837624E-01  0.00000000000E+00 0. -1.
     999901    1    3    3    0    0  0.12573011583E+00 -0.17574785871E-01  0.61920902806E-01  0.89126378437E+00  0.88000000000E+00 0.  1.
        -11    1    4    4    0    0 -0.70917413456E-01  0.72658479975E-04 -0.14716532803E-01  0.72430119904E-01  0.51100000000E-03 0.  1.
         11    1    4    4    0    0 -0.49363823357E-01  0.10692483140E-01 -0.24956909061E-01  0.56340258102E-01  0.51100000000E-03 0. -1.
</event>
<event>
 8    1  0.1051655E+005  0.1043930E+01  0.7957747E-01            NaN
         13   -1    0    0    0    0  0.00000000000E+00  0.00000000000E+00  0.74505805969E-08  0.10566000000E+00  0.10566000000E+00 0.  1.
     999900   -1    0    0    0    0 -0.00000000000E+00 -0.00000000000E+00 -0.74505805969E-08  0.93827000000E+00  0.93827000000E+00 0.  1.
     999902    2    1    2    0    0  0.22307098808E-01 -0.25860840166E-02 -0.10353401759E-01  0.10192017284E+01  0.10189017007E+01 0.  0.
     999903    2    3    3    0    0  0.76396666411E-01  0.69673919192E-02 -0.10590925664E+00  0.13232638676E+00  0.20211551204E-01 0.  0.
         14    1    1    2    0    0 -0.22307098808E-01  0.25860840166E-02  0.10353401759E-01  0.24728271588E-01  0.00000000000E+00 0.  1.
     999901    1    3    3    0    0 -0.54089567603E-01 -0.95534759357E-02  0.95555854882E-01  0.88687534165E+00  0.88000000000E+00 0. -1.
        -11    1    4    4    0    0  0.63471010017E-02 -0.51281934359E-02 -0.93313260714E-02  0.12406402633E-01  0.51100000000E-03 0.  1.
         11    1    4    4    0    0  0.70049565410E-01  0.12095585355E-01 -0.96577930569E-01  0.11991998413E+00  0.51100000000E-03 0. -1.
</event>
<event>
 8    1  0.1051655E+005  0.1043930E+01  0.7957747E-01            NaN
         13   -1    0    0    0    0  0.00000000000E+00  0.00000000000E+00  0.74505805969E-08  0.10566000000E+00  0.10566000000E+00 0.  1.
     999900   -1    0    0    0    0 -0.00000000000E+00 -0.00000000000E+00 -0.74505805969E-08  0.93827000000E+00  0.93827000000E+00 0.  1.
     999902    2    1    2    0    0 -0.13066839205E-01 -0.73770566000E-02  0.16976964905E-01  0.10212720966E+01  0.10210207219E+01 0.  0.
     999903    2    3    3    0    0 -0.95135897444E-01  0.61710187771E-01  0.67283777005E-01  0.13333113400E+00  0.19776207613E-01 0.  0.
         14    1    1    2    0    0  0.13066839205E-01  0.73770566000E-02 -0.16976964905E-01  0.22657903439E-01  0.00000000000E+00 0. -1.
     999901    1    3    3    0    0  0.82069058239E-01 -0.69087244371E-01 -0.50306812100E-01  0.88794096256E+00  0.88000000000E+00 0. -1.
        -11    1    4    4    0    0 -0.82345662807E-01  0.59204200377E-01  0.54812337608E-01  0.11528486024E+00  0.51100000000E-03 0.  1.
         11    1    4    4    0    0 -0.12790234637E-01  0.25059873948E-02  0.12471439397E-01  0.18046273757E-01  0.51100000000E-03 0. -1.
</event>
<event>
 8    1  0.1051655E+005  0.1043930E+01  0.7957747E-01            NaN
         13   -1    0    0    0    0  0.00000000000E+00  0.00000000000E+00  0.74505805969E-08  0.10566000000E+00  0.10566000000E+00 0.  1.
     999900   -1    0    0    0    0 -0.00000000000E+00 -0.00000000000E+00 -0.74505805969E-08  0.93827000000E+00  0.93827000000E+00 0. -1.
     999902    2    1    2    0    0 -0.31429193192E-02 -0.10049976093E-01  0.20999494959E-01  0.10204383259E+01  0.10201678873E+01 0.  0.
     999903    2    3    3    0    0 -0.31287635256E-02  0.12460643036E+00 -0.26288951215E-01  0.12894040383E+00  0.19949113679E-01 0.  0.
         14    1    1    2    0    0  0.31429193192E-02  0.10049976093E-01 -0.20999494959E-01  0.23491674054E-01  0.00000000000E+00 0. -1.
     999901    1    3    3    0    0 -0.14155793596E-04 -0.13465640645E+00  0.47288446174E-01  0.89149792212E+00  0.88000000000E+00 0.  1.
        -11    1    4    4    0    0 -0.34918623558E-02  0.88228887836E-02 -0.64066890519E-02  0.11460508488E-01  0.51100000000E-03 0.  1.
         11    1    4    4    0    0  0.36309883011E-03  0.11578354157E+00 -0.19882262163E-01  0.11747989534E+00  0.51100000000E-03 0. -1.
</event>
<event>
 8    1  0.1051655E+005  0.1043930E+01  0.7957747E-01            NaN
         13   -1    0    0    0    0  0.00000000000E+00  0.00000000000E+00  0.74505805969E-08  0.10566000000E+00  0.10566000000E+00 0.  1.
     999900   -1    0    0    0    0 -0.00000000000E+00 -0.00000000000E+00 -0.74505805969E-08  0.93827000000E+00  0.93827000000E+00 0. -1.
     999902    2    1    2    0    0  0.10200824331E-01 -0.22243439701E-01  0.38686598352E-03  0.10194559915E+01  0.10191621763E+01 0.  0.
     999903    2    3    3    0    0 -0.33444361433E-01  0.11368634905E+00 -0.38398369496E-01  0.12710734652E+00  0.25273137680E-01 0.  0.
         14    1    1    2    0    0 -0.10200824331E-01  0.22243439701E-01 -0.38686598352E-03  0.24474008500E-01  0.00000000000E+00 0.  1.
     999901    1    3    3    0    0  0.43645185764E-01 -0.13592978875E+00  0.38785235480E-01  0.89234864498E+00  0.88000000000E+00 0.  1.
        -11    1    4    4    0    0 -0.19147117066E-01  0.85853087528E-01 -0.18101769124E-01  0.89807014740E-01  0.51100000000E-03 0.  1.
         11    1    4    4    0    0 -0.14297244367E-01  0.27833261517E-01 -0.20296600372E-01  0.37300331779E-01  0.51100000000E-03 0. -1.
</event>
<event>
 8    1  0.1051655E+005  0.1043930E+01  0.7957747E-01            NaN
         13   -1    0    0    0    0  0.00000000000E+00  0.00000000000E+00  0.74505805969E-08  0.10566000000E+00  0.10566000000E+00 0.  1.
     999900   -1    0    0    0    0 -0.00000000000E+00 -0.00000000000E+00 -0.74505805969E-08  0.93827000000E+00  0.93827000000E+00 0. -1.
     999902    2    1    2    0    0  0.21575454625E-01 -0.46333631246E-02 -0.84606438667E-02  0.10202963208E+01  0.10200225642E+01 0.  0.
     999903    2    3    3    0    0  0.50740721146E-01 -0.64776939388E-01 -0.10195742818E+00  0.13282265294E+00  0.21814383205E-01 0.  0.
         14    1    1    2    0    0 -0.21575454625E-01  0.46333631246E-02  0.84606438667E-02  0.23633679162E-01  0.00000000000E+00 0. -1.
     999901    1    3    3    0    0 -0.29165266522E-01  0.60143576263E-01  0.93496784309E-01  0.88747366790E+00  0.88000000000E+00 0.  1.
        -11    1    4    4    0    0  0.40083315719E-01 -0.38397099530E-01 -0.56592182118E-01  0.79271341916E-01  0.51100000000E-03 0.  1.
         11    1    4    4    0    0  0.10657405428E-01 -0.26379839858E-01 -0.45365246058E-01  0.53551311023E-01  0.51100000000E-03 0. -1.
</event>
<event>
 8    1  0.1051655E+005  0.1043930E+01  0.7957747E-01            NaN
         13   -1    0    0    0    0  0.00000000000E+00  0.00000000000E+00  0.74505805969E-08  0.10566000000E+00  0.10566000000E+00 0.  1.
     999900   -1    0    0    0    0 -0.00000000000E+00 -0.00000000000E+00 -0.74505805969E-08  0.93827000000E+00  0.93827000000E+00 0. -1.
     999902    2    1    2    0    0  0.12103161828E-02 -0.54353525051E-02  0.23056872523E-01  0.10202102341E+01  0.10199344560E+01 0.  0.
     999903    2    3    3    0    0 -0.71390827918E-01  0.50485790341E-01  0.97010359141E-01  0.13236609324E+00  0.21547796207E-01 0.  0.
         14    1    1    2    0    0 -0.12103161828E-02  0.54353525051E-02 -0.23056872523E-01  0.23719765864E-01  0.00000000000E+00 0. -1.
     999901    1    3    3    0    0  0.72601144101E-01 -0.55921142846E-01 -0.73953486619E-01  0.88784414090E+00  0.88000000000E+00 0.  1.
        -11    1    4    4    0    0 -0.65367127982E-01  0.49267004893E-01  0.80778878945E-01  0.11500255474E+00  0.51100000000E-03 0.  1.
         11    1    4    4    0    0 -0.60236999360E-02  0.12187854481E-02  0.16231480197E-01  0.17363538501E-01  0.51100000000E-03 0. -1.
</event>
<event>
 8    1  0.1051655E+005  0.1043930E+01  0.7957747E-01            NaN
         13   -1    0    0    0    0  0.00000000000E+00  0.00000000000E+00  0.74505805969E-08  0.10566000000E+00  0.10566000000E+00 0.  1.
     999900   -1    0    0    0    0 -0.00000000000E+00 -0.00000000000E+00 -0.74505805969E-08  0.93827000000E+00  0.93827000000E+00 0.  1.
     999902    2    1    2    0    0  0.40527136628E-02 -0.18670392330E-02  0.23098587990E-01  0.10204043737E+01  0.10201331437E+01 0.  0.
     999903    2    3    3    0    0  0.10687974721E+00  0.70006607394E-01 -0.18134675614E-01  0.13055078920E+00  0.19759470081E-01 0.  0.
         14    1    1    2    0    0 -0.40527136628E-02  0.18670392330E-02 -0.23098587990E-01  0.23525626255E-01  0.00000000000E+00 0. -1.
     999901    1    3    3    0    0 -0.10282703355E+00 -0.71873646627E-01  0.41233263605E-01  0.88985358455E+00  0.88000000000E+00 0.  1.
        -11    1    4    4    0    0  0.72063250990E-02  0.92909110112E-02 -0.60009841317E-02  0.13210794087E-01  0.51100000000E-03 0.  1.
         11    1    4    4    0    0  0.99673422109E-01  0.60715696383E-01 -0.12133691483E-01  0.11733999511E+00  0.51100000000E-03 0. -1.
</event>
<event>
 8    1  0.1051655E+005  0.1043930E+01  0.7957747E-01            NaN
         13   -1    0    0    0    0  0.00000000000E+00  0.00000000000E+00  0.74505805969E-08  0.10566000000E+00  0.10566000000E+00 0. -1.
     999900   -1    0    0    0    0 -0.00000000000E+00 -0.00000000000E+00 -0.74505805969E-08  0.93827000000E+00  0.93827000000E+00 0.  1.
     999902    2    1    2    0    0  0.25325593286E-01 -0.37064808038E-02  0.58089114117E-02  0.10176837217E+01  0.10173452168E+01 0.  0.
     999903    2    3    3    0    0 -0.36996530266E-01 -0.42744174140E-01  0.11324599691E+00  0.12810476736E+00  0.19757730895E-01 0.  0.
         14    1    1    2    0    0 -0.25325593286E-01  0.37064808038E-02 -0.58089114117E-02  0.26246278346E-01  0.00000000000E+00 0.  1.
     999901    1    3    3    0    0  0.62322123552E-01  0.39037693336E-01 -0.10743708549E+00  0.88957895430E+00  0.88000000000E+00 0.  1.
        -11    1    4    4    0    0 -0.17795897492E-01 -0.67361192633E-02  0.33890932623E-01  0.38870627797E-01  0.51100000000E-03 0. -1.
         11    1    4    4    0    0 -0.19200632774E-01 -0.36008054877E-01  0.79355064283E-01  0.89234139562E-01  0.51100000000E-03 0.  1.
</event>
<event>
 8    1  0.1051655E+005  0.1043930E+01  0.7957747E-01            NaN
         13   -1    0    0    0    0  0.00000000000E+00  0.00000000000E+00  0.74505805969E-08  0.10566000000E+00  0.10566000000E+00 0.  1.
     999900   -1    0    0    0    0 -0.00000000000E+00 -0.00000000000E+00 -0.74505805969E-08  0.93827000000E+00  0.93827000000E+00 0. -1.
     999902    2    1    2    0    0 -0.12620929346E-01  0.21750214937E-01  0.11199094065E-01  0.10164022065E+01  0.10160293627E+01 0.  0.
     999903    2    3    3    0    0  0.45142863135E-01  0.11532317699E+00 -0.28430229842E-01  0.12867305959E+00  0.20277205234E-01 0.  0.
         14    1    1    2    0    0  0.12620929346E-01 -0.21750214937E-01 -0.11199094065E-01  0.27527793505E-01  0.00000000000E+00 0. -1.
     999901    1    3    3    0    0 -0.57763792481E-01 -0.93572962055E-01  0.39629323907E-01  0.88772914690E+00  0.88000000000E+00 0.  1.
        -11    1    4    4    0    0  0.16322475630E-01  0.61030988738E-01 -0.21861191638E-01  0.66853403937E-01  0.51100000000E-03 0. -1.
         11    1    4    4    0    0  0.28820387505E-01  0.54292188253E-01 -0.65690382035E-02  0.61819655654E-01  0.51100000000E-03 0.  1.
</event>
<event>
 8    1  0.1051655E+005  0.1043930E+01  0.7957747E-01            NaN
         13   -1    0    0    0    0  0.00000000000E+00  0.00000000000E+00  0.74505805969E-08  0.10566000000E+00  0.10566000000E+00 0. -1.
     999900   -1    0    0    0    0 -0.00000000000E+00 -0.00000000000E+00 -0.74505805969E-08  0.93827000000E+00  0.93827000000E+00 0.  1.
     999902    2    1    2    0    0  0.30456793790E-02 -0.67111325608E-02 -0.22721056272E-01  0.10200435632E+01  0.10197638496E+01 0.  0.
     999903    2    3    3    0    0  0.10765788710E-02 -0.85026211000E-01 -0.10052236522E+00  0.13314437362E+00  0.19800574191E-01 0.  0.
         14    1    1    2    0    0 -0.30456793790E-02  0.67111325608E-02  0.22721056272E-01  0.23886436763E-01  0.00000000000E+00 0. -1.
     999901    1    3    3    0    0  0.19691005080E-02  0.78315078440E-01  0.77801308948E-01  0.88689918962E+00  0.88000000000E+00 0. -1.
        -11    1    4    4    0    0  0.90807015206E-02 -0.38626238967E-01 -0.38676354883E-01  0.55412697326E-01  0.51100000000E-03 0.  1.
         11    1    4    4    0    0 -0.80041226496E-02 -0.46399972034E-01 -0.61846010337E-01  0.77731676295E-01  0.51100000000E-03 0. -1.
</event>
<event>
 8    1  0.1051655E+005  0.1043930E+01  0.7957747E-01            NaN
         13   -1    0    0    0    0  0.00000000000E+00  0.00000000000E+00  0.74505805969E-08  0.10566000000E+00  0.10566000000E+00 0.  1.
     999900   -1    0    0    0    0 -0.00000000000E+00 -0.00000000000E+00 -0.74505805969E-08  0.93827000000E+00  0.93827000000E+00 0. -1.
     999902    2    1    2    0    0 -0.19160922312E-01  0.13543527414E-01  0.78312138330E-02  0.10191934685E+01  0.10188932379E+01 0.  0.
     999903    2    3    3    0    0  0.53766671626E-01  0.63856712539E-01 -0.95797572293E-01  0.12869429624E+00  0.20408633293E-01 0.  0.
         14    1    1    2    0    0  0.19160922312E-01 -0.13543527414E-01 -0.78312138330E-02  0.24736531461E-01  0.00000000000E+00 0.  1.
     999901    1    3    3    0    0 -0.72927593937E-01 -0.50313185126E-01  0.10362878613E+00  0.89049917230E+00  0.88000000000E+00 0.  1.
        -11    1    4    4    0    0  0.36556745277E-01  0.29749160689E-01 -0.45323614844E-01  0.65390361449E-01  0.51100000000E-03 0.  1.
         11    1    4    4    0    0  0.17209926349E-01  0.34107551850E-01 -0.50473957449E-01  0.63303934789E-01  0.51100000000E-03 0. -1.
</event>
<event>
 8    1  0.1051655E+005  0.1043930E+01  0.7957747E-01            NaN
         13   -1    0    0    0    0  0.00000000000E+00  0.00000000000E+00  0.74505805969E-08  0.10566000000E+00  0.10566000000E+00 0.  1.
     999900   -1    0    0    0    0 -0.00000000000E+00 -0.00000000000E+00 -0.74505805969E-08  0.93827000000E+00  0.93827000000E+00 0. -1.
     999902    2    1    2    0    0 -0.20198066362E-01  0.38773746234E-02  0.11437639102E-01  0.10203967149E+01  0.10201253062E+01 0.  0.
     999903    2    3    3    0    0 -0.92494941094E-01 -0.67738531474E-01  0.64278136153E-01  0.13295781886E+00  0.20056919858E-01 0.  0.
         14    1    1    2    0    0  0.20198066362E-01 -0.38773746234E-02 -0.11437639102E-01  0.23533285086E-01  0.00000000000E+00 0. -1.
     999901    1    3    3    0    0  0.72296874732E-01  0.71615906098E-01 -0.52840497051E-01  0.88743889605E+00  0.88000000000E+00 0.  1.
        -11    1    4    4    0    0 -0.42069487335E-01 -0.37241761030E-01  0.21607422953E-01  0.60199106113E-01  0.51100000000E-03 0. -1.
         11    1    4    4    0    0 -0.50425453759E-01 -0.30496770445E-01  0.42670713200E-01  0.72758712746E-01  0.51100000000E-03 0.  1.
</event>
<event>
 8    1  0.1051655E+005  0.1043930E+01  0.7957747E-01            NaN
         13   -1    0    0    0    0  0.00000000000E+00  0.00000000000E+00  0.74505805969E-08  0.10566000000E+00  0.10566000000E+00 0. -1.
     999900   -1    0    0    0    0 -0.00000000000E+00 -0.00000000000E+00 -0.74505805969E-08  0.93827000000E+00  0.93827000000E+00 0.  1.
     999902    2    1    2    0    0  0.22279711049E-01 -0.97641789888E-02  0.11585388536E-02  0.10195770345E+01  0.10192861533E+01 0.  0.
     999903    2    3    3    0    0  0.86524740417E-02  0.10350414442E+00 -0.74117299470E-01  0.12902559495E+00  0.19137838215E-01 0.  0.
         14    1    1    2    0    0 -0.22279711049E-01  0.97641789888E-02 -0.11585388536E-02  0.24352965487E-01  0.00000000000E+00 0. -1.
     999901    1    3    3    0    0  0.13627237007E-01 -0.11326832341E+00  0.75275838324E-01  0.89055143957E+00  0.88000000000E+00 0. -1.
        -11    1    4    4    0    0  0.78999617948E-03  0.87906911421E-01 -0.58569353469E-01  0.10563559749E+00  0.51100000000E-03 0. -1.
         11    1    4    4    0    0  0.78624778622E-02  0.15597233000E-01 -0.15547946001E-01  0.23389997461E-01  0.51100000000E-03 0.  1.
</event>
<event>
 8    1  0.1051655E+005  0.1043930E+01  0.7957747E-01            NaN
         13   -1    0    0    0    0  0.00000000000E+00  0.00000000000E+00  0.74505805969E-08  0.10566000000E+00  0.10566000000E+00 0. -1.
     999900   -1    0    0    0    0 -0.00000000000E+00 -0.00000000000E+00 -0.74505805969E-08  0.93827000000E+00  0.93827000000E+00 0. -1.
     999902    2    1    2    0    0  0.10929214989E-01 -0.11113660980E-01  0.18861466467E-01  0.10194613237E+01  0.10191676381E+01 0.  0.
     999903    2    3    3    0    0 -0.31188134848E-01 -0.11703768680E+00  0.46697935791E-01  0.13167270057E+00  0.22056359228E-01 0.  0.
         14    1    1    2    0    0 -0.10929214989E-01  0.11113660980E-01 -0.18861466467E-01  0.24468676260E-01  0.00000000000E+00 0.  1.
     999901    1    3    3    0    0  0.42117349837E-01  0.10592402582E+00 -0.27836469325E-01  0.88778862317E+00  0.88000000000E+00 0. -1.
        -11    1    4    4    0    0 -0.24730428682E-01 -0.89404471819E-01  0.45358057578E-01  0.10325874390E+00  0.51100000000E-03 0. -1.
         11    1    4    4    0    0 -0.64577061660E-02 -0.27633214978E-01  0.13398782134E-02  0.28413956669E-01  0.51100000000E-03 0.  1.
</event>
<event>
 8    1  0.1051655E+005  0.1043930E+01  0.7957747E-01            NaN
         13   -1    0    0    0    0  0.00000000000E+00  0.00000000000E+00  0.74505805969E-08  0.10566000000E+00  0.10566000000E+00 0.  1.
     999900   -1    0    0    0    0 -0.00000000000E+00 -0.00000000000E+00 -0.74505805969E-08  0.93827000000E+00  0.93827000000E+00 0. -1.
     999902    2    1    2    0    0  0.22135448262E-01 -0.87600798303E-02  0.45488680877E-02  0.10196934724E+01  0.10194053994E+01 0.  0.
     999903    2    3    3    0    0 -0.49304972763E-01  0.10101965291E+00  0.58524679841E-01  0.12836372887E+00  0.20399954068E-01 0.  0.
         14    1    1    2    0    0 -0.22135448262E-01  0.87600798303E-02 -0.45488680877E-02  0.24236527582E-01  0.00000000000E+00 0.  1.
     999901    1    3    3    0    0  0.71440421025E-01 -0.10977973274E+00 -0.53975811753E-01  0.89132974355E+00  0.88000000000E+00 0. -1.
        -11    1    4    4    0    0 -0.35800628710E-01  0.67992569072E-01  0.29304094147E-01  0.82241507281E-01  0.51100000000E-03 0. -1.
         11    1    4    4    0    0 -0.13504344054E-01  0.33027083838E-01  0.29220585693E-01  0.46122221590E-01  0.51100000000E-03 0.  1.
</event>
<event>
 8    1  0.1051655E+005  0.1043930E+01  0.7957747E-01            NaN
         13   -1    0    0    0    0  0.00000000000E+00  0.00000000000E+00  0.74505805969E-08  0.10566000000E+00  0.10566000000E+00 0. -1.
     999900   -1    0    0    0    0 -0.00000000000E+00 -0.00000000000E+00 -0.74505805969E-08  0.93827000000E+00  0.93827000000E+00 0. -1.
     999902    2    1    2    0    0  0.20237133588E-01 -0.10847512159E-01 -0.56989476708E-02  0.10202722719E+01  0.10199979513E+01 0.  0.
     999903    2    3    3    0    0 -0.10986261454E+00 -0.18424333260E-01  0.60061333443E-01  0.12824773899E+00  0.20757375828E-01 0.  0.
         14    1    1    2    0    0 -0.20237133588E-01  0.10847512159E-01  0.56989476708E-02  0.23657728134E-01  0.00000000000E+00 0.  1.
     999901    1    3    3    0    0  0.13009974813E+00  0.75768211010E-02 -0.65760281114E-01  0.89202453288E+00  0.88000000000E+00 0. -1.
        -11    1    4    4    0    0 -0.79748083654E-01 -0.13568178871E-01  0.32656403842E-01  0.87238490113E-01  0.51100000000E-03 0.  1.
         11    1    4    4    0    0 -0.30114530887E-01 -0.48561543887E-02  0.27404929601E-01  0.41009248877E-01  0.51100000000E-03 0. -1.
</event>
<event>
 8    1  0.1051655E+005  0.1043930E+01  0.7957747E-01            NaN
         13   -1    0    0    0    0  0.00000000000E+00  0.00000000000E+00  0.74505805969E-08  0.10566000000E+00  0.10566000000E+00 0. -1.
     999900   -1    0    0    0    0 -0.00000000000E+00 -0.00000000000E+00 -0.74505805969E-08  0.93827000000E+00  0.93827000000E+00 0.  1.
     999902    2    1    2    0    0  0.19303230797E-01  0.70580470222E-02  0.11433212862E-01  0.10204108779E+01  0.10201397996E+01 0.  0.
     999903    2    3    3    0    0 -0.12282706426E+00 -0.16917260357E-01 -0.24374739828E-01  0.12796589608E+00  0.20210423193E-01 0.  0.
         14    1    1    2    0    0 -0.19303230797E-01 -0.70580470222E-02 -0.11433212862E-01  0.23519122078E-01  0.00000000000E+00 0.  1.
     999901    1    3    3    0    0  0.14213029506E+00  0.23975307379E-01  0.35807952690E-01  0.89244498184E+00  0.88000000000E+00 0. -1.
        -11    1    4    4    0    0 -0.54539999912E-01 -0.15352805506E-01 -0.45706411087E-02  0.56846038634E-01  0.51100000000E-03 0. -1.
         11    1    4    4    0    0 -0.68287064347E-01 -0.15644548512E-02 -0.19804098719E-01  0.71119857447E-01  0.51100000000E-03 0.  1.
</event>
<event>
 8    1  0.1051655E+005  0.1043930E+01  0.7957747E-01            NaN
         13   -1    0    0    0    0  0.00000000000E+00  0.00000000000E+00  0.74505805969E-08  0.10566000000E+00  0.10566000000E+00 0.  1.
     999900   -1    0    0    0    0 -0.00000000000E+00 -0.00000000000E+00 -0.74505805969E-08  0.93827000000E+00  0.93827000000E+00 0.  1.
     999902    2    1    2    0    0  0.10730731285E-01  0.19524159617E-02  0.21897483690E-01  0.10194665515E+01  0.10191729928E+01 0.  0.
     999903    2    3    3    0    0 -0.52532489410E-01  0.11156467983E+00 -0.31048931441E-01  0.12883733212E+00  0.20704631738E-01 0.  0.
         14    1    1    2    0    0 -0.10730731285E-01 -0.19524159617E-02 -0.21897483690E-01  0.24463448529E-01  0.00000000000E+00 0. -1.
     999901    1    3    3    0    0  0.63263220695E-01 -0.10961226387E+00  0.52946415131E-01  0.89062921935E+00  0.88000000000E+00 0.  1.
        -11    1    4    4    0    0 -0.31930403112E-01  0.46401329432E-01 -0.18946976140E-01  0.59429647836E-01  0.51100000000E-03 0.  1.
         11    1    4    4    0    0 -0.20602086298E-01  0.65163350398E-01 -0.12101955301E-01  0.69407684286E-01  0.51100000000E-03 0. -1.
</event>
<event>
 8    1  0.1051655E+005  0.1043930E+01  0.7957747E-01            NaN
         13   -1    0    0    0    0  0.00000000000E+00  0.00000000000E+00  0.74505805969E-08  0.10566000000E+00  0.10566000000E+00 0.  1.
     999900   -1    0    0    0    0 -0.00000000000E+00 -0.00000000000E+00 -0.74505805969E-08  0.93827000000E+00  0.93827000000E+00 0. -1.
     999902    2    1    2    0    0 -0.15063252164E-02 -0.77156200224E-02 -0.10639062563E-01  0.10307016418E+01  0.10306167498E+01 0.  0.
     999903    2    3    3    0    0  0.82278283110E-01 -0.10437132189E+00 -0.42158045757E-01  0.14089512824E+00  0.20274309773E-01 0.  0.
         14    1    1    2    0    0  0.15063252164E-02  0.77156200224E-02  0.10639062563E-01  0.13228358183E-01  0.00000000000E+00 0.  1.
     999901    1    3    3    0    0 -0.83784608326E-01  0.96655701865E-01  0.31518983194E-01  0.88980651357E+00  0.88000000000E+00 0.  1.
        -11    1    4    4    0    0  0.12473225507E-01 -0.17144076571E-01  0.74186750937E-03  0.21220560888E-01  0.51100000000E-03 0. -1.
         11    1    4    4    0    0  0.69805057603E-01 -0.87227245317E-01 -0.42899913267E-01  0.11967456736E+00  0.51100000000E-03 0.  1.
</event>
<event>
 8    1  0.1051655E+005  0.1043930E+01  0.7957747E-01            NaN
         13   -1    0    0    0    0  0.00000000000E+00  0.00000000000E+00  0.74505805969E-08  0.10566000000E+00  0.10566000000E+00 0.  1.
     999900   -1    0    0    0    0 -0.00000000000E+00 -0.00000000000E+00 -0.74505805969E-08  0.93827000000E+00  0.93827000000E+00 0.  1.
     999902    2    1    2    0    0 -0.22761113441E-01 -0.46572182638E-03  0.81070752884E-02  0.10197637042E+01  0.10194773183E+01 0.  0.
     999903    2    3    3    0    0 -0.63328334640E-01 -0.81898766467E-02  0.11413963192E+00  0.13243723382E+00  0.20837784915E-01 0.  0.
         14    1    1    2    0    0  0.22761113441E-01  0.46572182638E-03 -0.81070752884E-02  0.24166295778E-01  0.00000000000E+00 0. -1.
     999901    1    3    3    0    0  0.40567221199E-01  0.77241548203E-02 -0.10603255663E+00  0.88732647040E+00  0.88000000000E+00 0.  1.
        -11    1    4    4    0    0 -0.12016947017E-01 -0.94180750640E-02  0.33925356332E-01  0.37206156436E-01  0.51100000000E-03 0. -1.
         11    1    4    4    0    0 -0.51311387623E-01  0.12281984173E-02  0.80214275589E-01  0.95231077388E-01  0.51100000000E-03 0.  1.
</event>
<event>
 8    1  0.1051655E+005  0.1043930E+01  0.7957747E-01            NaN
         13   -1    0    0    0    0  0.00000000000E+00  0.00000000000E+00  0.74505805969E-08  0.10566000000E+00  0.10566000000E+00 0.  1.
     999900   -1    0    0    0    0 -0.00000000000E+00 -0.00000000000E+00 -0.74505805969E-08  0.93827000000E+00  0.93827000000E+00 0.  1.
     999902    2    1    2    0    0 -0.15077025567E-01 -0.74746866450E-02 -0.16618300501E-01  0.10202793012E+01  0.10200051456E+01 0.  0.
     999903    2    3    3    0    0  0.73363027090E-01  0.72904006050E-01  0.72278041176E-01  0.12776323039E+00  0.20054923641E-01 0.  0.
         14    1    1    2    0    0  0.15077025567E-01  0.74746866450E-02  0.16618300501E-01  0.23650698762E-01  0.00000000000E+00 0.  1.
     999901    1    3    3    0    0 -0.88440052657E-01 -0.80378692694E-01 -0.88896341677E-01  0.89251607085E+00  0.88000000000E+00 0.  1.
        -11    1    4    4    0    0  0.30219324383E-02  0.91892123292E-02  0.26198535782E-02  0.10034861866E-01  0.51100000000E-03 0.  1.
         11    1    4    4    0    0  0.70341094652E-01  0.63714793720E-01  0.69658187598E-01  0.11772836853E+00  0.51100000000E-03 0. -1.
</event>
<event>
 8    1  0.1051655E+005  0.1043930E+01  0.7957747E-01            NaN
         13   -1    0    0    0    0  0.00000000000E+00  0.00000000000E+00  0.74505805969E-08  0.10566000000E+00  0.10566000000E+00 0. -1.
     999900   -1    0    0    0    0 -0.00000000000E+00 -0.00000000000E+00 -0.74505805969E-08  0.93827000000E+00  0.93827000000E+00 0. -1.
     999902    2    1    2    0    0  0.96971648854E-02 -0.16181884634E-01 -0.11169547994E-01  0.10220063324E+01  0.10217711565E+01 0.  0.
     999903    2    3    3    0    0  0.97848177652E-01  0.67948806237E-01  0.51573316839E-01  0.13139685501E+00  0.20347490188E-01 0.  0.
         14    1    1    2    0    0 -0.96971648854E-02  0.16181884634E-01  0.11169547994E-01  0.21923667566E-01  0.00000000000E+00 0. -1.
     999901    1    3    3    0    0 -0.88151012766E-01 -0.84130690871E-01 -0.62742864833E-01  0.89060947743E+00  0.88000000000E+00 0. -1.
        -11    1    4    4    0    0  0.64310269914E-01  0.55710698006E-01  0.38224380182E-01  0.93278384688E-01  0.51100000000E-03 0.  1.
         11    1    4    4    0    0  0.33537907738E-01  0.12238108230E-01  0.13348936656E-01  0.38118470318E-01  0.51100000000E-03 0. -1.
</event>
<event>
 8    1  0.1051655E+005  0.1043930E+01  0.7957747E-01            NaN
         13   -1    0    0    0    0  0.00000000000E+00  0.00000000000E+00  0.74505805969E-08  0.10566000000E+00  0.10566000000E+00 0. -1.
     999900   -1    0    0    0    0 -0.00000000000E+00 -0.00000000000E+00 -0.74505805969E-08  0.93827000000E+00  0.93827000000E+00 0. -1.
     999902    2    1    2    0    0  0.81920627821E-03 -0.22142342298E-01 -0.93887798843E-02  0.10198654283E+01  0.10195814770E+01 0.  0.
     999903    2    3    3    0    0 -0.38495334142E-01 -0.10727191415E+00  0.63363902083E-01  0.13189829504E+00  0.19824778188E-01 0.  0.
         14    1    1    2    0    0 -0.81920627821E-03  0.22142342298E-01  0.93887798843E-02  0.24064571658E-01  0.00000000000E+00 0.  1.
     999901    1    3    3    0    0  0.39314540420E-01  0.85129571856E-01 -0.72752681967E-01  0.88796713330E+00  0.88000000000E+00 0.  1.
        -11    1    4    4    0    0 -0.11068594329E-01 -0.19760730492E-01  0.20943867648E-01  0.30852989532E-01  0.51100000000E-03 0. -1.
         11    1    4    4    0    0 -0.27426739813E-01 -0.87511183661E-01  0.42420034435E-01  0.10104530551E+00  0.51100000000E-03 0.  1.
</event>
<event>
 8    1  0.1051655E+005  0.1043930E+01  0.7957747E-01            NaN
         13   -1    0    0    0    0  0.00000000000E+00  0.00000000000E+00  0.74505805969E-08  0.10566000000E+00  0.10566000000E+00 0. -1.
     999900   -1    0    0    0    0 -0.00000000000E+00 -0.00000000000E+00 -0.74505805969E-08  0.93827000000E+00  0.93827000000E+00 0. -1.
     999902    2    1    2    0    0  0.94027841676E-02 -0.12185850835E-01 -0.18488545183E-01  0.10198731171E+01  0.10195893494E+01 0.  0.
     999903    2    3    3    0    0 -0.15257722840E-01  0.12055670096E+00 -0.39263509230E-01  0.12933377224E+00  0.20466685908E-01 0.  0.
         14    1    1    2    0    0 -0.94027841676E-02  0.12185850835E-01  0.18488545183E-01  0.24056882875E-01  0.00000000000E+00 0. -1.
     999901    1    3    3    0    0  0.24660507008E-01 -0.13274255179E+00  0.20774964047E-01  0.89053934489E+00  0.88000000000E+00 0.  1.
        -11    1    4    4    0    0  0.30540375284E-02  0.44368796421E-01 -0.19218183382E-01  0.48451180941E-01  0.51100000000E-03 0. -1.
         11    1    4    4    0    0 -0.18311760368E-01  0.76187904536E-01 -0.20045325848E-01  0.80882591296E-01  0.51100000000E-03 0.  1.
</event>
<event>
 8    1  0.1051655E+005  0.1043930E+01  0.7957747E-01            NaN
         13   -1    0    0    0    0  0.00000000000E+00  0.00000000000E+00  0.74505805969E-08  0.10566000000E+00  0.10566000000E+00 0. -1.
     999900   -1    0    0    0    0 -0.00000000000E+00 -0.00000000000E+00 -0.74505805969E-08  0.93827000000E+00  0.93827000000E+00 0. -1.
     999902    2    1    2    0    0  0.11524434993E-01 -0.13111957850E-01  0.15919695704E-01  0.10203043201E+01  0.10200307509E+01 0.  0.
     999903    2    3    3    0    0 -0.10691207976E+00  0.67780836032E-01 -0.84497679173E-02  0.12835997042E+00  0.19505099211E-01 0.  0.
         14    1    1    2    0    0 -0.11524434993E-01  0.13111957850E-01 -0.15919695704E-01  0.23625679924E-01  0.00000000000E+00 0.  1.
     999901    1    3    3    0    0  0.11843651476E+00 -0.80892793882E-01  0.24369463621E-01  0.89194434966E+00  0.88000000000E+00 0. -1.
        -11    1    4    4    0    0 -0.63821559697E-01  0.34470795550E-01 -0.13039988421E-01  0.73700268975E-01  0.51100000000E-03 0. -1.
         11    1    4    4    0    0 -0.43090520067E-01  0.33310040482E-01  0.45902205037E-02  0.54659701443E-01  0.51100000000E-03 0.  1.
</event>
<event>
 8    1  0.1051655E+005  0.1043930E+01  0.7957747E-01            NaN
         13   -1    0    0    0    0  0.00000000000E+00  0.00000000000E+00  0.74505805969E-08  0.10566000000E+00  0.10566000000E+00 0. -1.
     999900   -1    0    0    0    0 -0.00000000000E+00 -0.00000000000E+00 -0.74505805969E-08  0.93827000000E+00  0.93827000000E+00 0.  1.
     999902    2    1    2    0    0  0.15581445465E-01 -0.16237011629E-01  0.81109991610E-02  0.10200090824E+01  0.10197285511E+01 0.  0.
     999903    2    3    3    0    0  0.20766362699E-01  0.45864157816E-01  0.11910245812E+00  0.13085074864E+00  0.20043954099E-01 0.  0.
         14    1    1    2    0    0 -0.15581445465E-01  0.16237011629E-01 -0.81109991610E-02  0.23920917558E-01  0.00000000000E+00 0.  1.
     999901    1    3    3    0    0 -0.51849172340E-02 -0.62101169446E-01 -0.11099145896E+00  0.88915833381E+00  0.88000000000E+00 0.  1.
        -11    1    4    4    0    0  0.20101422065E-01  0.42956231219E-01  0.91305802684E-01  0.10288982308E+00  0.51100000000E-03 0. -1.
         11    1    4    4    0    0  0.66494063376E-03  0.29079265972E-02  0.27796655439E-01  0.27960925552E-01  0.51100000000E-03 0.  1.
</event>
<event>
 8    1  0.1051655E+005  0.1043930E+01  0.7957747E-01            NaN
         13   -1    0    0    0    0  0.00000000000E+00  0.00000000000E+00  0.74505805969E-08  0.10566000000E+00  0.10566000000E+00 0. -1.
     999900   -1    0    0    0    0 -0.00000000000E+00 -0.00000000000E+00 -0.74505805969E-08  0.93827000000E+00  0.93827000000E+00 0. -1.
     999902    2    1    2    0    0  0.13270404711E-01 -0.85545195313E-02 -0.17665769396E-01  0.10202369028E+01  0.10199617517E+01 0.  0.
     999903    2    3    3    0    0  0.86437927142E-01  0.25660628852E-01  0.91184350809E-01  0.12985916759E+00  0.20465445371E-01 0.  0.
         14    1    1    2    0    0 -0.13270404711E-01  0.85545195313E-02  0.17665769396E-01  0.23693097179E-01  0.00000000000E+00 0.  1.
     999901    1    3    3    0    0 -0.73167522431E-01 -0.34215148384E-01 -0.10885012021E+00  0.89037773523E+00  0.88000000000E+00 0. -1.
        -11    1    4    4    0    0  0.48379261969E-01  0.40325131348E-02  0.51408963942E-01  0.70710372969E-01  0.51100000000E-03 0. -1.
         11    1    4    4    0    0  0.38058665173E-01  0.21628115718E-01  0.39775386867E-01  0.59148794625E-01  0.51100000000E-03 0.  1.
</event>
<event>
 8    1  0.1051655E+005  0.1043930E+01  0.7957747E-01            NaN
         13   -1    0    0    0    0  0.00000000000E+00  0.00000000000E+00  0.74505805969E-08  0.10566000000E+00  0.10566000000E+00 0.  1.
     999900   -1    0    0    0    0 -0.00000000000E+00 -0.00000000000E+00 -0.74505805969E-08  0.93827000000E+00  0.93827000000E+00 0.  1.
     999902    2    1    2    0    0 -0.22109623254E-01  0.85356888045E-02  0.70881507011E-02  0.10191926739E+01  0.10188924237E+01 0.  0.
     999903    2    3    3    0    0 -0.89537585299E-01 -0.91333406693E-01 -0.17997843683E-01  0.13062659674E+00  0.19509357767E-01 0.  0.
         14    1    1    2    0    0  0.22109623254E-01 -0.85356888045E-02 -0.70881507011E-02  0.24737326132E-01  0.00000000000E+00 0. -1.
     999901    1    3    3    0    0  0.67427962045E-01  0.99869095497E-01  0.25085994384E-01  0.88856607712E+00  0.88000000000E+00 0.  1.
        -11    1    4    4    0    0 -0.40600339801E-01 -0.45943316766E-01  0.66563406658E-03  0.61317861486E-01  0.51100000000E-03 0. -1.
         11    1    4    4    0    0 -0.48937245497E-01 -0.45390089927E-01 -0.18663477750E-01  0.69308735259E-01  0.51100000000E-03 0.  1.
</event>
<event>
 8    1  0.1051655E+005  0.1043930E+01  0.7957747E-01            NaN
         13   -1    0    0    0    0  0.00000000000E+00  0.00000000000E+00  0.74505805969E-08  0.10566000000E+00  0.10566000000E+00 0.  1.
     999900   -1    0    0    0    0 -0.00000000000E+00 -0.00000000000E+00 -0.74505805969E-08  0.93827000000E+00  0.93827000000E+00 0. -1.
     999902    2    1    2    0    0  0.20166195083E-01 -0.66569966813E-03  0.12103073784E-01  0.10204012309E+01  0.10201299275E+01 0.  0.
     999903    2    3    3    0    0 -0.11990416401E+00 -0.37141902051E-01 -0.12884235641E-01  0.12822715346E+00  0.22796269896E-01 0.  0.
         14    1    1    2    0    0 -0.20166195083E-01  0.66569966813E-03 -0.12103073784E-01  0.23528769097E-01  0.00000000000E+00 0. -1.
     999901    1    3    3    0    0  0.14007035909E+00  0.36476202383E-01  0.24987309425E-01  0.89217407745E+00  0.88000000000E+00 0. -1.
        -11    1    4    4    0    0 -0.17307261601E-01 -0.14166593196E-01 -0.38491833793E-02  0.22700462563E-01  0.51100000000E-03 0. -1.
         11    1    4    4    0    0 -0.10259690241E+00 -0.22975308854E-01 -0.90350522620E-02  0.10552669089E+00  0.51100000000E-03 0.  1.
</event>
<event>
 8    1  0.1051655E+005  0.1043930E+01  0.7957747E-01            NaN
         13   -1    0    0    0    0  0.00000000000E+00  0.00000000000E+00  0.74505805969E-08  0.10566000000E+00  0.10566000000E+00 0.  1.
     999900   -1    0    0    0    0 -0.00000000000E+00 -0.00000000000E+00 -0.74505805969E-08  0.93827000000E+00  0.93827000000E+00 0. -1.
     999902    2    1    2    0    0  0.16446693448E-01  0.12605915990E-01  0.11763957102E-01  0.10201015815E+01  0.10198232410E+01 0.  0.
     999903    2    3    3    0    0 -0.19201410940E-01 -0.11537413955E+00 -0.48142217487E-01  0.12811591358E+00  0.20399214403E-01 0.  0.
         14    1    1    2    0    0 -0.16446693448E-01 -0.12605915990E-01 -0.11763957102E-01  0.23828418538E-01  0.00000000000E+00 0. -1.
     999901    1    3    3    0    0  0.35648104387E-01  0.12798005554E+00  0.59906174590E-01  0.89198566789E+00  0.88000000000E+00 0.  1.
        -11    1    4    4    0    0 -0.12729654944E-01 -0.72685059697E-01 -0.40784368563E-01  0.84313627950E-01  0.51100000000E-03 0.  1.
         11    1    4    4    0    0 -0.64717559954E-02 -0.42689079851E-01 -0.73578489246E-02  0.43802285625E-01  0.51100000000E-03 0. -1.
</event>
<event>
 8    1  0.1051655E+005  0.1043930E+01  0.7957747E-01            NaN
         13   -1    0    0    0    0  0.00000000000E+00  0.00000000000E+00  0.74505805969E-08  0.10566000000E+00  0.10566000000E+00 0.  1.
     999900   -1    0    0    0    0 -0.00000000000E+00 -0.00000000000E+00 -0.74505805969E-08  0.93827000000E+00  0.93827000000E+00 0. -1.
     999902    2    1    2    0    0  0.57338751995E-02  0.19576204516E-01 -0.12578561838E-01  0.10199649144E+01  0.10196833339E+01 0.  0.
     999903    2    3    3    0    0 -0.20064648655E-01  0.54581808426E-01 -0.11763044561E+00  0.13265050882E+00  0.19428633961E-01 0.  0.
         14    1    1    2    0    0 -0.57338751995E-02 -0.19576204516E-01  0.12578561838E-01  0.23965085561E-01  0.00000000000E+00 0.  1.
     999901    1    3    3    0    0  0.25798523855E-01 -0.35005603910E-01  0.10505188378E+00  0.88731440562E+00  0.88000000000E+00 0.  1.
        -11    1    4    4    0    0 -0.71818744179E-02  0.12225217404E-01 -0.48707107004E-01  0.50731436549E-01  0.51100000000E-03 0.  1.
         11    1    4    4    0    0 -0.12882774237E-01  0.42356591023E-01 -0.68923338610E-01  0.81919072268E-01  0.51100000000E-03 0. -1.
</event>
<event>
 8    1  0.1051655E+005  0.1043930E+01  0.7957747E-01            NaN
         13   -1    0    0    0    0  0.00000000000E+00  0.00000000000E+00  0.74505805969E-08  0.10566000000E+00  0.10566000000E+00 0. -1.
     999900   -1    0    0    0    0 -0.00000000000E+00 -0.00000000000E+00 -0.74505805969E-08  0.93827000000E+00  0.93827000000E+00 0.  1.
     999902    2    1    2    0    0 -0.14365464331E-01 -0.18556553538E-01  0.28646494648E-03  0.10204609926E+01  0.10201910817E+01 0.  0.
     999903    2    3    3    0    0 -0.80640695809E-01 -0.36135425819E-01  0.96077065732E-01  0.13261119551E+00  0.23371687876E-01 0.  0.
         14    1    1    2    0    0  0.14365464331E-01  0.18556553538E-01 -0.28646494648E-03  0.23469007368E-01  0.00000000000E+00 0.  1.
     999901    1    3    3    0    0  0.66275231478E-01  0.17578872281E-01 -0.95790600786E-01  0.88784979713E+00  0.88000000000E+00 0.  1.
        -11    1    4    4    0    0 -0.73221531748E-01 -0.34393792597E-01  0.95188500766E-01  0.12492172541E+00  0.51100000000E-03 0. -1.
         11    1    4    4    0    0 -0.74191640607E-02 -0.17416332218E-02  0.88856496688E-03  0.76894700948E-02  0.51100000000E-03 0.  1.
</event>
<event>
 8    1  0.1051655E+005  0.1043930E+01  0.7957747E-01            NaN
         13   -1    0    0    0    0  0.00000000000E+00  0.00000000000E+00  0.74505805969E-08  0.10566000000E+00  0.10566000000E+00 0.  1.
     999900   -1    0    0    0    0 -0.00000000000E+00 -0.00000000000E+00 -0.74505805969E-08  0.93827000000E+00  0.93827000000E+00 0. -1.
     999902    2    1    2    0    0  0.71900031448E-03  0.24880026098E-01 -0.32392327648E-02  0.10188296954E+01  0.10185204578E+01 0.  0.
     999903    2    3    3    0    0 -0.90784082590E-01  0.16521751227E-01  0.88244478894E-01  0.12932874297E+00  0.20594120242E-01 0.  0.
         14    1    1    2    0    0 -0.71900031448E-03 -0.24880026098E-01  0.32392327648E-02  0.25100304560E-01  0.00000000000E+00 0. -1.
     999901    1    3    3    0    0  0.91503082904E-01  0.83582748714E-02 -0.91483711659E-01  0.88950095247E+00  0.88000000000E+00 0. -1.
        -11    1    4    4    0    0 -0.56995232187E-01  0.19085551513E-03  0.52053923826E-01  0.77190446459E-01  0.51100000000E-03 0. -1.
         11    1    4    4    0    0 -0.33788850403E-01  0.16330895712E-01  0.36190555069E-01  0.52138296515E-01  0.51100000000E-03 0.  1.
</event>
<event>
 8    1  0.1051655E+005  0.1043930E+01  0.7957747E-01            NaN
         13   -1    0    0    0    0  0.00000000000E+00  0.00000000000E+00  0.74505805969E-08  0.10566000000E+00  0.10566000000E+00 0. -1.
     999900   -1    0    0    0    0 -0.00000000000E+00 -0.00000000000E+00 -0.74505805969E-08  0.93827000000E+00  0.93827000000E+00 0.  1.
     999902    2    1    2    0    0 -0.57527865355E-02  0.24279428941E-01  0.12065676503E-02  0.10189491868E+01  0.10186429228E+01 0.  0.
     999903    2    3    3    0    0 -0.17170794410E-01  0.12598652911E+00  0.31038920854E-01  0.13251550376E+00  0.20724440446E-01 0.  0.
         14    1    1    2    0    0  0.57527865355E-02 -0.24279428941E-01 -0.12065676503E-02  0.24980813200E-01  0.00000000000E+00 0.  1.
     999901    1    3    3    0    0  0.11418007875E-01 -0.10170710017E+00 -0.29832353204E-01  0.88643368304E+00  0.88000000000E+00 0. -1.
        -11    1    4    4    0    0 -0.75397906337E-02  0.49343634091E-01  0.19001938784E-02  0.49955125121E-01  0.51100000000E-03 0.  1.
         11    1    4    4    0    0 -0.96310037767E-02  0.76642895018E-01  0.29138726976E-01  0.82560378640E-01  0.51100000000E-03 0. -1.
</event>
