<event>
 8    1  0.1064884E+005  0.1043930E+01  0.7957747E-01            NaN
         13   -1    0    0    0    0  0.00000000000E+00  0.00000000000E+00  0.74505805969E-08  0.10566000000E+00  0.10566000000E+00 0. -1.
     999900   -1    0    0    0    0 -0.00000000000E+00 -0.00000000000E+00 -0.74505805969E-08  0.93827000000E+00  0.93827000000E+00 0. -1.
     999902    2    1    2    0    0  0.19167304720E-01 -0.10885319329E-01  0.97120702279E-02  0.10198426578E+01  0.10195581624E+01 0.  0.
     999903    2    3    3    0    0  0.10425417917E+00 -0.69336927735E-01  0.40888777555E-01  0.13326025675E+00  0.20245011196E-01 0.  0.
         14    1    1    2    0    0 -0.19167304720E-01  0.10885319329E-01 -0.97120702279E-02  0.24087342220E-01  0.00000000000E+00 0.  1.
     999901    1    3    3    0    0 -0.85086874448E-01  0.58451608406E-01 -0.31176707327E-01  0.88658240103E+00  0.88000000000E+00 0. -1.
        -11    1    4    4    0    0  0.64244609769E-01 -0.41774590372E-01  0.35232538853E-01  0.84345001039E-01  0.51100000000E-03 0. -1.
         11    1    4    4    0    0  0.40009569400E-01 -0.27562337363E-01  0.56562387017E-02  0.48915255715E-01  0.51100000000E-03 0.  1.
</event>
<event>
 8    1  0.1064884E+005  0.1043930E+01  0.7957747E-01            NaN
         13   -1    0    0    0    0  0.00000000000E+00  0.00000000000E+00  0.74505805969E-08  0.10566000000E+00  0.10566000000E+00 0. -1.
     999900   -1    0    0    0    0 -0.00000000000E+00 -0.00000000000E+00 -0.74505805969E-08  0.93827000000E+00  0.93827000000E+00 0.  1.
     999902    2    1    2    0    0 -0.16173013464E-01  0.57209084136E-02 -0.16100501781E-01  0.10204029663E+01  0.10201317034E+01 0.  0.
     999903    2    3    3    0    0 -0.74654556424E-01  0.33165355899E-01  0.10003652693E+00  0.13042482161E+00  0.18168207031E-01 0.  0.
         14    1    1    2    0    0  0.16173013464E-01 -0.57209084136E-02  0.16100501781E-01  0.23527033709E-01  0.00000000000E+00 0. -1.
     999901    1    3    3    0    0  0.58481542960E-01 -0.27444447485E-01 -0.11613702871E+00  0.88997814468E+00  0.88000000000E+00 0.  1.
        -11    1    4    4    0    0 -0.38511410271E-01  0.77497109675E-02  0.51722532443E-01  0.64951275772E-01  0.51100000000E-03 0.  1.
         11    1    4    4    0    0 -0.36143146153E-01  0.25415644931E-01  0.48313994484E-01  0.65473545842E-01  0.51100000000E-03 0. -1.
</event>
<event>
 8    1  0.1064884E+005  0.1043930E+01  0.7957747E-01            NaN
         13   -1    0    0    0    0  0.00000000000E+00  0.00000000000E+00  0.74505805969E-08  0.10566000000E+00  0.10566000000E+00 0.  1.
     999900   -1    0    0    0    0 -0.00000000000E+00 -0.00000000000E+00 -0.74505805969E-08  0.93827000000E+00  0.93827000000E+00 0. -1.
     999902    2    1    2    0    0  0.23320456409E-01  0.47735211937E-02 -0.11582605486E-02  0.10200978419E+01  0.10198194131E+01 0.  0.
     999903    2    3    3    0    0  0.67547897394E-01  0.11213072084E+00  0.43960176236E-02  0.13245349598E+00  0.19712600766E-01 0.  0.
         14    1    1    2    0    0 -0.23320456409E-01 -0.47735211937E-02  0.11582605486E-02  0.23832158089E-01  0.00000000000E+00 0. -1.
     999901    1    3    3    0    0 -0.44227440985E-01 -0.10735719965E+00 -0.55542781723E-02  0.88764434593E+00  0.88000000000E+00 0. -1.
        -11    1    4    4    0    0  0.19726937619E-01  0.31908378693E-01  0.10195380268E-01  0.38878060631E-01  0.51100000000E-03 0. -1.
         11    1    4    4    0    0  0.47820959774E-01  0.80222342146E-01 -0.57993626445E-02  0.93575435351E-01  0.51100000000E-03 0.  1.
</event>
<event>
 8    1  0.1064884E+005  0.1043930E+01  0.7957747E-01            NaN
         13   -1    0    0    0    0  0.00000000000E+00  0.00000000000E+00  0.74505805969E-08  0.10566000000E+00  0.10566000000E+00 0.  1.
     999900   -1    0    0    0    0 -0.00000000000E+00 -0.00000000000E+00 -0.74505805969E-08  0.93827000000E+00  0.93827000000E+00 0. -1.
     999902    2    1    2    0    0  0.73111988526E-02  0.21141114613E-01 -0.14312710502E-01  0.10173733805E+01  0.10170267162E+01 0.  0.
     999903    2    3    3    0    0  0.28657618591E-01 -0.11662749768E+00 -0.32748830101E-01  0.12620799146E+00  0.20802377696E-01 0.  0.
         14    1    1    2    0    0 -0.73111988526E-02 -0.21141114613E-01  0.14312710502E-01  0.26556619470E-01  0.00000000000E+00 0. -1.
     999901    1    3    3    0    0 -0.21346419738E-01  0.13776861229E+00  0.18436119599E-01  0.89116538907E+00  0.88000000000E+00 0.  1.
        -11    1    4    4    0    0  0.19648458589E-01 -0.41223235527E-01 -0.82233576347E-02  0.46403683087E-01  0.51100000000E-03 0.  1.
         11    1    4    4    0    0  0.90091600024E-02 -0.75404262151E-01 -0.24525472466E-01  0.79804308374E-01  0.51100000000E-03 0. -1.
</event>
<event>
 8    1  0.1064884E+005  0.1043930E+01  0.7957747E-01            NaN
         13   -1    0    0    0    0  0.00000000000E+00  0.00000000000E+00  0.74505805969E-08  0.10566000000E+00  0.10566000000E+00 0.  1.
     999900   -1    0    0    0    0 -0.00000000000E+00 -0.00000000000E+00 -0.74505805969E-08  0.93827000000E+00  0.93827000000E+00 0.  1.
     999902    2    1    2    0    0 -0.13534426220E-01 -0.16447157063E-01 -0.44559763699E-02  0.10221689018E+01  0.10219372380E+01 0.  0.
     999903    2    3    3    0    0  0.99415878487E-01 -0.46532703499E-01  0.69393721672E-01  0.13137336448E+00  0.19866124390E-01 0.  0.
         14    1    1    2    0    0  0.13534426220E-01  0.16447157063E-01  0.44559763699E-02  0.21761098179E-01  0.00000000000E+00 0. -1.
     999901    1    3    3    0    0 -0.11295030471E+00  0.30085546436E-01 -0.73849698042E-01  0.89079553734E+00  0.88000000000E+00 0.  1.
        -11    1    4    4    0    0  0.86861973296E-01 -0.32885171852E-01  0.60062066738E-01  0.11060809154E+00  0.51100000000E-03 0. -1.
         11    1    4    4    0    0  0.12553905191E-01 -0.13647531647E-01  0.93316549335E-02  0.20765272943E-01  0.51100000000E-03 0.  1.
</event>
<event>
 8    1  0.1064884E+005  0.1043930E+01  0.7957747E-01            NaN
         13   -1    0    0    0    0  0.00000000000E+00  0.00000000000E+00  0.74505805969E-08  0.10566000000E+00  0.10566000000E+00 0. -1.
     999900   -1    0    0    0    0 -0.00000000000E+00 -0.00000000000E+00 -0.74505805969E-08  0.93827000000E+00  0.93827000000E+00 0. -1.
     999902    2    1    2    0    0 -0.18914594870E-01 -0.24310065417E-02  0.13618771518E-01  0.10204962075E+01  0.10202271154E+01 0.  0.
     999903    2    3    3    0    0  0.11136703570E+00  0.46039488700E-01 -0.38282850900E-01  0.12807451876E+00  0.20377794818E-01 0.  0.
         14    1    1    2    0    0  0.18914594870E-01  0.24310065417E-02 -0.13618771518E-01  0.23433792470E-01  0.00000000000E+00 0.  1.
     999901    1    3    3    0    0 -0.13028163057E+00 -0.48470495241E-01  0.51901622418E-01  0.89242168877E+00  0.88000000000E+00 0. -1.
        -11    1    4    4    0    0  0.36688770135E-01  0.15763679010E-01 -0.28255358357E-02  0.40035037201E-01  0.51100000000E-03 0.  1.
         11    1    4    4    0    0  0.74678265570E-01  0.30275809690E-01 -0.35457315065E-01  0.88039481561E-01  0.51100000000E-03 0. -1.
</event>
<event>
 8    1  0.1064884E+005  0.1043930E+01  0.7957747E-01            NaN
         13   -1    0    0    0    0  0.00000000000E+00  0.00000000000E+00  0.74505805969E-08  0.10566000000E+00  0.10566000000E+00 0.  1.
     999900   -1    0    0    0    0 -0.00000000000E+00 -0.00000000000E+00 -0.74505805969E-08  0.93827000000E+00  0.93827000000E+00 0.  1.
     999902    2    1    2    0    0 -0.22706287009E-01  0.10671859762E-02 -0.34588397509E-02  0.10209370026E+01  0.10206780518E+01 0.  0.
     999903    2    3    3    0    0  0.23738577980E-01 -0.25247719142E-01  0.12378688144E+00  0.13018390930E+00  0.20583751269E-01 0.  0.
         14    1    1    2    0    0  0.22706287009E-01 -0.10671859762E-02  0.34588397509E-02  0.22992997370E-01  0.00000000000E+00 0.  1.
     999901    1    3    3    0    0 -0.46444864989E-01  0.26314905118E-01 -0.12724572120E+00  0.89075309333E+00  0.88000000000E+00 0.  1.
        -11    1    4    4    0    0  0.71603294126E-02 -0.97245585869E-02  0.79468172560E-01  0.80382143092E-01  0.51100000000E-03 0. -1.
         11    1    4    4    0    0  0.16578248568E-01 -0.15523160555E-01  0.44318708884E-01  0.49801766207E-01  0.51100000000E-03 0.  1.
</event>
<event>
 8    1  0.1064884E+005  0.1043930E+01  0.7957747E-01            NaN
         13   -1    0    0    0    0  0.00000000000E+00  0.00000000000E+00  0.74505805969E-08  0.10566000000E+00  0.10566000000E+00 0.  1.
     999900   -1    0    0    0    0 -0.00000000000E+00 -0.00000000000E+00 -0.74505805969E-08  0.93827000000E+00  0.93827000000E+00 0.  1.
     999902    2    1    2    0    0  0.15982724860E-01  0.11591305406E-02  0.16942635902E-01  0.10206095371E+01  0.10203430714E+01 0.  0.
     999903    2    3    3    0    0  0.20327227439E-01  0.89942317304E-01  0.93508635217E-01  0.13282370641E+00  0.19886063159E-01 0.  0.
         14    1    1    2    0    0 -0.15982724860E-01 -0.11591305406E-02 -0.16942635902E-01  0.23320462878E-01  0.00000000000E+00 0.  1.
     999901    1    3    3    0    0 -0.43445025795E-02 -0.88783186763E-01 -0.76565999316E-01  0.88778583071E+00  0.88000000000E+00 0. -1.
        -11    1    4    4    0    0 -0.26762399892E-02  0.11891271385E-01  0.18463202262E-01  0.22129517717E-01  0.51100000000E-03 0. -1.
         11    1    4    4    0    0  0.23003467429E-01  0.78051045919E-01  0.75045432955E-01  0.11069418870E+00  0.51100000000E-03 0.  1.
</event>
<event>
 8    1  0.1064884E+005  0.1043930E+01  0.7957747E-01            NaN
         13   -1    0    0    0    0  0.00000000000E+00  0.00000000000E+00  0.74505805969E-08  0.10566000000E+00  0.10566000000E+00 0.  1.
     999900   -1    0    0    0    0 -0.00000000000E+00 -0.00000000000E+00 -0.74505805969E-08  0.93827000000E+00  0.93827000000E+00 0.  1.
     999902    2    1    2    0    0 -0.20603478827E-01  0.84057945223E-03 -0.11689634450E-01  0.10202264672E+01  0.10199510708E+01 0.  0.
     999903    2    3    3    0    0 -0.52543146470E-01  0.11692251350E+00  0.21387535316E-01  0.13141306893E+00  0.19501579789E-01 0.  0.
         14    1    1    2    0    0  0.20603478827E-01 -0.84057945223E-03  0.11689634450E-01  0.23703532799E-01  0.00000000000E+00 0.  1.
     999901    1    3    3    0    0  0.31939667643E-01 -0.11608193405E+00 -0.33077169766E-01  0.88881339827E+00  0.88000000000E+00 0.  1.
        -11    1    4    4    0    0 -0.60813996341E-02  0.33152638609E-01  0.27323518709E-02  0.33820226729E-01  0.51100000000E-03 0.  1.
         11    1    4    4    0    0 -0.46461746836E-01  0.83769874895E-01  0.18655183445E-01  0.97592842203E-01  0.51100000000E-03 0. -1.
</event>
<event>
 8    1  0.1064884E+005  0.1043930E+01  0.7957747E-01            NaN
         13   -1    0    0    0    0  0.00000000000E+00  0.00000000000E+00  0.74505805969E-08  0.10566000000E+00  0.10566000000E+00 0. -1.
     999900   -1    0    0    0    0 -0.00000000000E+00 -0.00000000000E+00 -0.74505805969E-08  0.93827000000E+00  0.93827000000E+00 0.  1.
     999902    2    1    2    0    0  0.13661798078E-01 -0.17336626591E-01 -0.73553369517E-02  0.10206640521E+01  0.10203988451E+01 0.  0.
     999903    2    3    3    0    0 -0.38508630452E-01  0.35137328994E-01  0.11630894896E+00  0.12894205216E+00  0.19512424237E-01 0.  0.
         14    1    1    2    0    0 -0.13661798078E-01  0.17336626591E-01  0.73553369517E-02  0.23265947863E-01  0.00000000000E+00 0. -1.
     999901    1    3    3    0    0  0.52170428531E-01 -0.52473955585E-01 -0.12366428591E+00  0.89172199997E+00  0.88000000000E+00 0.  1.
        -11    1    4    4    0    0 -0.40129570565E-01  0.33866085328E-01  0.10459126649E+00  0.11703370590E+00  0.51100000000E-03 0. -1.
         11    1    4    4    0    0  0.16209401124E-02  0.12712436662E-02  0.11717682468E-01  0.11908346264E-01  0.51100000000E-03 0.  1.
</event>
<event>
 8    1  0.1064884E+005  0.1043930E+01  0.7957747E-01            NaN
         13   -1    0    0    0    0  0.00000000000E+00  0.00000000000E+00  0.74505805969E-08  0.10566000000E+00  0.10566000000E+00 0. -1.
     999900   -1    0    0    0    0 -0.00000000000E+00 -0.00000000000E+00 -0.74505805969E-08  0.93827000000E+00  0.93827000000E+00 0.  1.
     999902    2    1    2    0    0  0.27633580612E-02  0.76310295299E-02  0.22108096200E-01  0.10203792744E+01  0.10201074585E+01 0.  0.
     999903    2    3    3    0    0  0.10291914127E+00 -0.76991438555E-01  0.11841460423E-01  0.13060540040E+00  0.19937882984E-01 0.  0.
         14    1    1    2    0    0 -0.27633580612E-02 -0.76310295299E-02 -0.22108096200E-01  0.23550725616E-01  0.00000000000E+00 0.  1.
     999901    1    3    3    0    0 -0.10015578321E+00  0.84622468085E-01  0.10266635777E-01  0.88977387398E+00  0.88000000000E+00 0. -1.
        -11    1    4    4    0    0  0.65243941607E-02 -0.65481551977E-02 -0.41531705926E-02  0.10146723739E-01  0.51100000000E-03 0. -1.
         11    1    4    4    0    0  0.96394747110E-01 -0.70443283357E-01  0.15994631016E-01  0.12045867666E+00  0.51100000000E-03 0.  1.
</event>
<event>
 8    1  0.1064884E+005  0.1043930E+01  0.7957747E-01            NaN
         13   -1    0    0    0    0  0.00000000000E+00  0.00000000000E+00  0.74505805969E-08  0.10566000000E+00  0.10566000000E+00 0.  1.
     999900   -1    0    0    0    0 -0.00000000000E+00 -0.00000000000E+00 -0.74505805969E-08  0.93827000000E+00  0.93827000000E+00 0. -1.
     999902    2    1    2    0    0 -0.20339243420E-01 -0.12470789608E-01  0.10580812993E-02  0.10200485228E+01  0.10197689267E+01 0.  0.
     999903    2    3    3    0    0  0.64281376951E-01  0.10135733158E+00  0.39256883574E-01  0.12787329392E+00  0.20126408088E-01 0.  0.
         14    1    1    2    0    0  0.20339243420E-01  0.12470789608E-01 -0.10580812993E-02  0.23881477182E-01  0.00000000000E+00 0.  1.
     999901    1    3    3    0    0 -0.84620620371E-01 -0.11382812119E+00 -0.38198802274E-01  0.89217522890E+00  0.88000000000E+00 0. -1.
        -11    1    4    4    0    0  0.62842110834E-01  0.95899045154E-01  0.41271549502E-01  0.12185794876E+00  0.51100000000E-03 0.  1.
         11    1    4    4    0    0  0.14392661174E-02  0.54582864242E-02 -0.20146659283E-02  0.60153451645E-02  0.51100000000E-03 0. -1.
</event>
<event>
 8    1  0.1064884E+005  0.1043930E+01  0.7957747E-01            NaN
         13   -1    0    0    0    0  0.00000000000E+00  0.00000000000E+00  0.74505805969E-08  0.10566000000E+00  0.10566000000E+00 0. -1.
     999900   -1    0    0    0    0 -0.00000000000E+00 -0.00000000000E+00 -0.74505805969E-08  0.93827000000E+00  0.93827000000E+00 0. -1.
     999902    2    1    2    0    0  0.23636678403E-01 -0.70449462907E-02  0.20344531053E-02  0.10191820135E+01  0.10188815014E+01 0.  0.
     999903    2    3    3    0    0  0.91490383083E-01  0.91507629760E-01 -0.57857676108E-02  0.13105032774E+00  0.19914235909E-01 0.  0.
         14    1    1    2    0    0 -0.23636678403E-01  0.70449462907E-02 -0.20344531053E-02  0.24747986455E-01  0.00000000000E+00 0. -1.
     999901    1    3    3    0    0 -0.67853704680E-01 -0.98552576051E-01  0.78202207161E-02  0.88813168581E+00  0.88000000000E+00 0.  1.
        -11    1    4    4    0    0  0.27676343118E-01  0.16271227103E-01  0.13423220071E-02  0.32137139717E-01  0.51100000000E-03 0.  1.
         11    1    4    4    0    0  0.63814039965E-01  0.75236402657E-01 -0.71280896179E-02  0.98913188019E-01  0.51100000000E-03 0. -1.
</event>
<event>
 8    1  0.1064884E+005  0.1043930E+01  0.7957747E-01            NaN
         13   -1    0    0    0    0  0.00000000000E+00  0.00000000000E+00  0.74505805969E-08  0.10566000000E+00  0.10566000000E+00 0. -1.
     999900   -1    0    0    0    0 -0.00000000000E+00 -0.00000000000E+00 -0.74505805969E-08  0.93827000000E+00  0.93827000000E+00 0. -1.
     999902    2    1    2    0    0  0.75390381150E-02 -0.12989617836E-01  0.14726126379E-01  0.10228960735E+01  0.10226797891E+01 0.  0.
     999903    2    3    3    0    0 -0.34474656982E-01  0.59135071239E-01 -0.10914712171E+00  0.13030898923E+00  0.19541746958E-01 0.  0.
         14    1    1    2    0    0 -0.75390381150E-02  0.12989617836E-01 -0.14726126379E-01  0.21033926532E-01  0.00000000000E+00 0.  1.
     999901    1    3    3    0    0  0.42013695097E-01 -0.72124689075E-01  0.12387324808E+00  0.89258708423E+00  0.88000000000E+00 0.  1.
        -11    1    4    4    0    0 -0.28804149161E-01  0.36456568279E-01 -0.60044992591E-01  0.75923794925E-01  0.51100000000E-03 0. -1.
         11    1    4    4    0    0 -0.56705078208E-02  0.22678502960E-01 -0.49102129115E-01  0.54385194309E-01  0.51100000000E-03 0.  1.
</event>
<event>
 8    1  0.1064884E+005  0.1043930E+01  0.7957747E-01            NaN
         13   -1    0    0    0    0  0.00000000000E+00  0.00000000000E+00  0.74505805969E-08  0.10566000000E+00  0.10566000000E+00 0.  1.
     999900   -1    0    0    0    0 -0.00000000000E+00 -0.00000000000E+00 -0.74505805969E-08  0.93827000000E+00  0.93827000000E+00 0. -1.
     999902    2    1    2    0    0 -0.99053369870E-02 -0.11782216034E-01 -0.19004140322E-01  0.10194740464E+01  0.10191806698E+01 0.  0.
     999903    2    3    3    0    0  0.11773033157E+00  0.45536426450E-01 -0.10582923004E-01  0.12838078108E+00  0.20871741308E-01 0.  0.
         14    1    1    2    0    0  0.99053369870E-02  0.11782216034E-01  0.19004140322E-01  0.24455953567E-01  0.00000000000E+00 0.  1.
     999901    1    3    3    0    0 -0.12763566856E+00 -0.57318642484E-01 -0.84212173180E-02  0.89109326536E+00  0.88000000000E+00 0.  1.
        -11    1    4    4    0    0  0.55355280537E-01  0.31147960232E-01 -0.10403941502E-01  0.64365407089E-01  0.51100000000E-03 0.  1.
         11    1    4    4    0    0  0.62375051031E-01  0.14388466218E-01 -0.17898150237E-03  0.64015373986E-01  0.51100000000E-03 0. -1.
</event>
<event>
 8    1  0.1064884E+005  0.1043930E+01  0.7957747E-01            NaN
         13   -1    0    0    0    0  0.00000000000E+00  0.00000000000E+00  0.74505805969E-08  0.10566000000E+00  0.10566000000E+00 0.  1.
     999900   -1    0    0    0    0 -0.00000000000E+00 -0.00000000000E+00 -0.74505805969E-08  0.93827000000E+00  0.93827000000E+00 0.  1.
     999902    2    1    2    0    0  0.20713092962E-01 -0.10477315854E-01 -0.83258646918E-02  0.10192697812E+01  0.10189714228E+01 0.  0.
     999903    2    3    3    0    0  0.20075278089E-01 -0.63922775522E-01  0.10936140121E+00  0.12982775583E+00  0.20154207725E-01 0.  0.
         14    1    1    2    0    0 -0.20713092962E-01  0.10477315854E-01  0.83258646918E-02  0.24660218783E-01  0.00000000000E+00 0. -1.
     999901    1    3    3    0    0  0.63781487286E-03  0.53445459667E-01 -0.11768726590E+00  0.88944202539E+00  0.88000000000E+00 0.  1.
        -11    1    4    4    0    0  0.17829670096E-02 -0.35808714200E-01  0.64700217067E-01  0.73971766191E-01  0.51100000000E-03 0. -1.
         11    1    4    4    0    0  0.18292311080E-01 -0.28114061322E-01  0.44661184142E-01  0.55855989640E-01  0.51100000000E-03 0.  1.
</event>
<event>
 8    1  0.1064884E+005  0.1043930E+01  0.7957747E-01            NaN
         13   -1    0    0    0    0  0.00000000000E+00  0.00000000000E+00  0.74505805969E-08  0.10566000000E+00  0.10566000000E+00 0. -1.
     999900   -1    0    0    0    0 -0.00000000000E+00 -0.00000000000E+00 -0.74505805969E-08  0.93827000000E+00  0.93827000000E+00 0. -1.
     999902    2    1    2    0    0  0.16346838764E-01  0.14538089010E-01  0.93362181120E-02  0.10201447075E+01  0.10198673856E+01 0.  0.
     999903    2    3    3    0    0 -0.88181538204E-01 -0.85307390400E-01 -0.28607482033E-01  0.12754455867E+00  0.19897031963E-01 0.  0.
         14    1    1    2    0    0 -0.16346838764E-01 -0.14538089010E-01 -0.93362181120E-02  0.23785292479E-01  0.00000000000E+00 0.  1.
     999901    1    3    3    0    0  0.10452837697E+00  0.99845479410E-01  0.37943700145E-01  0.89260014885E+00  0.88000000000E+00 0. -1.
        -11    1    4    4    0    0 -0.33157140424E-01 -0.36855799778E-01 -0.20967500892E-01  0.53829760849E-01  0.51100000000E-03 0.  1.
         11    1    4    4    0    0 -0.55024397780E-01 -0.48451590622E-01 -0.76399811407E-02  0.73714797820E-01  0.51100000000E-03 0. -1.
</event>
<event>
 8    1  0.1064884E+005  0.1043930E+01  0.7957747E-01            NaN
         13   -1    0    0    0    0  0.00000000000E+00  0.00000000000E+00  0.74505805969E-08  0.10566000000E+00  0.10566000000E+00 0.  1.
     999900   -1    0    0    0    0 -0.00000000000E+00 -0.00000000000E+00 -0.74505805969E-08  0.93827000000E+00  0.93827000000E+00 0.  1.
     999902    2    1    2    0    0  0.15680983718E-01  0.76349931354E-02 -0.18611465646E-01  0.10184236670E+01  0.10181042149E+01 0.  0.
     999903    2    3    3    0    0  0.74882350522E-01  0.57006591097E-01 -0.90393269580E-01  0.13214211810E+00  0.20820142692E-01 0.  0.
         14    1    1    2    0    0 -0.15680983718E-01 -0.76349931354E-02  0.18611465646E-01  0.25506333018E-01  0.00000000000E+00 0.  1.
     999901    1    3    3    0    0 -0.59201366804E-01 -0.49371597961E-01  0.71781803934E-01  0.88628154888E+00  0.88000000000E+00 0.  1.
        -11    1    4    4    0    0  0.60909065455E-01  0.43658764128E-01 -0.81944196871E-01  0.11104555129E+00  0.51100000000E-03 0. -1.
         11    1    4    4    0    0  0.13973285067E-01  0.13347826969E-01 -0.84490727087E-02  0.21096566806E-01  0.51100000000E-03 0.  1.
</event>
<event>
 8    1  0.1064884E+005  0.1043930E+01  0.7957747E-01            NaN
         13   -1    0    0    0    0  0.00000000000E+00  0.00000000000E+00  0.74505805969E-08  0.10566000000E+00  0.10566000000E+00 0. -1.
     999900   -1    0    0    0    0 -0.00000000000E+00 -0.00000000000E+00 -0.74505805969E-08  0.93827000000E+00  0.93827000000E+00 0.  1.
     999902    2    1    2    0    0 -0.10460422141E-01  0.16075051356E-01 -0.13890560673E-01  0.10202493036E+01  0.10199744438E+01 0.  0.
     999903    2    3    3    0    0  0.57884516948E-01 -0.10030623897E+00  0.49901497233E-01  0.12767714286E+00  0.19983355673E-01 0.  0.
         14    1    1    2    0    0  0.10460422141E-01 -0.16075051356E-01  0.13890560673E-01  0.23680696427E-01  0.00000000000E+00 0. -1.
     999901    1    3    3    0    0 -0.68344939089E-01  0.11638129032E+00 -0.63792057905E-01  0.89257216072E+00  0.88000000000E+00 0. -1.
        -11    1    4    4    0    0  0.31835654180E-01 -0.73602297701E-01  0.35130718275E-01  0.87551331181E-01  0.51100000000E-03 0.  1.
         11    1    4    4    0    0  0.26048862768E-01 -0.26703941264E-01  0.14770778957E-01  0.40125811675E-01  0.51100000000E-03 0. -1.
</event>
<event>
 8    1  0.1064884E+005  0.1043930E+01  0.7957747E-01            NaN
         13   -1    0    0    0    0  0.00000000000E+00  0.00000000000E+00  0.74505805969E-08  0.10566000000E+00  0.10566000000E+00 0. -1.
     999900   -1    0    0    0    0 -0.00000000000E+00 -0.00000000000E+00 -0.74505805969E-08  0.93827000000E+00  0.93827000000E+00 0.  1.
     999902    2    1    2    0    0 -0.14934503668E-01  0.12570392640E-01 -0.14128218736E-01  0.10198330970E+01  0.10195483730E+01 0.  0.
     999903    2    3    3    0    0  0.45272903858E-01  0.11746180134E+00  0.28162536847E-01  0.13055493602E+00  0.20113483988E-01 0.  0.
         14    1    1    2    0    0  0.14934503668E-01 -0.12570392640E-01  0.14128218736E-01  0.24096903029E-01  0.00000000000E+00 0. -1.
     999901    1    3    3    0    0 -0.60207407527E-01 -0.10489140870E+00 -0.42290755582E-01  0.88927816095E+00  0.88000000000E+00 0.  1.
        -11    1    4    4    0    0  0.13059294566E-01  0.61199846843E-01  0.15962951623E-01  0.64583615366E-01  0.51100000000E-03 0. -1.
         11    1    4    4    0    0  0.32213609293E-01  0.56261954501E-01  0.12199585224E-01  0.65971320652E-01  0.51100000000E-03 0.  1.
</event>
<event>
 8    1  0.1064884E+005  0.1043930E+01  0.7957747E-01            NaN
         13   -1    0    0    0    0  0.00000000000E+00  0.00000000000E+00  0.74505805969E-08  0.10566000000E+00  0.10566000000E+00 0.  1.
     999900   -1    0    0    0    0 -0.00000000000E+00 -0.00000000000E+00 -0.74505805969E-08  0.93827000000E+00  0.93827000000E+00 0. -1.
     999902    2    1    2    0    0  0.58854382998E-03  0.20167549231E-01  0.12039349442E-01  0.10204348439E+01  0.10201643241E+01 0.  0.
     999903    2    3    3    0    0 -0.74178906975E-01 -0.75731052861E-01 -0.69503554048E-01  0.12833845969E+00  0.20057756682E-01 0.  0.
         14    1    1    2    0    0 -0.58854382998E-03 -0.20167549231E-01 -0.12039349442E-01  0.23495156114E-01  0.00000000000E+00 0. -1.
     999901    1    3    3    0    0  0.74767450805E-01  0.95898602093E-01  0.81542903490E-01  0.89209638419E+00  0.88000000000E+00 0.  1.
        -11    1    4    4    0    0 -0.48533673646E-01 -0.54683962697E-01 -0.57627693038E-01  0.93097075033E-01  0.51100000000E-03 0. -1.
         11    1    4    4    0    0 -0.25645233329E-01 -0.21047090164E-01 -0.11875861009E-01  0.35241384658E-01  0.51100000000E-03 0.  1.
</event>
<event>
 8    1  0.1064884E+005  0.1043930E+01  0.7957747E-01            NaN
         13   -1    0    0    0    0  0.00000000000E+00  0.00000000000E+00  0.74505805969E-08  0.10566000000E+00  0.10566000000E+00 0.  1.
     999900   -1    0    0    0    0 -0.00000000000E+00 -0.00000000000E+00 -0.74505805969E-08  0.93827000000E+00  0.93827000000E+00 0. -1.
     999902    2    1    2    0    0  0.18109196313E-02 -0.55991263357E-02 -0.22835823165E-01  0.10203481327E+01  0.10200755891E+01 0.  0.
     999903    2    3    3    0    0 -0.85447303949E-01  0.26970831400E-01  0.90436987032E-01  0.12821275662E+00  0.15198514334E-01 0.  0.
         14    1    1    2    0    0 -0.18109196313E-02  0.55991263357E-02  0.22835823165E-01  0.23581867298E-01  0.00000000000E+00 0.  1.
     999901    1    3    3    0    0  0.87258223581E-01 -0.32569957735E-01 -0.11327281020E+00  0.89213537608E+00  0.88000000000E+00 0. -1.
        -11    1    4    4    0    0 -0.75893093990E-01  0.27794172642E-01  0.76495478249E-01  0.11128385805E+00  0.51100000000E-03 0. -1.
         11    1    4    4    0    0 -0.95542099593E-02 -0.82334124192E-03  0.13941508782E-01  0.16928898572E-01  0.51100000000E-03 0.  1.
</event>
<event>
 8    1  0.1064884E+005  0.1043930E+01  0.7957747E-01            NaN
         13   -1    0    0    0    0  0.00000000000E+00  0.00000000000E+00  0.74505805969E-08  0.10566000000E+00  0.10566000000E+00 0.  1.
     999900   -1    0    0    0    0 -0.00000000000E+00 -0.00000000000E+00 -0.74505805969E-08  0.93827000000E+00  0.93827000000E+00 0. -1.
     999902    2    1    2    0    0  0.68988247253E-03 -0.22700489884E-01 -0.70946045419E-02  0.10201366902E+01  0.10198591790E+01 0.  0.
     999903    2    3    3    0    0  0.96248298003E-01 -0.39645611129E-01 -0.78649248048E-01  0.13191452488E+00  0.19499443731E-01 0.  0.
         14    1    1    2    0    0 -0.68988247253E-03  0.22700489884E-01  0.70946045419E-02  0.23793309825E-01  0.00000000000E+00 0. -1.
     999901    1    3    3    0    0 -0.95558415530E-01  0.16945121244E-01  0.71554643506E-01  0.88822216529E+00  0.88000000000E+00 0.  1.
        -11    1    4    4    0    0  0.55322638858E-01 -0.27384026208E-01 -0.56975152854E-01  0.84005407119E-01  0.51100000000E-03 0. -1.
         11    1    4    4    0    0  0.40925659145E-01 -0.12261584920E-01 -0.21674095195E-01  0.47909117762E-01  0.51100000000E-03 0.  1.
</event>
<event>
 8    1  0.1064884E+005  0.1043930E+01  0.7957747E-01            NaN
         13   -1    0    0    0    0  0.00000000000E+00  0.00000000000E+00  0.74505805969E-08  0.10566000000E+00  0.10566000000E+00 0. -1.
     999900   -1    0    0    0    0 -0.00000000000E+00 -0.00000000000E+00 -0.74505805969E-08  0.93827000000E+00  0.93827000000E+00 0.  1.
     999902    2    1    2    0    0 -0.75964049775E-02  0.22624802068E-01  0.25125305576E-02  0.10199320866E+01  0.10196497249E+01 0.  0.
     999903    2    3    3    0    0 -0.12967718864E+00  0.17446506640E-02  0.16249861925E-02  0.13125864479E+00  0.20173601367E-01 0.  0.
         14    1    1    2    0    0  0.75964049775E-02 -0.22624802068E-01 -0.25125305576E-02  0.23997913389E-01  0.00000000000E+00 0. -1.
     999901    1    3    3    0    0  0.12208078366E+00  0.20880151404E-01  0.88754436510E-03  0.88867344182E+00  0.88000000000E+00 0.  1.
        -11    1    4    4    0    0 -0.49310620151E-01 -0.62419269917E-02 -0.63103505682E-02  0.50105693863E-01  0.51100000000E-03 0. -1.
         11    1    4    4    0    0 -0.80366568491E-01  0.79865776557E-02  0.79353367607E-02  0.81152950927E-01  0.51100000000E-03 0.  1.
</event>
<event>
 8    1  0.1064884E+005  0.1043930E+01  0.7957747E-01            NaN
         13   -1    0    0    0    0  0.00000000000E+00  0.00000000000E+00  0.74505805969E-08  0.10566000000E+00  0.10566000000E+00 0.  1.
     999900   -1    0    0    0    0 -0.00000000000E+00 -0.00000000000E+00 -0.74505805969E-08  0.93827000000E+00  0.93827000000E+00 0. -1.
     999902    2    1    2    0    0  0.50787634435E-02  0.33433711350E-02 -0.23279040346E-01  0.10198699566E+01  0.10195861134E+01 0.  0.
     999903    2    3    3    0    0  0.11505740137E+00  0.51972239880E-01 -0.31114276531E-01  0.13165744904E+00  0.20646218929E-01 0.  0.
         14    1    1    2    0    0 -0.50787634435E-02 -0.33433711350E-02  0.23279040346E-01  0.24060043393E-01  0.00000000000E+00 0.  1.
     999901    1    3    3    0    0 -0.10997863792E+00 -0.48628868745E-01  0.78352361853E-02  0.88821250757E+00  0.88000000000E+00 0. -1.
        -11    1    4    4    0    0  0.27734810400E-01  0.83820291257E-02 -0.15351998716E-01  0.32793644289E-01  0.51100000000E-03 0. -1.
         11    1    4    4    0    0  0.87322590966E-01  0.43590210754E-01 -0.15762277815E-01  0.98863804749E-01  0.51100000000E-03 0.  1.
</event>
<event>
 8    1  0.1064884E+005  0.1043930E+01  0.7957747E-01            NaN
         13   -1    0    0    0    0  0.00000000000E+00  0.00000000000E+00  0.74505805969E-08  0.10566000000E+00  0.10566000000E+00 0. -1.
     999900   -1    0    0    0    0 -0.00000000000E+00 -0.00000000000E+00 -0.74505805969E-08  0.93827000000E+00  0.93827000000E+00 0.  1.
     999902    2    1    2    0    0  0.16791333623E-01  0.88172001573E-03 -0.17091476057E-01  0.10199540773E+01  0.10196722390E+01 0.  0.
     999903    2    3    3    0    0 -0.32986327459E-01 -0.88893644034E-01 -0.88012032726E-01  0.13115311146E+00  0.21560217834E-01 0.  0.
         14    1    1    2    0    0 -0.16791333623E-01 -0.88172001573E-03  0.17091476057E-01  0.23975922690E-01  0.00000000000E+00 0. -1.
     999901    1    3    3    0    0  0.49777661081E-01  0.89775364050E-01  0.70920556668E-01  0.88880096585E+00  0.88000000000E+00 0.  1.
        -11    1    4    4    0    0 -0.55858751981E-02 -0.27168642956E-01 -0.38312572613E-01  0.47301707190E-01  0.51100000000E-03 0.  1.
         11    1    4    4    0    0 -0.27400452260E-01 -0.61725001078E-01 -0.49699460113E-01  0.83851404273E-01  0.51100000000E-03 0. -1.
</event>
<event>
 8    1  0.1064884E+005  0.1043930E+01  0.7957747E-01            NaN
         13   -1    0    0    0    0  0.00000000000E+00  0.00000000000E+00  0.74505805969E-08  0.10566000000E+00  0.10566000000E+00 0.  1.
     999900   -1    0    0    0    0 -0.00000000000E+00 -0.00000000000E+00 -0.74505805969E-08  0.93827000000E+00  0.93827000000E+00 0. -1.
     999902    2    1    2    0    0  0.15792637568E-01 -0.15812076024E-02  0.19014592925E-01  0.10191618276E+01  0.10188608190E+01 0.  0.
     999903    2    3    3    0    0  0.98142119742E-01  0.83627721407E-01  0.14932597244E-01  0.13120987989E+00  0.19172341131E-01 0.  0.
         14    1    1    2    0    0 -0.15792637568E-01  0.15812076024E-02 -0.19014592925E-01  0.24768172378E-01  0.00000000000E+00 0. -1.
     999901    1    3    3    0    0 -0.82349482174E-01 -0.85208929010E-01  0.40819956810E-02  0.88795194773E+00  0.88000000000E+00 0. -1.
        -11    1    4    4    0    0  0.73918744053E-01  0.73021166085E-01  0.12279361595E-01  0.10462846296E+00  0.51100000000E-03 0.  1.
         11    1    4    4    0    0  0.24223375689E-01  0.10606555322E-01  0.26532356492E-02  0.26581416929E-01  0.51100000000E-03 0. -1.
</event>
<event>
 8    1  0.1064884E+005  0.1043930E+01  0.7957747E-01            NaN
         13   -1    0    0    0    0  0.00000000000E+00  0.00000000000E+00  0.74505805969E-08  0.10566000000E+00  0.10566000000E+00 0. -1.
     999900   -1    0    0    0    0 -0.00000000000E+00 -0.00000000000E+00 -0.74505805969E-08  0.93827000000E+00  0.93827000000E+00 0.  1.
     999902    2    1    2    0    0  0.33554137229E-02 -0.23492694702E-01  0.49171828639E-02  0.10196948150E+01  0.10194067743E+01 0.  0.
     999903    2    3    3    0    0  0.10183882850E+00  0.64624520857E-01 -0.40386179502E-01  0.12867516239E+00  0.19462225866E-01 0.  0.
         14    1    1    2    0    0 -0.33554137229E-02  0.23492694702E-01 -0.49171828639E-02  0.24235185020E-01  0.00000000000E+00 0.  1.
     999901    1    3    3    0    0 -0.98483414773E-01 -0.88117215559E-01  0.45303362366E-01  0.89101965259E+00  0.88000000000E+00 0.  1.
        -11    1    4    4    0    0  0.49452293888E-01  0.22115341062E-01 -0.12040077109E-01  0.55496326535E-01  0.51100000000E-03 0. -1.
         11    1    4    4    0    0  0.52386534607E-01  0.42509179795E-01 -0.28346102393E-01  0.73178835853E-01  0.51100000000E-03 0.  1.
</event>
<event>
 7    1  0.1064884E+005  0.1043930E+01  0.7957747E-01            NaN
         13   -1    0    0    0    0  0.00000000000E+00  0.00000000000E+00  0.74505805969E-08  0.10566000000E+00  0.10566000000E+00 0.  1.
     999900   -1    0    0    0    0 -0.00000000000E+00 -0.00000000000E+00 -0.74505805969E-08  0.93827000000E+00  0.93827000000E+00 0.  1.
     999903    2    1    2    0    0 -0.36241225332E-01 -0.68132119970E-01  0.43412110057E-01  0.90733382439E-01  0.19812198369E-01 0.  0.
         14    1    1    2    0    0  0.28281430179E-01  0.18828424011E-01  0.56713572760E-01  0.66111861106E-01  0.00000000000E+00 0.  1.
     999901    1    1    2    0    0  0.79597951526E-02  0.49303695959E-01 -0.10012568282E+00  0.88708475645E+00  0.88000000000E+00 0.  1.
        -11    1    3    3    0    0 -0.20136734650E-01 -0.39041381200E-01  0.35670150256E-01  0.56589206291E-01  0.51100000000E-03 0.  1.
         11    1    3    3    0    0 -0.16104490682E-01 -0.29090738769E-01  0.77419598003E-02  0.34144176148E-01  0.51100000000E-03 0. -1.
</event>
<event>
 8    1  0.1064884E+005  0.1043930E+01  0.7957747E-01            NaN
         13   -1    0    0    0    0  0.00000000000E+00  0.00000000000E+00  0.74505805969E-08  0.10566000000E+00  0.10566000000E+00 0.  1.
     999900   -1    0    0    0    0 -0.00000000000E+00 -0.00000000000E+00 -0.74505805969E-08  0.93827000000E+00  0.93827000000E+00 0. -1.
     999902    2    1    2    0    0  0.11146311450E-01  0.22939736098E-01 -0.19045557543E-03  0.10184249412E+01  0.10181055215E+01 0.  0.
     999903    2    3    3    0    0  0.67312664243E-01 -0.31373659802E-01 -0.10365175906E+00  0.12892573070E+00  0.19048768555E-01 0.  0.
         14    1    1    2    0    0 -0.11146311450E-01 -0.22939736098E-01  0.19045557543E-03  0.25505058802E-01  0.00000000000E+00 0. -1.
     999901    1    3    3    0    0 -0.56166352794E-01  0.54313395900E-01  0.10346130348E+00  0.88949921050E+00  0.88000000000E+00 0.  1.
        -11    1    4    4    0    0  0.50581476618E-01 -0.16155756302E-01 -0.62914997725E-01  0.82328927469E-01  0.51100000000E-03 0.  1.
         11    1    4    4    0    0  0.16731187626E-01 -0.15217903500E-01 -0.40736761333E-01  0.46596803229E-01  0.51100000000E-03 0. -1.
</event>
<event>
 8    1  0.1064884E+005  0.1043930E+01  0.7957747E-01            NaN
         13   -1    0    0    0    0  0.00000000000E+00  0.00000000000E+00  0.74505805969E-08  0.10566000000E+00  0.10566000000E+00 0. -1.
     999900   -1    0    0    0    0 -0.00000000000E+00 -0.00000000000E+00 -0.74505805969E-08  0.93827000000E+00  0.93827000000E+00 0.  1.
     999902    2    1    2    0    0 -0.10843259990E-01 -0.25767029919E-01  0.26069028294E-03  0.10159731748E+01  0.10155884539E+01 0.  0.
     999903    2    3    3    0    0  0.75670443123E-02 -0.28657298758E-01  0.12217967406E+00  0.12737229047E+00  0.20428575435E-01 0.  0.
         14    1    1    2    0    0  0.10843259990E-01  0.25767029919E-01 -0.26069028294E-03  0.27956825240E-01  0.00000000000E+00 0. -1.
     999901    1    3    3    0    0 -0.18410304302E-01  0.28902688395E-02 -0.12191898378E+00  0.88860088429E+00  0.88000000000E+00 0.  1.
        -11    1    4    4    0    0  0.98055005639E-02 -0.78588759918E-02  0.25237734146E-01  0.28197767979E-01  0.51100000000E-03 0. -1.
         11    1    4    4    0    0 -0.22384562516E-02 -0.20798422767E-01  0.96941939914E-01  0.99174522490E-01  0.51100000000E-03 0.  1.
</event>
<event>
 8    1  0.1064884E+005  0.1043930E+01  0.7957747E-01            NaN
         13   -1    0    0    0    0  0.00000000000E+00  0.00000000000E+00  0.74505805969E-08  0.10566000000E+00  0.10566000000E+00 0. -1.
     999900   -1    0    0    0    0 -0.00000000000E+00 -0.00000000000E+00 -0.74505805969E-08  0.93827000000E+00  0.93827000000E+00 0.  1.
     999902    2    1    2    0    0 -0.73551527745E-02  0.45074401807E-03 -0.20654594703E-01  0.10220002548E+01  0.10217649471E+01 0.  0.
     999903    2    3    3    0    0 -0.97863399443E-01 -0.34237410350E-01 -0.83103794890E-01  0.13447847288E+00  0.20706852116E-01 0.  0.
         14    1    1    2    0    0  0.73551527745E-02 -0.45074401807E-03  0.20654594703E-01  0.21929745207E-01  0.00000000000E+00 0. -1.
     999901    1    3    3    0    0  0.90508246669E-01  0.34688154368E-01  0.62449200188E-01  0.88752178191E+00  0.88000000000E+00 0. -1.
        -11    1    4    4    0    0 -0.37685339252E-01 -0.38131885028E-02 -0.24287130691E-01  0.44998344851E-01  0.51100000000E-03 0.  1.
         11    1    4    4    0    0 -0.60178060191E-01 -0.30424221847E-01 -0.58816664199E-01  0.89480128028E-01  0.51100000000E-03 0. -1.
</event>
<event>
 8    1  0.1064884E+005  0.1043930E+01  0.7957747E-01            NaN
         13   -1    0    0    0    0  0.00000000000E+00  0.00000000000E+00  0.74505805969E-08  0.10566000000E+00  0.10566000000E+00 0.  1.
     999900   -1    0    0    0    0 -0.00000000000E+00 -0.00000000000E+00 -0.74505805969E-08  0.93827000000E+00  0.93827000000E+00 0.  1.
     999902    2    1    2    0    0  0.15535587738E-02  0.12937040156E-02 -0.23286456527E-01  0.10205559487E+01  0.10202882427E+01 0.  0.
     999903    2    3    3    0    0  0.76789520067E-01 -0.10378941942E+00 -0.97036958738E-02  0.13101258043E+00  0.20031488758E-01 0.  0.
         14    1    1    2    0    0 -0.15535587738E-02 -0.12937040156E-02  0.23286456527E-01  0.23374051265E-01  0.00000000000E+00 0.  1.
     999901    1    3    3    0    0 -0.75235961293E-01  0.10508312344E+00 -0.13582760653E-01  0.88954336830E+00  0.88000000000E+00 0. -1.
        -11    1    4    4    0    0  0.33354033376E-01 -0.61782466910E-01 -0.43125757387E-02  0.70345036715E-01  0.51100000000E-03 0.  1.
         11    1    4    4    0    0  0.43435486690E-01 -0.42006952513E-01 -0.53911201352E-02  0.60667543718E-01  0.51100000000E-03 0. -1.
</event>
<event>
 8    1  0.1064884E+005  0.1043930E+01  0.7957747E-01            NaN
         13   -1    0    0    0    0  0.00000000000E+00  0.00000000000E+00  0.74505805969E-08  0.10566000000E+00  0.10566000000E+00 0. -1.
     999900   -1    0    0    0    0 -0.00000000000E+00 -0.00000000000E+00 -0.74505805969E-08  0.93827000000E+00  0.93827000000E+00 0.  1.
     999902    2    1    2    0    0  0.22563629133E-01  0.58670080941E-02  0.44748085517E-02  0.10201905170E+01  0.10199142747E+01 0.  0.
     999903    2    3    3    0    0 -0.10662141115E+00 -0.54777447419E-01 -0.39022098104E-01  0.12763323280E+00  0.19970576184E-01 0.  0.
         14    1    1    2    0    0 -0.22563629133E-01 -0.58670080941E-02 -0.44748085517E-02  0.23739483045E-01  0.00000000000E+00 0. -1.
     999901    1    3    3    0    0  0.12918504028E+00  0.60644455513E-01  0.43496906656E-01  0.89255728416E+00  0.88000000000E+00 0. -1.
        -11    1    4    4    0    0 -0.92006002365E-01 -0.51491476092E-01 -0.39615065382E-01  0.11263254906E+00  0.51100000000E-03 0. -1.
         11    1    4    4    0    0 -0.14615408781E-01 -0.32859713264E-02  0.59296727734E-03  0.15000683737E-01  0.51100000000E-03 0.  1.
</event>
<event>
 8    1  0.1064884E+005  0.1043930E+01  0.7957747E-01            NaN
         13   -1    0    0    0    0  0.00000000000E+00  0.00000000000E+00  0.74505805969E-08  0.10566000000E+00  0.10566000000E+00 0. -1.
     999900   -1    0    0    0    0 -0.00000000000E+00 -0.00000000000E+00 -0.74505805969E-08  0.93827000000E+00  0.93827000000E+00 0.  1.
     999902    2    1    2    0    0  0.22286344321E-01 -0.19279178501E-02  0.91012374360E-02  0.10197798337E+01  0.10194938345E+01 0.  0.
     999903    2    3    3    0    0  0.99390237622E-01  0.59595101224E-01 -0.59146998405E-01  0.13164250537E+00  0.20034629413E-01 0.  0.
         14    1    1    2    0    0 -0.22286344321E-01  0.19279178501E-02 -0.91012374360E-02  0.24150166320E-01  0.00000000000E+00 0.  1.
     999901    1    3    3    0    0 -0.77103893301E-01 -0.61523019074E-01  0.68248235841E-01  0.88813732831E+00  0.88000000000E+00 0. -1.
        -11    1    4    4    0    0  0.62578500622E-01  0.40066276859E-01 -0.27190439204E-01  0.79126205435E-01  0.51100000000E-03 0. -1.
         11    1    4    4    0    0  0.36811737001E-01  0.19528824364E-01 -0.31956559201E-01  0.52516299937E-01  0.51100000000E-03 0.  1.
</event>
<event>
 7    1  0.1064884E+005  0.1043930E+01  0.7957747E-01            NaN
         13   -1    0    0    0    0  0.00000000000E+00  0.00000000000E+00  0.74505805969E-08  0.10566000000E+00  0.10566000000E+00 0.  1.
     999900   -1    0    0    0    0 -0.00000000000E+00 -0.00000000000E+00 -0.74505805969E-08  0.93827000000E+00  0.93827000000E+00 0. -1.
     999903    2    1    2    0    0 -0.29496480564E-01 -0.33072994852E-01  0.10401550791E+00  0.11484046818E+00  0.20130620769E-01 0.  0.
         14    1    1    2    0    0  0.30569893816E-01 -0.27339617532E-01 -0.10168756592E-02  0.41024469902E-01  0.00000000000E+00 0. -1.
     999901    1    1    2    0    0 -0.10734132513E-02  0.60412612383E-01 -0.10299863225E+00  0.88806506192E+00  0.88000000000E+00 0. -1.
        -11    1    3    3    0    0 -0.20105426811E-01 -0.17019686656E-01  0.81386453129E-01  0.85544805775E-01  0.51100000000E-03 0.  1.
         11    1    3    3    0    0 -0.93910537538E-02 -0.16053308196E-01  0.22629054779E-01  0.29295662407E-01  0.51100000000E-03 0. -1.
</event>
<event>
 8    1  0.1064884E+005  0.1043930E+01  0.7957747E-01            NaN
         13   -1    0    0    0    0  0.00000000000E+00  0.00000000000E+00  0.74505805969E-08  0.10566000000E+00  0.10566000000E+00 0.  1.
     999900   -1    0    0    0    0 -0.00000000000E+00 -0.00000000000E+00 -0.74505805969E-08  0.93827000000E+00  0.93827000000E+00 0.  1.
     999902    2    1    2    0    0  0.20518341145E-01 -0.55366479676E-03 -0.12020790217E-01  0.10201432754E+01  0.10198659197E+01 0.  0.
     999903    2    3    3    0    0  0.51860858223E-01  0.10756210728E+00  0.49203691597E-01  0.13086277373E+00  0.21092812557E-01 0.  0.
         14    1    1    2    0    0 -0.20518341145E-01  0.55366479676E-03  0.12020790217E-01  0.23786724564E-01  0.00000000000E+00 0.  1.
     999901    1    3    3    0    0 -0.31342517078E-01 -0.10811577208E+00 -0.61224481814E-01  0.88928050171E+00  0.88000000000E+00 0.  1.
        -11    1    4    4    0    0  0.12093087952E-01  0.24643818964E-01  0.21332377517E-01  0.34769124822E-01  0.51100000000E-03 0. -1.
         11    1    4    4    0    0  0.39767770271E-01  0.82918288319E-01  0.27871314080E-01  0.96093648904E-01  0.51100000000E-03 0.  1.
</event>
<event>
 8    1  0.1064884E+005  0.1043930E+01  0.7957747E-01            NaN
         13   -1    0    0    0    0  0.00000000000E+00  0.00000000000E+00  0.74505805969E-08  0.10566000000E+00  0.10566000000E+00 0. -1.
     999900   -1    0    0    0    0 -0.00000000000E+00 -0.00000000000E+00 -0.74505805969E-08  0.93827000000E+00  0.93827000000E+00 0. -1.
     999902    2    1    2    0    0  0.19770698631E-01  0.10762988274E-01 -0.62624828348E-02  0.10205646168E+01  0.10202971116E+01 0.  0.
     999903    2    3    3    0    0  0.54680285705E-01  0.81517355747E-01 -0.87877475864E-01  0.13327330788E+00  0.20107483614E-01 0.  0.
         14    1    1    2    0    0 -0.19770698631E-01 -0.10762988274E-01  0.62624828348E-02  0.23365383202E-01  0.00000000000E+00 0.  1.
     999901    1    3    3    0    0 -0.34909587075E-01 -0.70754367474E-01  0.81614993029E-01  0.88729130891E+00  0.88000000000E+00 0.  1.
        -11    1    4    4    0    0  0.47917214800E-01  0.58354843422E-01 -0.60344406027E-01  0.96659483160E-01  0.51100000000E-03 0. -1.
         11    1    4    4    0    0  0.67630709060E-02  0.23162512326E-01 -0.27533069837E-01  0.36613824725E-01  0.51100000000E-03 0.  1.
</event>
<event>
 8    1  0.1064884E+005  0.1043930E+01  0.7957747E-01            NaN
         13   -1    0    0    0    0  0.00000000000E+00  0.00000000000E+00  0.74505805969E-08  0.10566000000E+00  0.10566000000E+00 0. -1.
     999900   -1    0    0    0    0 -0.00000000000E+00 -0.00000000000E+00 -0.74505805969E-08  0.93827000000E+00  0.93827000000E+00 0.  1.
     999902    2    1    2    0    0  0.13148417221E-01 -0.18255295296E-01  0.13127522398E-01  0.10178825716E+01  0.10175492426E+01 0.  0.
     999903    2    3    3    0    0 -0.70810000940E-01 -0.95273515742E-01 -0.45275397438E-01  0.12861786225E+00  0.20039806410E-01 0.  0.
         14    1    1    2    0    0 -0.13148417221E-01  0.18255295296E-01 -0.13127522398E-01  0.26047428397E-01  0.00000000000E+00 0.  1.
     999901    1    3    3    0    0  0.83958418161E-01  0.77018220446E-01  0.58402919836E-01  0.88926470936E+00  0.88000000000E+00 0. -1.
        -11    1    4    4    0    0 -0.99889896328E-02 -0.10085293232E-01  0.85633534002E-03  0.14229809720E-01  0.51100000000E-03 0. -1.
         11    1    4    4    0    0 -0.60821011307E-01 -0.85188222510E-01 -0.46131732778E-01  0.11438805253E+00  0.51100000000E-03 0.  1.
</event>
<event>
 8    1  0.1064884E+005  0.1043930E+01  0.7957747E-01            NaN
         13   -1    0    0    0    0  0.00000000000E+00  0.00000000000E+00  0.74505805969E-08  0.10566000000E+00  0.10566000000E+00 0.  1.
     999900   -1    0    0    0    0 -0.00000000000E+00 -0.00000000000E+00 -0.74505805969E-08  0.93827000000E+00  0.93827000000E+00 0. -1.
     999902    2    1    2    0    0  0.18885564001E-01 -0.66903842829E-02  0.15727860894E-01  0.10184586165E+01  0.10181400504E+01 0.  0.
     999903    2    3    3    0    0 -0.65148466384E-01 -0.97164509428E-01 -0.46968441029E-01  0.12762860361E+00  0.19943957510E-01 0.  0.
         14    1    1    2    0    0 -0.18885564001E-01  0.66903842829E-02 -0.15727860894E-01  0.25471383508E-01  0.00000000000E+00 0. -1.
     999901    1    3    3    0    0  0.84034030386E-01  0.90474125145E-01  0.62696301923E-01  0.89083001289E+00  0.88000000000E+00 0. -1.
        -11    1    4    4    0    0 -0.58686999320E-01 -0.93923184231E-01 -0.40530957626E-01  0.11793535548E+00  0.51100000000E-03 0.  1.
         11    1    4    4    0    0 -0.64614670644E-02 -0.32413251966E-02 -0.64374834027E-02  0.96932481251E-02  0.51100000000E-03 0. -1.
</event>
<event>
 8    1  0.1064884E+005  0.1043930E+01  0.7957747E-01            NaN
         13   -1    0    0    0    0  0.00000000000E+00  0.00000000000E+00  0.74505805969E-08  0.10566000000E+00  0.10566000000E+00 0.  1.
     999900   -1    0    0    0    0 -0.00000000000E+00 -0.00000000000E+00 -0.74505805969E-08  0.93827000000E+00  0.93827000000E+00 0. -1.
     999902    2    1    2    0    0  0.14313630760E-01  0.39130897578E-02  0.18374208691E-01  0.10203121288E+01  0.10200387425E+01 0.  0.
     999903    2    3    3    0    0 -0.18978988035E-01  0.12237132750E+00 -0.35079147197E-01  0.13014472101E+00  0.19291398579E-01 0.  0.
         14    1    1    2    0    0 -0.14313630760E-01 -0.39130897578E-02 -0.18374208691E-01  0.23617871242E-01  0.00000000000E+00 0. -1.
     999901    1    3    3    0    0  0.33292618795E-01 -0.11845823774E+00  0.53453355888E-01  0.89016740774E+00  0.88000000000E+00 0. -1.
        -11    1    4    4    0    0  0.42700433940E-03  0.46152173901E-01 -0.18721593582E-01  0.49809283028E-01  0.51100000000E-03 0.  1.
         11    1    4    4    0    0 -0.19405992375E-01  0.76219153597E-01 -0.16357553616E-01  0.80335437986E-01  0.51100000000E-03 0. -1.
</event>
<event>
 8    1  0.1064884E+005  0.1043930E+01  0.7957747E-01            NaN
         13   -1    0    0    0    0  0.00000000000E+00  0.00000000000E+00  0.74505805969E-08  0.10566000000E+00  0.10566000000E+00 0.  1.
     999900   -1    0    0    0    0 -0.00000000000E+00 -0.00000000000E+00 -0.74505805969E-08  0.93827000000E+00  0.93827000000E+00 0.  1.
     999902    2    1    2    0    0 -0.17881619584E-02 -0.19674931741E-01  0.14006696295E-01  0.10197124856E+01  0.10194248699E+01 0.  0.
     999903    2    3    3    0    0  0.10178015139E+00 -0.13603409164E-01 -0.76068195811E-01  0.12905163820E+00  0.17991746755E-01 0.  0.
         14    1    1    2    0    0  0.17881619584E-02  0.19674931741E-01 -0.14006696295E-01  0.24217514391E-01  0.00000000000E+00 0. -1.
     999901    1    3    3    0    0 -0.10356831335E+00 -0.60715225770E-02  0.90074892106E-01  0.89066084741E+00  0.88000000000E+00 0. -1.
        -11    1    4    4    0    0  0.38285756946E-01 -0.43281506605E-02 -0.18087520593E-01  0.42567024741E-01  0.51100000000E-03 0. -1.
         11    1    4    4    0    0  0.63494394441E-01 -0.92752585035E-02 -0.57980675218E-01  0.86484613461E-01  0.51100000000E-03 0.  1.
</event>
<event>
 8    1  0.1064884E+005  0.1043930E+01  0.7957747E-01            NaN
         13   -1    0    0    0    0  0.00000000000E+00  0.00000000000E+00  0.74505805969E-08  0.10566000000E+00  0.10566000000E+00 0.  1.
     999900   -1    0    0    0    0 -0.00000000000E+00 -0.00000000000E+00 -0.74505805969E-08  0.93827000000E+00  0.93827000000E+00 0.  1.
     999902    2    1    2    0    0 -0.13424065645E-01 -0.26134624694E-02  0.18538141434E-01  0.10208931076E+01  0.10206331558E+01 0.  0.
     999903    2    3    3    0    0 -0.62668074667E-01  0.38448492133E-01 -0.10512768323E+00  0.12993615423E+00  0.20639773812E-01 0.  0.
         14    1    1    2    0    0  0.13424065645E-01  0.26134624694E-02 -0.18538141434E-01  0.23036892419E-01  0.00000000000E+00 0. -1.
     999901    1    3    3    0    0  0.49244009022E-01 -0.41061954602E-01  0.12366582467E+00  0.89095695335E+00  0.88000000000E+00 0. -1.
        -11    1    4    4    0    0 -0.40651768548E-01  0.23307335561E-01 -0.49172716027E-01  0.67926543409E-01  0.51100000000E-03 0. -1.
         11    1    4    4    0    0 -0.22016306119E-01  0.15141156572E-01 -0.55954967208E-01  0.62009610817E-01  0.51100000000E-03 0.  1.
</event>
<event>
 8    1  0.1064884E+005  0.1043930E+01  0.7957747E-01            NaN
         13   -1    0    0    0    0  0.00000000000E+00  0.00000000000E+00  0.74505805969E-08  0.10566000000E+00  0.10566000000E+00 0. -1.
     999900   -1    0    0    0    0 -0.00000000000E+00 -0.00000000000E+00 -0.74505805969E-08  0.93827000000E+00  0.93827000000E+00 0.  1.
     999902    2    1    2    0    0 -0.24903519183E-01 -0.79164301790E-02 -0.34791728880E-02  0.10175679102E+01  0.10172263721E+01 0.  0.
     999903    2    3    3    0    0 -0.14511884201E-01  0.11167690713E+00 -0.57028396608E-01  0.12780498011E+00  0.19988710614E-01 0.  0.
         14    1    1    2    0    0  0.24903519183E-01  0.79164301790E-02  0.34791728880E-02  0.26362089797E-01  0.00000000000E+00 0. -1.
     999901    1    3    3    0    0 -0.10391634982E-01 -0.11959333731E+00  0.53549223720E-01  0.88976293009E+00  0.88000000000E+00 0. -1.
        -11    1    4    4    0    0  0.24426638338E-02  0.50800450849E-01 -0.30188709153E-01  0.59146189179E-01  0.51100000000E-03 0.  1.
         11    1    4    4    0    0 -0.16954548035E-01  0.60876456281E-01 -0.26839687455E-01  0.68658790931E-01  0.51100000000E-03 0. -1.
</event>
<event>
 8    1  0.1064884E+005  0.1043930E+01  0.7957747E-01            NaN
         13   -1    0    0    0    0  0.00000000000E+00  0.00000000000E+00  0.74505805969E-08  0.10566000000E+00  0.10566000000E+00 0.  1.
     999900   -1    0    0    0    0 -0.00000000000E+00 -0.00000000000E+00 -0.74505805969E-08  0.93827000000E+00  0.93827000000E+00 0. -1.
     999902    2    1    2    0    0 -0.21451852137E-01  0.25069669443E-02  0.59829633035E-02  0.10215187820E+01  0.10212729112E+01 0.  0.
     999903    2    3    3    0    0  0.71665029065E-01  0.80939015504E-01  0.70807903013E-01  0.13077492844E+00  0.20033026674E-01 0.  0.
         14    1    1    2    0    0  0.21451852137E-01 -0.25069669443E-02 -0.59829633035E-02  0.22411218023E-01  0.00000000000E+00 0. -1.
     999901    1    3    3    0    0 -0.93116881202E-01 -0.78432048560E-01 -0.64824939709E-01  0.89074385354E+00  0.88000000000E+00 0. -1.
        -11    1    4    4    0    0  0.54714383320E-02  0.93171423802E-02  0.14729012977E-01  0.18274318697E-01  0.51100000000E-03 0.  1.
         11    1    4    4    0    0  0.66193590733E-01  0.71621873124E-01  0.56078890035E-01  0.11250060974E+00  0.51100000000E-03 0. -1.
</event>
<event>
 8    1  0.1064884E+005  0.1043930E+01  0.7957747E-01            NaN
         13   -1    0    0    0    0  0.00000000000E+00  0.00000000000E+00  0.74505805969E-08  0.10566000000E+00  0.10566000000E+00 0.  1.
     999900   -1    0    0    0    0 -0.00000000000E+00 -0.00000000000E+00 -0.74505805969E-08  0.93827000000E+00  0.93827000000E+00 0. -1.
     999902    2    1    2    0    0  0.34402006818E-02 -0.16067243080E-01 -0.17361755872E-01  0.10200255684E+01  0.10197454283E+01 0.  0.
     999903    2    3    3    0    0  0.88950819995E-01 -0.65749566793E-01 -0.71045436934E-01  0.13286023046E+00  0.19212829533E-01 0.  0.
         14    1    1    2    0    0 -0.34402006818E-02  0.16067243080E-01  0.17361755872E-01  0.23904431553E-01  0.00000000000E+00 0.  1.
     999901    1    3    3    0    0 -0.85510619313E-01  0.49682323713E-01  0.53683681062E-01  0.88716533798E+00  0.88000000000E+00 0.  1.
        -11    1    4    4    0    0  0.33849925202E-01 -0.19760626530E-01 -0.34971817774E-01  0.52531789961E-01  0.51100000000E-03 0. -1.
         11    1    4    4    0    0  0.55100894793E-01 -0.45988940263E-01 -0.36073619161E-01  0.80328440504E-01  0.51100000000E-03 0.  1.
</event>
<event>
 8    1  0.1064884E+005  0.1043930E+01  0.7957747E-01            NaN
         13   -1    0    0    0    0  0.00000000000E+00  0.00000000000E+00  0.74505805969E-08  0.10566000000E+00  0.10566000000E+00 0.  1.
     999900   -1    0    0    0    0 -0.00000000000E+00 -0.00000000000E+00 -0.74505805969E-08  0.93827000000E+00  0.93827000000E+00 0. -1.
     999902    2    1    2    0    0 -0.24046119716E-01  0.70957578893E-03  0.18060067819E-04  0.10198734064E+01  0.10195896455E+01 0.  0.
     999903    2    3    3    0    0 -0.72321211159E-01 -0.93889672173E-01 -0.55699782074E-01  0.13173829271E+00  0.14383459912E-01 0.  0.
         14    1    1    2    0    0  0.24046119716E-01 -0.70957578893E-03 -0.18060067819E-04  0.24056593636E-01  0.00000000000E+00 0. -1.
     999901    1    3    3    0    0  0.48275091443E-01  0.94599247962E-01  0.55717842142E-01  0.88813511365E+00  0.88000000000E+00 0.  1.
        -11    1    4    4    0    0 -0.92816042369E-02 -0.17217646356E-01 -0.46190047410E-02  0.20104523099E-01  0.51100000000E-03 0. -1.
         11    1    4    4    0    0 -0.63039606923E-01 -0.76672025818E-01 -0.51080777333E-01  0.11163376961E+00  0.51100000000E-03 0.  1.
</event>
<event>
 8    1  0.1064884E+005  0.1043930E+01  0.7957747E-01            NaN
         13   -1    0    0    0    0  0.00000000000E+00  0.00000000000E+00  0.74505805969E-08  0.10566000000E+00  0.10566000000E+00 0. -1.
     999900   -1    0    0    0    0 -0.00000000000E+00 -0.00000000000E+00 -0.74505805969E-08  0.93827000000E+00  0.93827000000E+00 0.  1.
     999902    2    1    2    0    0 -0.20682014555E-01 -0.18302959369E-02  0.10800701742E-01  0.10205259220E+01  0.10202575197E+01 0.  0.
     999903    2    3    3    0    0 -0.77026493043E-01 -0.79900422243E-01  0.70936245591E-01  0.13323457834E+00  0.20058509987E-01 0.  0.
         14    1    1    2    0    0  0.20682014555E-01  0.18302959369E-02 -0.10800701742E-01  0.23404078008E-01  0.00000000000E+00 0. -1.
     999901    1    3    3    0    0  0.56344478488E-01  0.78070126307E-01 -0.60135543849E-01  0.88729134365E+00  0.88000000000E+00 0.  1.
        -11    1    4    4    0    0 -0.20782077251E-01 -0.19880151030E-01  0.29228919976E-01  0.41008609143E-01  0.51100000000E-03 0. -1.
         11    1    4    4    0    0 -0.56244415792E-01 -0.60020271213E-01  0.41707325616E-01  0.92225969202E-01  0.51100000000E-03 0.  1.
</event>
<event>
 8    1  0.1064884E+005  0.1043930E+01  0.7957747E-01            NaN
         13   -1    0    0    0    0  0.00000000000E+00  0.00000000000E+00  0.74505805969E-08  0.10566000000E+00  0.10566000000E+00 0. -1.
     999900   -1    0    0    0    0 -0.00000000000E+00 -0.00000000000E+00 -0.74505805969E-08  0.93827000000E+00  0.93827000000E+00 0.  1.
     999902    2    1    2    0    0 -0.12958632531E-01 -0.19852595661E-01 -0.60257684485E-02  0.10194685692E+01  0.10191750595E+01 0.  0.
     999903    2    3    3    0    0  0.68207680138E-01  0.10527479374E+00  0.49804572498E-02  0.12685108623E+00  0.18202288252E-01 0.  0.
         14    1    1    2    0    0  0.12958632531E-01  0.19852595661E-01  0.60257684485E-02  0.24461430803E-01  0.00000000000E+00 0. -1.
     999901    1    3    3    0    0 -0.81166312669E-01 -0.12512738940E+00 -0.11006225698E-01  0.89261748296E+00  0.88000000000E+00 0.  1.
        -11    1    4    4    0    0  0.11381509385E-01  0.31676846253E-01 -0.95873738892E-03  0.33677019506E-01  0.51100000000E-03 0.  1.
         11    1    4    4    0    0  0.56826170753E-01  0.73597947485E-01  0.59391946387E-02  0.93174066727E-01  0.51100000000E-03 0. -1.
</event>
<event>
 8    1  0.1064884E+005  0.1043930E+01  0.7957747E-01            NaN
         13   -1    0    0    0    0  0.00000000000E+00  0.00000000000E+00  0.74505805969E-08  0.10566000000E+00  0.10566000000E+00 0.  1.
     999900   -1    0    0    0    0 -0.00000000000E+00 -0.00000000000E+00 -0.74505805969E-08  0.93827000000E+00  0.93827000000E+00 0.  1.
     999902    2    1    2    0    0  0.93027513143E-02 -0.12031062245E-01  0.17043819464E-01  0.10210875084E+01  0.10208319746E+01 0.  0.
     999903    2    3    3    0    0 -0.11593957650E+00 -0.56818494673E-01  0.96018386752E-02  0.13106113920E+00  0.20359277178E-01 0.  0.
         14    1    1    2    0    0 -0.93027513143E-02  0.12031062245E-01 -0.17043819464E-01  0.22842491604E-01  0.00000000000E+00 0. -1.
     999901    1    3    3    0    0  0.12524232782E+00  0.44787432429E-01  0.74419807887E-02  0.89002636919E+00  0.88000000000E+00 0. -1.
        -11    1    4    4    0    0 -0.51322608612E-01 -0.16334440998E-01  0.10129616127E-01  0.54805970125E-01  0.51100000000E-03 0. -1.
         11    1    4    4    0    0 -0.64616967889E-01 -0.40484053675E-01 -0.52777745177E-03  0.76255169078E-01  0.51100000000E-03 0.  1.
</event>
<event>
 8    1  0.1064884E+005  0.1043930E+01  0.7957747E-01            NaN
         13   -1    0    0    0    0  0.00000000000E+00  0.00000000000E+00  0.74505805969E-08  0.10566000000E+00  0.10566000000E+00 0. -1.
     999900   -1    0    0    0    0 -0.00000000000E+00 -0.00000000000E+00 -0.74505805969E-08  0.93827000000E+00  0.93827000000E+00 0.  1.
     999902    2    1    2    0    0 -0.23226374015E-01  0.19740673123E-03  0.26557373032E-02  0.10205514551E+01  0.10202836450E+01 0.  0.
     999903    2    3    3    0    0  0.10612227952E+00  0.83549485966E-03 -0.69229749878E-01  0.12819558185E+00  0.19460541506E-01 0.  0.
         14    1    1    2    0    0  0.23226374015E-01 -0.19740673123E-03 -0.26557373032E-02  0.23378544863E-01  0.00000000000E+00 0.  1.
     999901    1    3    3    0    0 -0.12934865353E+00 -0.63808812843E-03  0.71885487181E-01  0.89235587329E+00  0.88000000000E+00 0. -1.
        -11    1    4    4    0    0  0.41802618041E-01  0.85376795644E-02 -0.33243712241E-01  0.54090261341E-01  0.51100000000E-03 0. -1.
         11    1    4    4    0    0  0.64319661475E-01 -0.77021847048E-02 -0.35986037637E-01  0.74105320506E-01  0.51100000000E-03 0.  1.
</event>
<event>
 8    1  0.1064884E+005  0.1043930E+01  0.7957747E-01            NaN
         13   -1    0    0    0    0  0.00000000000E+00  0.00000000000E+00  0.74505805969E-08  0.10566000000E+00  0.10566000000E+00 0.  1.
     999900   -1    0    0    0    0 -0.00000000000E+00 -0.00000000000E+00 -0.74505805969E-08  0.93827000000E+00  0.93827000000E+00 0.  1.
     999902    2    1    2    0    0 -0.19979412696E-01 -0.51391606900E-03  0.12661830649E-01  0.10202706890E+01  0.10199963313E+01 0.  0.
     999903    2    3    3    0    0  0.48186751194E-01  0.11811698846E+00 -0.91243174676E-02  0.12943144781E+00  0.19891218133E-01 0.  0.
         14    1    1    2    0    0  0.19979412696E-01  0.51391606900E-03 -0.12661830649E-01  0.23659310996E-01  0.00000000000E+00 0. -1.
     999901    1    3    3    0    0 -0.68166163891E-01 -0.11863090453E+00  0.21786148117E-01  0.89083924120E+00  0.88000000000E+00 0. -1.
        -11    1    4    4    0    0  0.11537980243E-01  0.52885607131E-01 -0.71147380845E-03  0.54136676530E-01  0.51100000000E-03 0. -1.
         11    1    4    4    0    0  0.36648770952E-01  0.65231381327E-01 -0.84128436591E-02  0.75294771276E-01  0.51100000000E-03 0.  1.
</event>
<event>
 8    1  0.1064884E+005  0.1043930E+01  0.7957747E-01            NaN
         13   -1    0    0    0    0  0.00000000000E+00  0.00000000000E+00  0.74505805969E-08  0.10566000000E+00  0.10566000000E+00 0. -1.
     999900   -1    0    0    0    0 -0.00000000000E+00 -0.00000000000E+00 -0.74505805969E-08  0.93827000000E+00  0.93827000000E+00 0. -1.
     999902    2    1    2    0    0  0.95479902873E-02  0.61832403228E-02 -0.18520489200E-01  0.10221951179E+01  0.10219640179E+01 0.  0.
     999903    2    3    3    0    0 -0.40767527777E-01 -0.11225922970E+00 -0.53124607066E-01  0.13216269432E+00  0.19509687879E-01 0.  0.
         14    1    1    2    0    0 -0.95479902873E-02 -0.61832403228E-02  0.18520489200E-01  0.21734882094E-01  0.00000000000E+00 0. -1.
     999901    1    3    3    0    0  0.50315518064E-01  0.11844247002E+00  0.34604117866E-01  0.89003242359E+00  0.88000000000E+00 0. -1.
        -11    1    4    4    0    0 -0.28335032230E-01 -0.50196169711E-01 -0.23017878255E-01  0.62069423596E-01  0.51100000000E-03 0. -1.
         11    1    4    4    0    0 -0.12432495547E-01 -0.62063059984E-01 -0.30106728810E-01  0.70093270724E-01  0.51100000000E-03 0.  1.
</event>
<event>
 8    1  0.1064884E+005  0.1043930E+01  0.7957747E-01            NaN
         13   -1    0    0    0    0  0.00000000000E+00  0.00000000000E+00  0.74505805969E-08  0.10566000000E+00  0.10566000000E+00 0.  1.
     999900   -1    0    0    0    0 -0.00000000000E+00 -0.00000000000E+00 -0.74505805969E-08  0.93827000000E+00  0.93827000000E+00 0.  1.
     999902    2    1    2    0    0 -0.11009911980E-01  0.74178019433E-02 -0.20954050668E-01  0.10191244727E+01  0.10188225442E+01 0.  0.
     999903    2    3    3    0    0 -0.60563184441E-01  0.86842190400E-01  0.71556186268E-01  0.12933691136E+00  0.19957041472E-01 0.  0.
         14    1    1    2    0    0  0.11009911980E-01 -0.74178019433E-02  0.20954050668E-01  0.24805527345E-01  0.00000000000E+00 0.  1.
     999901    1    3    3    0    0  0.49553272461E-01 -0.79424388457E-01 -0.92510236936E-01  0.88978756129E+00  0.88000000000E+00 0.  1.
        -11    1    4    4    0    0 -0.37333059377E-01  0.67320511034E-01  0.56288422172E-01  0.95364857887E-01  0.51100000000E-03 0. -1.
         11    1    4    4    0    0 -0.23230125065E-01  0.19521679366E-01  0.15267764097E-01  0.33972053475E-01  0.51100000000E-03 0.  1.
</event>
<event>
 8    1  0.1064884E+005  0.1043930E+01  0.7957747E-01            NaN
         13   -1    0    0    0    0  0.00000000000E+00  0.00000000000E+00  0.74505805969E-08  0.10566000000E+00  0.10566000000E+00 0.  1.
     999900   -1    0    0    0    0 -0.00000000000E+00 -0.00000000000E+00 -0.74505805969E-08  0.93827000000E+00  0.93827000000E+00 0.  1.
     999902    2    1    2    0    0  0.82606129401E-03 -0.22427193707E-01  0.79512637708E-02  0.10201206743E+01  0.10198427850E+01 0.  0.
     999903    2    3    3    0    0  0.94882241437E-01 -0.89840745343E-01  0.10005253164E-01  0.13254229982E+00  0.19833226839E-01 0.  0.
         14    1    1    2    0    0 -0.82606129401E-03  0.22427193707E-01 -0.79512637708E-02  0.23809325702E-01  0.00000000000E+00 0. -1.
     999901    1    3    3    0    0 -0.94056180143E-01  0.67413551636E-01 -0.20539893935E-02  0.88757837448E+00  0.88000000000E+00 0.  1.
        -11    1    4    4    0    0  0.78067837654E-01 -0.62361464640E-01  0.64432488342E-02  0.10012650061E+00  0.51100000000E-03 0. -1.
         11    1    4    4    0    0  0.16814403783E-01 -0.27479280703E-01  0.35620043301E-02  0.32415799209E-01  0.51100000000E-03 0.  1.
</event>
<event>
 8    1  0.1064884E+005  0.1043930E+01  0.7957747E-01            NaN
         13   -1    0    0    0    0  0.00000000000E+00  0.00000000000E+00  0.74505805969E-08  0.10566000000E+00  0.10566000000E+00 0. -1.
     999900   -1    0    0    0    0 -0.00000000000E+00 -0.00000000000E+00 -0.74505805969E-08  0.93827000000E+00  0.93827000000E+00 0.  1.
     999902    2    1    2    0    0  0.11628171653E-02  0.23677027987E-01  0.41406837667E-02  0.10198655229E+01  0.10195815738E+01 0.  0.
     999903    2    3    3    0    0  0.89706557769E-01 -0.84998691006E-01 -0.27712529925E-01  0.12820132983E+00  0.19888506150E-01 0.  0.
         14    1    1    2    0    0 -0.11628171653E-02 -0.23677027987E-01 -0.41406837667E-02  0.24064477142E-01  0.00000000000E+00 0. -1.
     999901    1    3    3    0    0 -0.88543740604E-01  0.10867571899E+00  0.31853213692E-01  0.89166419302E+00  0.88000000000E+00 0. -1.
        -11    1    4    4    0    0  0.20819316521E-01 -0.30016695280E-01 -0.13360920530E-01  0.38900144657E-01  0.51100000000E-03 0. -1.
         11    1    4    4    0    0  0.68887241248E-01 -0.54981995726E-01 -0.14351609395E-01  0.89301185177E-01  0.51100000000E-03 0.  1.
</event>
<event>
 8    1  0.1064884E+005  0.1043930E+01  0.7957747E-01            NaN
         13   -1    0    0    0    0  0.00000000000E+00  0.00000000000E+00  0.74505805969E-08  0.10566000000E+00  0.10566000000E+00 0.  1.
     999900   -1    0    0    0    0 -0.00000000000E+00 -0.00000000000E+00 -0.74505805969E-08  0.93827000000E+00  0.93827000000E+00 0.  1.
     999902    2    1    2    0    0 -0.10125647212E-01 -0.27199592632E-02 -0.17300892060E-01  0.10237001266E+01  0.10235002206E+01 0.  0.
     999903    2    3    3    0    0 -0.94115444244E-01  0.18937334678E-01 -0.94928276681E-01  0.13603502356E+00  0.16667646279E-01 0.  0.
         14    1    1    2    0    0  0.10125647212E-01  0.27199592632E-02  0.17300892060E-01  0.20229873354E-01  0.00000000000E+00 0.  1.
     999901    1    3    3    0    0  0.83989797033E-01 -0.21657293942E-01  0.77627384621E-01  0.88766510308E+00  0.88000000000E+00 0. -1.
        -11    1    4    4    0    0 -0.57534536614E-01  0.32416157407E-02 -0.55911350821E-01  0.80293656335E-01  0.51100000000E-03 0.  1.
         11    1    4    4    0    0 -0.36580907630E-01  0.15695718938E-01 -0.39016925860E-01  0.55741367229E-01  0.51100000000E-03 0. -1.
</event>
<event>
 8    1  0.1064884E+005  0.1043930E+01  0.7957747E-01            NaN
         13   -1    0    0    0    0  0.00000000000E+00  0.00000000000E+00  0.74505805969E-08  0.10566000000E+00  0.10566000000E+00 0.  1.
     999900   -1    0    0    0    0 -0.00000000000E+00 -0.00000000000E+00 -0.74505805969E-08  0.93827000000E+00  0.93827000000E+00 0. -1.
     999902    2    1    2    0    0 -0.67930044098E-02 -0.20849305607E-01  0.92983942293E-02  0.10201119693E+01  0.10198338743E+01 0.  0.
     999903    2    3    3    0    0  0.92129513991E-01  0.40074865124E-01 -0.77212426033E-01  0.12827031221E+00  0.19941717512E-01 0.  0.
         14    1    1    2    0    0  0.67930044098E-02  0.20849305607E-01 -0.92983942293E-02  0.23818030742E-01  0.00000000000E+00 0. -1.
     999901    1    3    3    0    0 -0.98922518401E-01 -0.60924170730E-01  0.86510820262E-01  0.89184165705E+00  0.88000000000E+00 0.  1.
        -11    1    4    4    0    0  0.57612477953E-01  0.32885631444E-01 -0.42474447930E-01  0.78771836460E-01  0.51100000000E-03 0.  1.
         11    1    4    4    0    0  0.34517036038E-01  0.71892336796E-02 -0.34737978102E-01  0.49498475748E-01  0.51100000000E-03 0. -1.
</event>
<event>
 8    1  0.1064884E+005  0.1043930E+01  0.7957747E-01            NaN
         13   -1    0    0    0    0  0.00000000000E+00  0.00000000000E+00  0.74505805969E-08  0.10566000000E+00  0.10566000000E+00 0.  1.
     999900   -1    0    0    0    0 -0.00000000000E+00 -0.00000000000E+00 -0.74505805969E-08  0.93827000000E+00  0.93827000000E+00 0. -1.
     999902    2    1    2    0    0 -0.54960672075E-02  0.15210881962E-01  0.42232664071E-02  0.10272143288E+01  0.10270783143E+01 0.  0.
     999903    2    3    3    0    0 -0.12533922531E+00  0.17436566847E-01 -0.44695577779E-01  0.13774235648E+00  0.31004948466E-01 0.  0.
         14    1    1    2    0    0  0.54960672075E-02 -0.15210881962E-01 -0.42232664071E-02  0.16715671209E-01  0.00000000000E+00 0.  1.
     999901    1    3    3    0    0  0.11984315810E+00 -0.22256848845E-02  0.48918844186E-01  0.88947197232E+00  0.88000000000E+00 0.  1.
        -11    1    4    4    0    0 -0.40578894544E-01 -0.54651116121E-02 -0.45566322477E-02  0.41201191072E-01  0.51100000000E-03 0.  1.
         11    1    4    4    0    0 -0.84760330768E-01  0.22901678459E-01 -0.40138945531E-01  0.96541165404E-01  0.51100000000E-03 0. -1.
</event>
<event>
 8    1  0.1064884E+005  0.1043930E+01  0.7957747E-01            NaN
         13   -1    0    0    0    0  0.00000000000E+00  0.00000000000E+00  0.74505805969E-08  0.10566000000E+00  0.10566000000E+00 0.  1.
     999900   -1    0    0    0    0 -0.00000000000E+00 -0.00000000000E+00 -0.74505805969E-08  0.93827000000E+00  0.93827000000E+00 0. -1.
     999902    2    1    2    0    0 -0.74554354847E-02  0.21317221411E-01  0.88501055306E-02  0.10196744478E+01  0.10193859169E+01 0.  0.
     999903    2    3    3    0    0 -0.11885194448E+00 -0.17123363355E-01 -0.46015347127E-01  0.13012564152E+00  0.19906685590E-01 0.  0.
         14    1    1    2    0    0  0.74554354847E-02 -0.21317221411E-01 -0.88501055306E-02  0.24255552248E-01  0.00000000000E+00 0. -1.
     999901    1    3    3    0    0  0.11139650899E+00  0.38440584766E-01  0.54865452658E-01  0.88954880623E+00  0.88000000000E+00 0.  1.
        -11    1    4    4    0    0 -0.10246913933E+00 -0.87973499429E-02 -0.43093520993E-01  0.11151067462E+00  0.51100000000E-03 0.  1.
         11    1    4    4    0    0 -0.16382805145E-01 -0.83260134119E-02 -0.29218261341E-02  0.18614966900E-01  0.51100000000E-03 0. -1.
</event>
<event>
 8    1  0.1064884E+005  0.1043930E+01  0.7957747E-01            NaN
         13   -1    0    0    0    0  0.00000000000E+00  0.00000000000E+00  0.74505805969E-08  0.10566000000E+00  0.10566000000E+00 0. -1.
     999900   -1    0    0    0    0 -0.00000000000E+00 -0.00000000000E+00 -0.74505805969E-08  0.93827000000E+00  0.93827000000E+00 0.  1.
     999902    2    1    2    0    0  0.18076370040E-02 -0.23524752129E-01 -0.52476184927E-02  0.10197593770E+01  0.10194728874E+01 0.  0.
     999903    2    3    3    0    0  0.11720249921E+00 -0.13449220585E-02  0.52777690656E-01  0.13005445091E+00  0.19759578273E-01 0.  0.
         14    1    1    2    0    0 -0.18076370040E-02  0.23524752129E-01  0.52476184927E-02  0.24170622957E-01  0.00000000000E+00 0. -1.
     999901    1    3    3    0    0 -0.11539486221E+00 -0.22179830070E-01 -0.58025309148E-01  0.88970492613E+00  0.88000000000E+00 0.  1.
        -11    1    4    4    0    0  0.82479240127E-01 -0.81434554680E-02  0.30918385523E-01  0.88461000465E-01  0.51100000000E-03 0. -1.
         11    1    4    4    0    0  0.34723259085E-01  0.67985334095E-02  0.21859305133E-01  0.41593450444E-01  0.51100000000E-03 0.  1.
</event>
<event>
 8    1  0.1064884E+005  0.1043930E+01  0.7957747E-01            NaN
         13   -1    0    0    0    0  0.00000000000E+00  0.00000000000E+00  0.74505805969E-08  0.10566000000E+00  0.10566000000E+00 0.  1.
     999900   -1    0    0    0    0 -0.00000000000E+00 -0.00000000000E+00 -0.74505805969E-08  0.93827000000E+00  0.93827000000E+00 0. -1.
     999902    2    1    2    0    0  0.11297552512E-01 -0.31382405144E-02  0.19396216719E-01  0.10212651270E+01  0.10210135959E+01 0.  0.
     999903    2    3    3    0    0 -0.27644825529E-01  0.12304201940E+00  0.30946595966E-01  0.13133738942E+00  0.19703886446E-01 0.  0.
         14    1    1    2    0    0 -0.11297552512E-01  0.31382405144E-02 -0.19396216719E-01  0.22664873027E-01  0.00000000000E+00 0. -1.
     999901    1    3    3    0    0  0.38942378041E-01 -0.12618025992E+00 -0.11550379247E-01  0.88992773755E+00  0.88000000000E+00 0.  1.
        -11    1    4    4    0    0 -0.18081577718E-01  0.40725499474E-01  0.14391238512E-01  0.46828181975E-01  0.51100000000E-03 0.  1.
         11    1    4    4    0    0 -0.95632478110E-02  0.82316519930E-01  0.16555357454E-01  0.84509207449E-01  0.51100000000E-03 0. -1.
</event>
<event>
 8    1  0.1261129E+005  0.1043930E+01  0.7957747E-01            NaN
         13   -1    0    0    0    0  0.00000000000E+00  0.00000000000E+00  0.74505805969E-08  0.10566000000E+00  0.10566000000E+00 0. -1.
     999900   -1    0    0    0    0 -0.00000000000E+00 -0.00000000000E+00 -0.74505805969E-08  0.93827000000E+00  0.93827000000E+00 0. -1.
     999902    2    1    2    0    0 -0.19557502518E-01  0.75270379263E-02 -0.10319301230E-01  0.10205710578E+01  0.10203037017E+01 0.  0.
     999903    2    3    3    0    0 -0.68418727017E-01  0.35588915173E-01 -0.10704565115E+00  0.13347981387E+00  0.20258237611E-01 0.  0.
         14    1    1    2    0    0  0.19557502518E-01 -0.75270379263E-02  0.10319301230E-01  0.23358942240E-01  0.00000000000E+00 0. -1.
     999901    1    3    3    0    0  0.48861224499E-01 -0.28061877247E-01  0.96726349921E-01  0.88709124389E+00  0.88000000000E+00 0.  1.
        -11    1    4    4    0    0 -0.43801811130E-01  0.18147703727E-01 -0.49758793533E-01  0.68732353835E-01  0.51100000000E-03 0.  1.
         11    1    4    4    0    0 -0.24616915887E-01  0.17441211446E-01 -0.57286857618E-01  0.64747460037E-01  0.51100000000E-03 0. -1.
</event>
<event>
 8    1  0.1064884E+005  0.1043930E+01  0.7957747E-01            NaN
         13   -1    0    0    0    0  0.00000000000E+00  0.00000000000E+00  0.74505805969E-08  0.10566000000E+00  0.10566000000E+00 0.  1.
     999900   -1    0    0    0    0 -0.00000000000E+00 -0.00000000000E+00 -0.74505805969E-08  0.93827000000E+00  0.93827000000E+00 0. -1.
     999902    2    1    2    0    0 -0.22455558371E-01  0.34140524339E-02 -0.60912269395E-02  0.10204138162E+01  0.10201428064E+01 0.  0.
     999903    2    3    3    0    0  0.98926274231E-01  0.37795164996E-03 -0.80067392933E-01  0.12900187980E+00  0.21074795361E-01 0.  0.
         14    1    1    2    0    0  0.22455558371E-01 -0.34140524339E-02  0.60912269395E-02  0.23516183818E-01  0.00000000000E+00 0.  1.
     999901    1    3    3    0    0 -0.12138183260E+00  0.30361007839E-02  0.73976165993E-01  0.89141193638E+00  0.88000000000E+00 0.  1.
        -11    1    4    4    0    0  0.77636439603E-01  0.49011322482E-02 -0.52395089706E-01  0.93792027368E-01  0.51100000000E-03 0.  1.
         11    1    4    4    0    0  0.21289834628E-01 -0.45231805983E-02 -0.27672303226E-01  0.35209852429E-01  0.51100000000E-03 0. -1.
</event>
<event>
 8    1  0.1064884E+005  0.1043930E+01  0.7957747E-01            NaN
         13   -1    0    0    0    0  0.00000000000E+00  0.00000000000E+00  0.74505805969E-08  0.10566000000E+00  0.10566000000E+00 0.  1.
     999900   -1    0    0    0    0 -0.00000000000E+00 -0.00000000000E+00 -0.74505805969E-08  0.93827000000E+00  0.93827000000E+00 0.  1.
     999902    2    1    2    0    0  0.10214050170E-01 -0.23077467021E-01  0.45702593175E-02  0.10182827082E+01  0.10179596703E+01 0.  0.
     999903    2    3    3    0    0 -0.77240895330E-01  0.39963822130E-01  0.88753036913E-01  0.12771585971E+00  0.29512307105E-01 0.  0.
         14    1    1    2    0    0 -0.10214050170E-01  0.23077467021E-01 -0.45702593175E-02  0.25647291771E-01  0.00000000000E+00 0. -1.
     999901    1    3    3    0    0  0.87454945500E-01 -0.63041289150E-01 -0.84182777595E-01  0.89056684851E+00  0.88000000000E+00 0. -1.
        -11    1    4    4    0    0 -0.42164018029E-01  0.59179011486E-02  0.35610588683E-01  0.55508567966E-01  0.51100000000E-03 0.  1.
         11    1    4    4    0    0 -0.35076877301E-01  0.34045920981E-01  0.53142448230E-01  0.72207291747E-01  0.51100000000E-03 0. -1.
</event>
<event>
 8    1  0.1064884E+005  0.1043930E+01  0.7957747E-01            NaN
         13   -1    0    0    0    0  0.00000000000E+00  0.00000000000E+00  0.74505805969E-08  0.10566000000E+00  0.10566000000E+00 0. -1.
     999900   -1    0    0    0    0 -0.00000000000E+00 -0.00000000000E+00 -0.74505805969E-08  0.93827000000E+00  0.93827000000E+00 0. -1.
     999902    2    1    2    0    0  0.13222615848E-02  0.11779704432E-01  0.20430719682E-01  0.10203095826E+01  0.10200361367E+01 0.  0.
     999903    2    3    3    0    0 -0.79994716701E-03 -0.11259257993E+00  0.63090429733E-01  0.13053836494E+00  0.19548233347E-01 0.  0.
         14    1    1    2    0    0 -0.13222615848E-02 -0.11779704432E-01 -0.20430719682E-01  0.23620417417E-01  0.00000000000E+00 0.  1.
     999901    1    3    3    0    0  0.21222087519E-02  0.12437228436E+00 -0.42659710051E-01  0.88977121764E+00  0.88000000000E+00 0.  1.
        -11    1    4    4    0    0 -0.14273879344E-02 -0.54233222449E-01  0.19348627169E-01  0.57601305088E-01  0.51100000000E-03 0. -1.
         11    1    4    4    0    0  0.62744076738E-03 -0.58359357478E-01  0.43741802564E-01  0.72937059851E-01  0.51100000000E-03 0.  1.
</event>
<event>
 8    1  0.1064884E+005  0.1043930E+01  0.7957747E-01            NaN
         13   -1    0    0    0    0  0.00000000000E+00  0.00000000000E+00  0.74505805969E-08  0.10566000000E+00  0.10566000000E+00 0.  1.
     999900   -1    0    0    0    0 -0.00000000000E+00 -0.00000000000E+00 -0.74505805969E-08  0.93827000000E+00  0.93827000000E+00 0.  1.
     999902    2    1    2    0    0  0.15013412214E-01 -0.15561836540E-01  0.96161904247E-02  0.10202647423E+01  0.10199902451E+01 0.  0.
     999903    2    3    3    0    0  0.76662996514E-01 -0.10214332857E+00  0.35667457789E-01  0.13348647548E+00  0.15362193359E-01 0.  0.
         14    1    1    2    0    0 -0.15013412214E-01  0.15561836540E-01 -0.96161904247E-02  0.23665257680E-01  0.00000000000E+00 0. -1.
     999901    1    3    3    0    0 -0.61649584300E-01  0.86581492033E-01 -0.26051267364E-01  0.88677826684E+00  0.88000000000E+00 0. -1.
        -11    1    4    4    0    0  0.26141850651E-01 -0.43618448223E-01  0.19708142738E-01  0.54540236450E-01  0.51100000000E-03 0. -1.
         11    1    4    4    0    0  0.50521145862E-01 -0.58524880350E-01  0.15959315051E-01  0.78946239031E-01  0.51100000000E-03 0.  1.
</event>
<event>
 8    1  0.1064884E+005  0.1043930E+01  0.7957747E-01            NaN
         13   -1    0    0    0    0  0.00000000000E+00  0.00000000000E+00  0.74505805969E-08  0.10566000000E+00  0.10566000000E+00 0. -1.
     999900   -1    0    0    0    0 -0.00000000000E+00 -0.00000000000E+00 -0.74505805969E-08  0.93827000000E+00  0.93827000000E+00 0.  1.
     999902    2    1    2    0    0 -0.18111317186E-01 -0.10247832777E-01  0.11165589470E-01  0.10203141520E+01  0.10200408132E+01 0.  0.
     999903    2    3    3    0    0  0.48341438505E-01 -0.42086657904E-01 -0.11010478058E+00  0.12894656110E+00  0.19899031652E-01 0.  0.
         14    1    1    2    0    0  0.18111317186E-01  0.10247832777E-01 -0.11165589470E-01  0.23615847964E-01  0.00000000000E+00 0.  1.
     999901    1    3    3    0    0 -0.66452755691E-01  0.31838825127E-01  0.12127037005E+00  0.89136759094E+00  0.88000000000E+00 0. -1.
        -11    1    4    4    0    0  0.42370678519E-01 -0.34293462455E-01 -0.76513051484E-01  0.93945857459E-01  0.51100000000E-03 0.  1.
         11    1    4    4    0    0  0.59707599859E-02 -0.77931954482E-02 -0.33591729101E-01  0.35000703637E-01  0.51100000000E-03 0. -1.
</event>
<event>
 8    1  0.1064884E+005  0.1043930E+01  0.7957747E-01            NaN
         13   -1    0    0    0    0  0.00000000000E+00  0.00000000000E+00  0.74505805969E-08  0.10566000000E+00  0.10566000000E+00 0. -1.
     999900   -1    0    0    0    0 -0.00000000000E+00 -0.00000000000E+00 -0.74505805969E-08  0.93827000000E+00  0.93827000000E+00 0.  1.
     999902    2    1    2    0    0 -0.18687829854E-01  0.12171444551E-01 -0.77957014587E-02  0.10203047591E+01  0.10200312002E+01 0.  0.
     999903    2    3    3    0    0  0.43768029182E-01  0.12141910834E+00 -0.47684373818E-02  0.13134753250E+00  0.23899708166E-01 0.  0.
         14    1    1    2    0    0  0.18687829854E-01 -0.12171444551E-01  0.77957014587E-02  0.23625240916E-01  0.00000000000E+00 0. -1.
     999901    1    3    3    0    0 -0.62455859035E-01 -0.10924766379E+00 -0.30272640769E-02  0.88895722659E+00  0.88000000000E+00 0. -1.
        -11    1    4    4    0    0  0.12086259759E-01  0.66938109935E-01 -0.62149222812E-02  0.68305743658E-01  0.51100000000E-03 0. -1.
         11    1    4    4    0    0  0.31681769423E-01  0.54480998403E-01  0.14464848993E-02  0.63041788841E-01  0.51100000000E-03 0.  1.
</event>
<event>
 8    1  0.1064884E+005  0.1043930E+01  0.7957747E-01            NaN
         13   -1    0    0    0    0  0.00000000000E+00  0.00000000000E+00  0.74505805969E-08  0.10566000000E+00  0.10566000000E+00 0. -1.
     999900   -1    0    0    0    0 -0.00000000000E+00 -0.00000000000E+00 -0.74505805969E-08  0.93827000000E+00  0.93827000000E+00 0.  1.
     999902    2    1    2    0    0  0.76905880432E-02 -0.10870619391E-01 -0.18682357632E-01  0.10209877683E+01  0.10207299726E+01 0.  0.
     999903    2    3    3    0    0 -0.56510637449E-01  0.89259205411E-01  0.71578534000E-01  0.12841014826E+00  0.14318580632E-01 0.  0.
         14    1    1    2    0    0 -0.76905880432E-02  0.10870619391E-01  0.18682357632E-01  0.22942231738E-01  0.00000000000E+00 0. -1.
     999901    1    3    3    0    0  0.64201225492E-01 -0.10012982480E+00 -0.90260891632E-01  0.89257762000E+00  0.88000000000E+00 0.  1.
        -11    1    4    4    0    0 -0.28000687910E-01  0.44174938749E-01  0.44043854309E-01  0.68378256488E-01  0.51100000000E-03 0. -1.
         11    1    4    4    0    0 -0.28509949538E-01  0.45084266662E-01  0.27534679690E-01  0.60031891773E-01  0.51100000000E-03 0.  1.
</event>
<event>
 8    1  0.1064884E+005  0.1043930E+01  0.7957747E-01            NaN
         13   -1    0    0    0    0  0.00000000000E+00  0.00000000000E+00  0.74505805969E-08  0.10566000000E+00  0.10566000000E+00 0.  1.
     999900   -1    0    0    0    0 -0.00000000000E+00 -0.00000000000E+00 -0.74505805969E-08  0.93827000000E+00  0.93827000000E+00 0. -1.
     999902    2    1    2    0    0  0.70226317318E-02  0.21851344660E-01 -0.79587265765E-02  0.10196372038E+01  0.10193477755E+01 0.  0.
     999903    2    3    3    0    0  0.10424432037E+00 -0.13237625087E-01 -0.75088443409E-01  0.13104860863E+00  0.22211493458E-01 0.  0.
         14    1    1    2    0    0 -0.70226317318E-02 -0.21851344660E-01  0.79587265765E-02  0.24292796229E-01  0.00000000000E+00 0.  1.
     999901    1    3    3    0    0 -0.97221688639E-01  0.35088969748E-01  0.67129716833E-01  0.88858859515E+00  0.88000000000E+00 0.  1.
        -11    1    4    4    0    0  0.61121989035E-01  0.13497467061E-02 -0.35374975385E-01  0.70635468175E-01  0.51100000000E-03 0. -1.
         11    1    4    4    0    0  0.43122331336E-01 -0.14587371793E-01 -0.39713468024E-01  0.60413140451E-01  0.51100000000E-03 0.  1.
</event>
<event>
 8    1  0.1064884E+005  0.1043930E+01  0.7957747E-01            NaN
         13   -1    0    0    0    0  0.00000000000E+00  0.00000000000E+00  0.74505805969E-08  0.10566000000E+00  0.10566000000E+00 0.  1.
     999900   -1    0    0    0    0 -0.00000000000E+00 -0.00000000000E+00 -0.74505805969E-08  0.93827000000E+00  0.93827000000E+00 0. -1.
     999902    2    1    2    0    0  0.98167328201E-02 -0.31402208608E-02  0.21916150589E-01  0.10197112699E+01  0.10194236249E+01 0.  0.
     999903    2    3    3    0    0 -0.89523886079E-01  0.79647036268E-01 -0.40663761483E-01  0.12806193643E+00  0.19701307049E-01 0.  0.
         14    1    1    2    0    0 -0.98167328201E-02  0.31402208608E-02 -0.21916150589E-01  0.24218730086E-01  0.00000000000E+00 0. -1.
     999901    1    3    3    0    0  0.99340618900E-01 -0.82787257129E-01  0.62579912072E-01  0.89164933348E+00  0.88000000000E+00 0.  1.
        -11    1    4    4    0    0 -0.20054604043E-01  0.29826543207E-01 -0.11907840913E-01  0.37866444502E-01  0.51100000000E-03 0.  1.
         11    1    4    4    0    0 -0.69469282037E-01  0.49820493061E-01 -0.28755920570E-01  0.90195491929E-01  0.51100000000E-03 0. -1.
</event>
<event>
 8    1  0.1064884E+005  0.1043930E+01  0.7957747E-01            NaN
         13   -1    0    0    0    0  0.00000000000E+00  0.00000000000E+00  0.74505805969E-08  0.10566000000E+00  0.10566000000E+00 0. -1.
     999900   -1    0    0    0    0 -0.00000000000E+00 -0.00000000000E+00 -0.74505805969E-08  0.93827000000E+00  0.93827000000E+00 0.  1.
     999902    2    1    2    0    0  0.11368827954E-01 -0.30960994057E-02 -0.20339009466E-01  0.10204244392E+01  0.10201536771E+01 0.  0.
     999903    2    3    3    0    0  0.38997729696E-01  0.12033396476E+00 -0.29136682495E-01  0.13133741538E+00  0.19987106236E-01 0.  0.
         14    1    1    2    0    0 -0.11368827954E-01  0.30960994057E-02  0.20339009466E-01  0.23505560760E-01  0.00000000000E+00 0. -1.
     999901    1    3    3    0    0 -0.27628901743E-01 -0.12343006416E+00  0.87976730291E-02  0.88908702386E+00  0.88000000000E+00 0.  1.
        -11    1    4    4    0    0  0.15068030514E-01  0.75100306739E-01 -0.21783307568E-01  0.79635891565E-01  0.51100000000E-03 0.  1.
         11    1    4    4    0    0  0.23929699183E-01  0.45233658018E-01 -0.73533749266E-02  0.51701523812E-01  0.51100000000E-03 0. -1.
</event>
<event>
 8    1  0.1064884E+005  0.1043930E+01  0.7957747E-01            NaN
         13   -1    0    0    0    0  0.00000000000E+00  0.00000000000E+00  0.74505805969E-08  0.10566000000E+00  0.10566000000E+00 0.  1.
     999900   -1    0    0    0    0 -0.00000000000E+00 -0.00000000000E+00 -0.74505805969E-08  0.93827000000E+00  0.93827000000E+00 0. -1.
     999902    2    1    2    0    0  0.16542778860E-01  0.16206477322E-02 -0.15060389504E-01  0.10214999897E+01  0.10212537018E+01 0.  0.
     999903    2    3    3    0    0 -0.58795372477E-01  0.76329068773E-01 -0.88039844158E-01  0.13212763456E+00  0.20583369301E-01 0.  0.
         14    1    1    2    0    0 -0.16542778860E-01 -0.16206477322E-02  0.15060389504E-01  0.22430010332E-01  0.00000000000E+00 0.  1.
     999901    1    3    3    0    0  0.75338151337E-01 -0.74708421041E-01  0.72979454653E-01  0.88937235510E+00  0.88000000000E+00 0. -1.
        -11    1    4    4    0    0 -0.27828393631E-01  0.43677255139E-01 -0.34713879058E-01  0.62349311374E-01  0.51100000000E-03 0.  1.
         11    1    4    4    0    0 -0.30966978846E-01  0.32651813634E-01 -0.53325965100E-01  0.69778323190E-01  0.51100000000E-03 0. -1.
</event>
<event>
 8    1  0.1064884E+005  0.1043930E+01  0.7957747E-01            NaN
         13   -1    0    0    0    0  0.00000000000E+00  0.00000000000E+00  0.74505805969E-08  0.10566000000E+00  0.10566000000E+00 0. -1.
     999900   -1    0    0    0    0 -0.00000000000E+00 -0.00000000000E+00 -0.74505805969E-08  0.93827000000E+00  0.93827000000E+00 0.  1.
     999902    2    1    2    0    0 -0.30224941874E-02 -0.22503849706E-01 -0.43727526319E-02  0.10208068582E+01  0.10205449338E+01 0.  0.
     999903    2    3    3    0    0  0.62958618181E-01  0.76084388701E-01  0.80320067527E-01  0.12881693573E+00  0.19745072190E-01 0.  0.
         14    1    1    2    0    0  0.30224941874E-02  0.22503849706E-01  0.43727526319E-02  0.23123141835E-01  0.00000000000E+00 0. -1.
     999901    1    3    3    0    0 -0.65981112368E-01 -0.98588238408E-01 -0.84692820159E-01  0.89198992244E+00  0.88000000000E+00 0. -1.
        -11    1    4    4    0    0  0.11365880675E-01  0.58972360426E-02  0.53482351934E-02  0.13886157753E-01  0.51100000000E-03 0.  1.
         11    1    4    4    0    0  0.51592737506E-01  0.70187152659E-01  0.74971832334E-01  0.11493077798E+00  0.51100000000E-03 0. -1.
</event>
<event>
 8    1  0.1064884E+005  0.1043930E+01  0.7957747E-01            NaN
         13   -1    0    0    0    0  0.00000000000E+00  0.00000000000E+00  0.74505805969E-08  0.10566000000E+00  0.10566000000E+00 0.  1.
     999900   -1    0    0    0    0 -0.00000000000E+00 -0.00000000000E+00 -0.74505805969E-08  0.93827000000E+00  0.93827000000E+00 0.  1.
     999902    2    1    2    0    0 -0.16458202682E-01  0.11778553977E-01 -0.12117123649E-01  0.10203412006E+01  0.10200684949E+01 0.  0.
     999903    2    3    3    0    0 -0.21264351241E-02 -0.12754013550E+00 -0.40953818244E-02  0.12922984670E+00  0.20311898861E-01 0.  0.
         14    1    1    2    0    0  0.16458202682E-01 -0.11778553977E-01  0.12117123649E-01  0.23588799351E-01  0.00000000000E+00 0.  1.
     999901    1    3    3    0    0 -0.14331767557E-01  0.13931868948E+00 -0.80217418246E-02  0.89111135395E+00  0.88000000000E+00 0.  1.
        -11    1    4    4    0    0  0.61758309053E-02 -0.75448630936E-01 -0.90712817622E-02  0.76244252710E-01  0.51100000000E-03 0.  1.
         11    1    4    4    0    0 -0.83022660294E-02 -0.52091504564E-01  0.49758999378E-02  0.52985593987E-01  0.51100000000E-03 0. -1.
</event>
<event>
 8    1  0.1101965E+005  0.1043930E+01  0.7957747E-01            NaN
         13   -1    0    0    0    0  0.00000000000E+00  0.00000000000E+00  0.74505805969E-08  0.10566000000E+00  0.10566000000E+00 0.  1.
     999900   -1    0    0    0    0 -0.00000000000E+00 -0.00000000000E+00 -0.74505805969E-08  0.93827000000E+00  0.93827000000E+00 0. -1.
     999902    2    1    2    0    0 -0.10174852339E-01  0.19046127253E-01  0.32844786206E-02  0.10220880591E+01  0.10218546522E+01 0.  0.
     999903    2    3    3    0    0 -0.11066890550E-01  0.52840925499E-01 -0.11986508136E+00  0.13287003281E+00  0.19291666945E-01 0.  0.
         14    1    1    2    0    0  0.10174852339E-01 -0.19046127253E-01 -0.32844786206E-02  0.21841940923E-01  0.00000000000E+00 0.  1.
     999901    1    3    3    0    0  0.89203821027E-03 -0.33794798245E-01  0.12314955998E+00  0.88921802627E+00  0.88000000000E+00 0.  1.
        -11    1    4    4    0    0 -0.13309697613E-02  0.38456667387E-01 -0.67529338626E-01  0.77724895904E-01  0.51100000000E-03 0.  1.
         11    1    4    4    0    0 -0.97359207884E-02  0.14384258112E-01 -0.52335742738E-01  0.55145136902E-01  0.51100000000E-03 0. -1.
</event>
<event>
 8    1  0.1064884E+005  0.1043930E+01  0.7957747E-01            NaN
         13   -1    0    0    0    0  0.00000000000E+00  0.00000000000E+00  0.74505805969E-08  0.10566000000E+00  0.10566000000E+00 0.  1.
     999900   -1    0    0    0    0 -0.00000000000E+00 -0.00000000000E+00 -0.74505805969E-08  0.93827000000E+00  0.93827000000E+00 0. -1.
     999902    2    1    2    0    0  0.83335912387E-02  0.14060528083E-01  0.17535830065E-01  0.10199580888E+01  0.10196763458E+01 0.  0.
     999903    2    3    3    0    0  0.10140388446E+00  0.59665928617E-01 -0.53824609293E-01  0.13100688405E+00  0.20565609201E-01 0.  0.
         14    1    1    2    0    0 -0.83335912387E-02 -0.14060528083E-01 -0.17535830065E-01  0.23971911250E-01  0.00000000000E+00 0. -1.
     999901    1    3    3    0    0 -0.93070293217E-01 -0.45605400535E-01  0.71360439358E-01  0.88895120470E+00  0.88000000000E+00 0. -1.
        -11    1    4    4    0    0  0.74828799543E-01  0.50407021957E-01 -0.48242041331E-01  0.10231213406E+00  0.51100000000E-03 0. -1.
         11    1    4    4    0    0  0.26575084912E-01  0.92589066608E-02 -0.55825679616E-02  0.28694749985E-01  0.51100000000E-03 0.  1.
</event>
<event>
 8    1  0.1064884E+005  0.1043930E+01  0.7957747E-01            NaN
         13   -1    0    0    0    0  0.00000000000E+00  0.00000000000E+00  0.74505805969E-08  0.10566000000E+00  0.10566000000E+00 0. -1.
     999900   -1    0    0    0    0 -0.00000000000E+00 -0.00000000000E+00 -0.74505805969E-08  0.93827000000E+00  0.93827000000E+00 0.  1.
     999902    2    1    2    0    0  0.70154487499E-02 -0.82376139012E-02  0.21368738498E-01  0.10199780108E+01  0.10196967415E+01 0.  0.
     999903    2    3    3    0    0  0.83128331364E-01  0.71471259715E-02 -0.95859081757E-01  0.12881460095E+00  0.21043692135E-01 0.  0.
         14    1    1    2    0    0 -0.70154487499E-02  0.82376139012E-02 -0.21368738498E-01  0.23951989248E-01  0.00000000000E+00 0.  1.
     999901    1    3    3    0    0 -0.76112882614E-01 -0.15384739873E-01  0.11722782025E+00  0.89116340980E+00  0.88000000000E+00 0. -1.
        -11    1    4    4    0    0  0.29472912012E-02 -0.32427551528E-02 -0.97193049582E-02  0.10673705836E-01  0.51100000000E-03 0. -1.
         11    1    4    4    0    0  0.80181040163E-01  0.10389881124E-01 -0.86139776798E-01  0.11814089512E+00  0.51100000000E-03 0.  1.
</event>
<event>
 8    1  0.1064884E+005  0.1043930E+01  0.7957747E-01            NaN
         13   -1    0    0    0    0  0.00000000000E+00  0.00000000000E+00  0.74505805969E-08  0.10566000000E+00  0.10566000000E+00 0.  1.
     999900   -1    0    0    0    0 -0.00000000000E+00 -0.00000000000E+00 -0.74505805969E-08  0.93827000000E+00  0.93827000000E+00 0.  1.
     999902    2    1    2    0    0 -0.20244628757E-02  0.44764694270E-02 -0.23493783802E-01  0.10199280187E+01  0.10196455601E+01 0.  0.
     999903    2    3    3    0    0  0.91707460841E-01 -0.74350871500E-01  0.46693812620E-01  0.12867849030E+00  0.20965000881E-01 0.  0.
         14    1    1    2    0    0  0.20244628757E-02 -0.44764694270E-02  0.23493783802E-01  0.24001981290E-01  0.00000000000E+00 0.  1.
     999901    1    3    3    0    0 -0.93731923717E-01  0.78827340927E-01 -0.70187596422E-01  0.89124952841E+00  0.88000000000E+00 0.  1.
        -11    1    4    4    0    0  0.80310322183E-01 -0.56098248556E-01  0.42316344462E-01  0.10671314572E+00  0.51100000000E-03 0. -1.
         11    1    4    4    0    0  0.11397138658E-01 -0.18252622944E-01  0.43774681583E-02  0.21965344578E-01  0.51100000000E-03 0.  1.
</event>
<event>
 8    1  0.1064884E+005  0.1043930E+01  0.7957747E-01            NaN
         13   -1    0    0    0    0  0.00000000000E+00  0.00000000000E+00  0.74505805969E-08  0.10566000000E+00  0.10566000000E+00 0.  1.
     999900   -1    0    0    0    0 -0.00000000000E+00 -0.00000000000E+00 -0.74505805969E-08  0.93827000000E+00  0.93827000000E+00 0.  1.
     999902    2    1    2    0    0  0.13797225953E-01 -0.18266916367E-01 -0.76841213731E-02  0.10197827559E+01  0.10194968268E+01 0.  0.
     999903    2    3    3    0    0 -0.85465961980E-01 -0.95522901807E-01  0.13506943023E-01  0.13058607967E+00  0.21005505630E-01 0.  0.
         14    1    1    2    0    0 -0.13797225953E-01  0.18266916367E-01  0.76841213731E-02  0.24147244125E-01  0.00000000000E+00 0. -1.
     999901    1    3    3    0    0  0.99263187933E-01  0.77255985440E-01 -0.21191064396E-01  0.88919667621E+00  0.88000000000E+00 0.  1.
        -11    1    4    4    0    0 -0.71986452897E-01 -0.69394146114E-01  0.15171472800E-01  0.10113373138E+00  0.51100000000E-03 0. -1.
         11    1    4    4    0    0 -0.13479509083E-01 -0.26128755693E-01 -0.16645297771E-02  0.29452348286E-01  0.51100000000E-03 0.  1.
</event>
<event>
 8    1  0.1064884E+005  0.1043930E+01  0.7957747E-01            NaN
         13   -1    0    0    0    0  0.00000000000E+00  0.00000000000E+00  0.74505805969E-08  0.10566000000E+00  0.10566000000E+00 0. -1.
     999900   -1    0    0    0    0 -0.00000000000E+00 -0.00000000000E+00 -0.74505805969E-08  0.93827000000E+00  0.93827000000E+00 0.  1.
     999902    2    1    2    0    0 -0.12014058419E-01  0.16678633893E-02 -0.20714918817E-01  0.10199252665E+01  0.10196427424E+01 0.  0.
     999903    2    3    3    0    0 -0.58448025891E-01 -0.90029916146E-01  0.69369634163E-01  0.12937497440E+00  0.20104236492E-01 0.  0.
         14    1    1    2    0    0  0.12014058419E-01 -0.16678633893E-02  0.20714918817E-01  0.24004733483E-01  0.00000000000E+00 0. -1.
     999901    1    3    3    0    0  0.46433967473E-01  0.91697779535E-01 -0.90084552980E-01  0.89055029212E+00  0.88000000000E+00 0.  1.
        -11    1    4    4    0    0 -0.28840692056E-01 -0.40068844812E-01  0.43481798127E-01  0.65789252406E-01  0.51100000000E-03 0.  1.
         11    1    4    4    0    0 -0.29607333836E-01 -0.49961071334E-01  0.25887836036E-01  0.63585721992E-01  0.51100000000E-03 0. -1.
</event>
<event>
 8    1  0.1064884E+005  0.1043930E+01  0.7957747E-01            NaN
         13   -1    0    0    0    0  0.00000000000E+00  0.00000000000E+00  0.74505805969E-08  0.10566000000E+00  0.10566000000E+00 0.  1.
     999900   -1    0    0    0    0 -0.00000000000E+00 -0.00000000000E+00 -0.74505805969E-08  0.93827000000E+00  0.93827000000E+00 0. -1.
     999902    2    1    2    0    0  0.15842027250E-01  0.14314003153E-01  0.10656616814E-01  0.10200673934E+01  0.10197882442E+01 0.  0.
     999903    2    3    3    0    0  0.10739379824E+00  0.75818338817E-01 -0.48432544894E-02  0.13304723796E+00  0.19906330962E-01 0.  0.
         14    1    1    2    0    0 -0.15842027250E-01 -0.14314003153E-01 -0.10656616814E-01  0.23862606638E-01  0.00000000000E+00 0.  1.
     999901    1    3    3    0    0 -0.91551770995E-01 -0.61504335664E-01  0.15499871303E-01  0.88702015540E+00  0.88000000000E+00 0. -1.
        -11    1    4    4    0    0  0.50319691377E-01  0.46665155982E-01  0.14812759333E-02  0.68645199559E-01  0.51100000000E-03 0.  1.
         11    1    4    4    0    0  0.57074106868E-01  0.29153182835E-01 -0.63245304227E-02  0.64402038402E-01  0.51100000000E-03 0. -1.
</event>
<event>
 8    1  0.1064884E+005  0.1043930E+01  0.7957747E-01            NaN
         13   -1    0    0    0    0  0.00000000000E+00  0.00000000000E+00  0.74505805969E-08  0.10566000000E+00  0.10566000000E+00 0.  1.
     999900   -1    0    0    0    0 -0.00000000000E+00 -0.00000000000E+00 -0.74505805969E-08  0.93827000000E+00  0.93827000000E+00 0. -1.
     999902    2    1    2    0    0 -0.13794149462E-01  0.16889033314E-01 -0.82256359232E-02  0.10206237971E+01  0.10203576609E+01 0.  0.
     999903    2    3    3    0    0 -0.54297016131E-02  0.12103561798E+00 -0.52387656133E-01  0.13334325575E+00  0.18890602458E-01 0.  0.
         14    1    1    2    0    0  0.13794149462E-01 -0.16889033314E-01  0.82256359232E-02  0.23306202865E-01  0.00000000000E+00 0.  1.
     999901    1    3    3    0    0 -0.83644478493E-02 -0.10414658466E+00  0.44162020210E-01  0.88728054138E+00  0.88000000000E+00 0.  1.
        -11    1    4    4    0    0 -0.11093539246E-01  0.88126193108E-01 -0.42799983830E-01  0.98597120960E-01  0.51100000000E-03 0. -1.
         11    1    4    4    0    0  0.56638376326E-02  0.32909424868E-01 -0.95876723031E-02  0.34746134794E-01  0.51100000000E-03 0.  1.
</event>
<event>
 8    1  0.1064884E+005  0.1043930E+01  0.7957747E-01            NaN
         13   -1    0    0    0    0  0.00000000000E+00  0.00000000000E+00  0.74505805969E-08  0.10566000000E+00  0.10566000000E+00 0. -1.
     999900   -1    0    0    0    0 -0.00000000000E+00 -0.00000000000E+00 -0.74505805969E-08  0.93827000000E+00  0.93827000000E+00 0. -1.
     999902    2    1    2    0    0 -0.10170108597E-01  0.14430223921E-01  0.16638738956E-01  0.10196707728E+01  0.10193821534E+01 0.  0.
     999903    2    3    3    0    0  0.10702505433E+00  0.18307513691E-01 -0.65073293531E-01  0.12814029330E+00  0.19896580685E-01 0.  0.
         14    1    1    2    0    0  0.10170108597E-01 -0.14430223921E-01 -0.16638738956E-01  0.24259227221E-01  0.00000000000E+00 0.  1.
     999901    1    3    3    0    0 -0.11719516293E+00 -0.38772897696E-02  0.81712032487E-01  0.89153047948E+00  0.88000000000E+00 0.  1.
        -11    1    4    4    0    0  0.10870390405E-01 -0.26032604030E-02 -0.23113244414E-02  0.11425659454E-01  0.51100000000E-03 0. -1.
         11    1    4    4    0    0  0.96154663929E-01  0.20910774094E-01 -0.62761969089E-01  0.11671463384E+00  0.51100000000E-03 0.  1.
</event>
<event>
 8    1  0.1064884E+005  0.1043930E+01  0.7957747E-01            NaN
         13   -1    0    0    0    0  0.00000000000E+00  0.00000000000E+00  0.74505805969E-08  0.10566000000E+00  0.10566000000E+00 0.  1.
     999900   -1    0    0    0    0 -0.00000000000E+00 -0.00000000000E+00 -0.74505805969E-08  0.93827000000E+00  0.93827000000E+00 0. -1.
     999902    2    1    2    0    0 -0.40608721681E-02 -0.86560463305E-02 -0.21221654272E-01  0.10206539086E+01  0.10203884676E+01 0.  0.
     999903    2    3    3    0    0 -0.27078647786E-01 -0.16854155705E-01 -0.12864855186E+00  0.13378437743E+00  0.18179494446E-01 0.  0.
         14    1    1    2    0    0  0.40608721681E-02  0.86560463305E-02  0.21221654272E-01  0.23276091400E-01  0.00000000000E+00 0.  1.
     999901    1    3    3    0    0  0.23017775618E-01  0.81981093742E-02  0.10742689759E+00  0.88686953117E+00  0.88000000000E+00 0.  1.
        -11    1    4    4    0    0 -0.17711278671E-02 -0.89710002407E-02 -0.48728985801E-01  0.49582163299E-01  0.51100000000E-03 0.  1.
         11    1    4    4    0    0 -0.25307519919E-01 -0.78831554639E-02 -0.79919566059E-01  0.84202214131E-01  0.51100000000E-03 0. -1.
</event>
<event>
 8    1  0.1064884E+005  0.1043930E+01  0.7957747E-01            NaN
         13   -1    0    0    0    0  0.00000000000E+00  0.00000000000E+00  0.74505805969E-08  0.10566000000E+00  0.10566000000E+00 0.  1.
     999900   -1    0    0    0    0 -0.00000000000E+00 -0.00000000000E+00 -0.74505805969E-08  0.93827000000E+00  0.93827000000E+00 0.  1.
     999902    2    1    2    0    0  0.18253110573E-01 -0.63568484408E-02 -0.12137615762E-01  0.10211066066E+01  0.10208515048E+01 0.  0.
     999903    2    3    3    0    0 -0.67755479881E-02  0.34986222506E-01  0.12263448464E+00  0.12953540797E+00  0.21685508539E-01 0.  0.
         14    1    1    2    0    0 -0.18253110573E-01  0.63568484408E-02  0.12137615762E-01  0.22823393351E-01  0.00000000000E+00 0.  1.
     999901    1    3    3    0    0  0.25028658561E-01 -0.41343070947E-01 -0.13477210040E+00  0.89157119868E+00  0.88000000000E+00 0.  1.
        -11    1    4    4    0    0 -0.63364882150E-02  0.37187270763E-01  0.10165291889E+00  0.10842795409E+00  0.51100000000E-03 0. -1.
         11    1    4    4    0    0 -0.43905977309E-03 -0.22010482571E-02  0.20981565750E-01  0.21107453879E-01  0.51100000000E-03 0.  1.
</event>
<event>
 8    1  0.1064884E+005  0.1043930E+01  0.7957747E-01            NaN
         13   -1    0    0    0    0  0.00000000000E+00  0.00000000000E+00  0.74505805969E-08  0.10566000000E+00  0.10566000000E+00 0.  1.
     999900   -1    0    0    0    0 -0.00000000000E+00 -0.00000000000E+00 -0.74505805969E-08  0.93827000000E+00  0.93827000000E+00 0.  1.
     999902    2    1    2    0    0  0.14278513049E-01  0.16950607389E-01 -0.71109699492E-02  0.10206541559E+01  0.10203887205E+01 0.  0.
     999903    2    3    3    0    0  0.29757010169E-01  0.12420999798E+00  0.30759944920E-01  0.13319803475E+00  0.21953109056E-01 0.  0.
         14    1    1    2    0    0 -0.14278513049E-01 -0.16950607389E-01  0.71109699492E-02  0.23275844118E-01  0.00000000000E+00 0. -1.
     999901    1    3    3    0    0 -0.15478497119E-01 -0.10725939059E+00 -0.37870914870E-01  0.88745612113E+00  0.88000000000E+00 0.  1.
        -11    1    4    4    0    0  0.13599325801E-01  0.83782083829E-01  0.11752887908E-01  0.85689968655E-01  0.51100000000E-03 0. -1.
         11    1    4    4    0    0  0.16157684368E-01  0.40427914151E-01  0.19007057013E-01  0.47508066094E-01  0.51100000000E-03 0.  1.
</event>
<event>
 8    1  0.1064884E+005  0.1043930E+01  0.7957747E-01            NaN
         13   -1    0    0    0    0  0.00000000000E+00  0.00000000000E+00  0.74505805969E-08  0.10566000000E+00  0.10566000000E+00 0. -1.
     999900   -1    0    0    0    0 -0.00000000000E+00 -0.00000000000E+00 -0.74505805969E-08  0.93827000000E+00  0.93827000000E+00 0.  1.
     999902    2    1    2    0    0 -0.14086626524E-01 -0.19053473859E-01  0.19255287637E-02  0.10201565784E+01  0.10198795365E+01 0.  0.
     999903    2    3    3    0    0 -0.41987968247E-01 -0.44406344404E-01 -0.11459909411E+00  0.13167515449E+00  0.21690574871E-01 0.  0.
         14    1    1    2    0    0  0.14086626524E-01  0.19053473859E-01 -0.19255287637E-02  0.23773421587E-01  0.00000000000E+00 0.  1.
     999901    1    3    3    0    0  0.27901341723E-01  0.25352870544E-01  0.11652462288E+00  0.88848142392E+00  0.88000000000E+00 0. -1.
        -11    1    4    4    0    0 -0.14161644126E-01 -0.24220928275E-02 -0.22480765349E-01  0.26684539150E-01  0.51100000000E-03 0. -1.
         11    1    4    4    0    0 -0.27826324121E-01 -0.41984251576E-01 -0.92118328765E-01  0.10499061534E+00  0.51100000000E-03 0.  1.
</event>
<event>
 8    1  0.1064884E+005  0.1043930E+01  0.7957747E-01            NaN
         13   -1    0    0    0    0  0.00000000000E+00  0.00000000000E+00  0.74505805969E-08  0.10566000000E+00  0.10566000000E+00 0.  1.
     999900   -1    0    0    0    0 -0.00000000000E+00 -0.00000000000E+00 -0.74505805969E-08  0.93827000000E+00  0.93827000000E+00 0.  1.
     999902    2    1    2    0    0  0.12650506379E-01 -0.61788123558E-02 -0.18951432892E-01  0.10203213185E+01  0.10200481475E+01 0.  0.
     999903    2    3    3    0    0 -0.32485459006E-01  0.12232851748E+00  0.16308555790E-01  0.12914532241E+00  0.19823573707E-01 0.  0.
         14    1    1    2    0    0 -0.12650506379E-01  0.61788123558E-02  0.18951432892E-01  0.23608681505E-01  0.00000000000E+00 0.  1.
     999901    1    3    3    0    0  0.45135965385E-01 -0.12850732983E+00 -0.35259988682E-01  0.89117599608E+00  0.88000000000E+00 0. -1.
        -11    1    4    4    0    0 -0.16072762046E-01  0.41760645025E-01  0.14000214667E-01  0.46888722359E-01  0.51100000000E-03 0. -1.
         11    1    4    4    0    0 -0.16412696960E-01  0.80567872450E-01  0.23083411230E-02  0.82256600054E-01  0.51100000000E-03 0.  1.
</event>
<event>
 8    1  0.1064884E+005  0.1043930E+01  0.7957747E-01            NaN
         13   -1    0    0    0    0  0.00000000000E+00  0.00000000000E+00  0.74505805969E-08  0.10566000000E+00  0.10566000000E+00 0. -1.
     999900   -1    0    0    0    0 -0.00000000000E+00 -0.00000000000E+00 -0.74505805969E-08  0.93827000000E+00  0.93827000000E+00 0. -1.
     999902    2    1    2    0    0  0.47208290988E-02 -0.16664341949E-01  0.15844331913E-01  0.10204559851E+01  0.10201859577E+01 0.  0.
     999903    2    3    3    0    0 -0.10910459211E+00 -0.56771115318E-01 -0.39159128004E-01  0.13051769492E+00  0.19356131522E-01 0.  0.
         14    1    1    2    0    0 -0.47208290988E-02  0.16664341949E-01 -0.15844331913E-01  0.23474014862E-01  0.00000000000E+00 0.  1.
     999901    1    3    3    0    0  0.11382542121E+00  0.40106773369E-01  0.55003459917E-01  0.88993829021E+00  0.88000000000E+00 0. -1.
        -11    1    4    4    0    0 -0.41805663957E-01 -0.17367148331E-01 -0.23367129940E-01  0.50947181107E-01  0.51100000000E-03 0. -1.
         11    1    4    4    0    0 -0.67298928158E-01 -0.39403966987E-01 -0.15791998063E-01  0.79570513818E-01  0.51100000000E-03 0.  1.
</event>
<event>
 8    1  0.1064884E+005  0.1043930E+01  0.7957747E-01            NaN
         13   -1    0    0    0    0  0.00000000000E+00  0.00000000000E+00  0.74505805969E-08  0.10566000000E+00  0.10566000000E+00 0.  1.
     999900   -1    0    0    0    0 -0.00000000000E+00 -0.00000000000E+00 -0.74505805969E-08  0.93827000000E+00  0.93827000000E+00 0. -1.
     999902    2    1    2    0    0  0.12248004445E-01  0.34495245020E-02 -0.17962285224E-01  0.10219173554E+01  0.10216802458E+01 0.  0.
     999903    2    3    3    0    0  0.80127777414E-01 -0.44862742569E-01  0.91748757459E-01  0.13119952599E+00  0.19035617683E-01 0.  0.
         14    1    1    2    0    0 -0.12248004445E-01 -0.34495245020E-02  0.17962285224E-01  0.22012644608E-01  0.00000000000E+00 0.  1.
     999901    1    3    3    0    0 -0.67879772970E-01  0.48312267071E-01 -0.10971104268E+00  0.89071782940E+00  0.88000000000E+00 0. -1.
        -11    1    4    4    0    0  0.18637734894E-01 -0.20256018050E-01  0.28208937264E-01  0.39416705745E-01  0.51100000000E-03 0.  1.
         11    1    4    4    0    0  0.61490042520E-01 -0.24606724519E-01  0.63539820195E-01  0.91782820245E-01  0.51100000000E-03 0. -1.
</event>
<event>
 8    1  0.1064884E+005  0.1043930E+01  0.7957747E-01            NaN
         13   -1    0    0    0    0  0.00000000000E+00  0.00000000000E+00  0.74505805969E-08  0.10566000000E+00  0.10566000000E+00 0. -1.
     999900   -1    0    0    0    0 -0.00000000000E+00 -0.00000000000E+00 -0.74505805969E-08  0.93827000000E+00  0.93827000000E+00 0.  1.
     999902    2    1    2    0    0 -0.13695777952E-01  0.11714796449E-01 -0.14964493604E-01  0.10205046535E+01  0.10202357575E+01 0.  0.
     999903    2    3    3    0    0  0.26572648615E-01  0.98276284898E-01 -0.82941583759E-01  0.13273479468E+00  0.19361962021E-01 0.  0.
         14    1    1    2    0    0  0.13695777952E-01 -0.11714796449E-01  0.14964493604E-01  0.23425346494E-01  0.00000000000E+00 0. -1.
     999901    1    3    3    0    0 -0.40268426567E-01 -0.86561488450E-01  0.67977090156E-01  0.88776985883E+00  0.88000000000E+00 0.  1.
        -11    1    4    4    0    0  0.49185900781E-02  0.39009481753E-01 -0.41898954195E-01  0.57460557591E-01  0.51100000000E-03 0.  1.
         11    1    4    4    0    0  0.21654058537E-01  0.59266803146E-01 -0.41042629564E-01  0.75274237085E-01  0.51100000000E-03 0. -1.
</event>
<event>
 8    1  0.1064884E+005  0.1043930E+01  0.7957747E-01            NaN
         13   -1    0    0    0    0  0.00000000000E+00  0.00000000000E+00  0.74505805969E-08  0.10566000000E+00  0.10566000000E+00 0. -1.
     999900   -1    0    0    0    0 -0.00000000000E+00 -0.00000000000E+00 -0.74505805969E-08  0.93827000000E+00  0.93827000000E+00 0. -1.
     999902    2    1    2    0    0 -0.39589746727E-02  0.11557702988E-01  0.20427658274E-01  0.10201278320E+01  0.10198501117E+01 0.  0.
     999903    2    3    3    0    0  0.10464602520E+00  0.28072651436E-01  0.72481538957E-01  0.13177126169E+00  0.19267266796E-01 0.  0.
         14    1    1    2    0    0  0.39589746727E-02 -0.11557702988E-01 -0.20427658274E-01  0.23802167998E-01  0.00000000000E+00 0.  1.
     999901    1    3    3    0    0 -0.10860499987E+00 -0.16514948448E-01 -0.52053880682E-01  0.88835657031E+00  0.88000000000E+00 0. -1.
        -11    1    4    4    0    0  0.34965710093E-01  0.35610008925E-02  0.15199416352E-01  0.38295756790E-01  0.51100000000E-03 0.  1.
         11    1    4    4    0    0  0.69680315105E-01  0.24511650544E-01  0.57282122605E-01  0.93475504902E-01  0.51100000000E-03 0. -1.
</event>
<event>
 8    1  0.1064884E+005  0.1043930E+01  0.7957747E-01            NaN
         13   -1    0    0    0    0  0.00000000000E+00  0.00000000000E+00  0.74505805969E-08  0.10566000000E+00  0.10566000000E+00 0. -1.
     999900   -1    0    0    0    0 -0.00000000000E+00 -0.00000000000E+00 -0.74505805969E-08  0.93827000000E+00  0.93827000000E+00 0. -1.
     999902    2    1    2    0    0  0.23552889939E-01 -0.90772799308E-03  0.19994652086E-02  0.10202749698E+01  0.10200007125E+01 0.  0.
     999903    2    3    3    0    0 -0.37879449816E-01  0.43872097430E-01 -0.11399696953E+00  0.12941339914E+00  0.19821835508E-01 0.  0.
         14    1    1    2    0    0 -0.23552889939E-01  0.90772799308E-03 -0.19994652086E-02  0.23655030241E-01  0.00000000000E+00 0.  1.
     999901    1    3    3    0    0  0.61432339755E-01 -0.44779825423E-01  0.11599643474E+00  0.89086157062E+00  0.88000000000E+00 0.  1.
        -11    1    4    4    0    0 -0.36346709141E-01  0.30038427772E-01 -0.83727803970E-01  0.96093687030E-01  0.51100000000E-03 0. -1.
         11    1    4    4    0    0 -0.15327406748E-02  0.13833669657E-01 -0.30269165564E-01  0.33319712110E-01  0.51100000000E-03 0.  1.
</event>
<event>
 8    1  0.1064884E+005  0.1043930E+01  0.7957747E-01            NaN
         13   -1    0    0    0    0  0.00000000000E+00  0.00000000000E+00  0.74505805969E-08  0.10566000000E+00  0.10566000000E+00 0. -1.
     999900   -1    0    0    0    0 -0.00000000000E+00 -0.00000000000E+00 -0.74505805969E-08  0.93827000000E+00  0.93827000000E+00 0.  1.
     999902    2    1    2    0    0 -0.23669353158E-02  0.62344475849E-02  0.22473039762E-01  0.10204884080E+01  0.10202191346E+01 0.  0.
     999903    2    3    3    0    0  0.11667622172E+00 -0.49841276180E-01 -0.17793084321E-01  0.12979366748E+00  0.20792035578E-01 0.  0.
         14    1    1    2    0    0  0.23669353158E-02 -0.62344475849E-02 -0.22473039762E-01  0.23441592002E-01  0.00000000000E+00 0.  1.
     999901    1    3    3    0    0 -0.11904315703E+00  0.56075723765E-01  0.40266124082E-01  0.89069474051E+00  0.88000000000E+00 0. -1.
        -11    1    4    4    0    0  0.60161543192E-01 -0.23520914796E-01 -0.19334244641E-01  0.67429361920E-01  0.51100000000E-03 0.  1.
         11    1    4    4    0    0  0.56514678525E-01 -0.26320361384E-01  0.15411603203E-02  0.62364305563E-01  0.51100000000E-03 0. -1.
</event>
<event>
 8    1  0.1064884E+005  0.1043930E+01  0.7957747E-01            NaN
         13   -1    0    0    0    0  0.00000000000E+00  0.00000000000E+00  0.74505805969E-08  0.10566000000E+00  0.10566000000E+00 0.  1.
     999900   -1    0    0    0    0 -0.00000000000E+00 -0.00000000000E+00 -0.74505805969E-08  0.93827000000E+00  0.93827000000E+00 0. -1.
     999902    2    1    2    0    0  0.68679769238E-02  0.26329986808E-02  0.22135653953E-01  0.10206042853E+01  0.10203376981E+01 0.  0.
     999903    2    3    3    0    0 -0.12685143278E+00  0.43056842359E-02 -0.17520636719E-01  0.12961814638E+00  0.19597608136E-01 0.  0.
         14    1    1    2    0    0 -0.68679769238E-02 -0.26329986808E-02 -0.22135653953E-01  0.23325714673E-01  0.00000000000E+00 0. -1.
     999901    1    3    3    0    0  0.13371940970E+00 -0.16726855552E-02  0.39656290672E-01  0.89098613895E+00  0.88000000000E+00 0. -1.
        -11    1    4    4    0    0 -0.42008412607E-01  0.94579180719E-02 -0.12945752779E-02  0.43082432500E-01  0.51100000000E-03 0. -1.
         11    1    4    4    0    0 -0.84843020172E-01 -0.51522338360E-02 -0.16226061441E-01  0.86535713878E-01  0.51100000000E-03 0.  1.
</event>
<event>
 8    1  0.1064884E+005  0.1043930E+01  0.7957747E-01            NaN
         13   -1    0    0    0    0  0.00000000000E+00  0.00000000000E+00  0.74505805969E-08  0.10566000000E+00  0.10566000000E+00 0.  1.
     999900   -1    0    0    0    0 -0.00000000000E+00 -0.00000000000E+00 -0.74505805969E-08  0.93827000000E+00  0.93827000000E+00 0. -1.
     999902    2    1    2    0    0  0.73896029919E-02  0.98644799464E-02 -0.31117210910E-01  0.10104606855E+01  0.10099062342E+01 0.  0.
     999903    2    3    3    0    0  0.41753059347E-01  0.11043391017E+00  0.24966589109E-01  0.12229378113E+00  0.19836124880E-01 0.  0.
         14    1    1    2    0    0 -0.73896029919E-02 -0.98644799464E-02  0.31117210910E-01  0.33469314480E-01  0.00000000000E+00 0.  1.
     999901    1    3    3    0    0 -0.34363456355E-01 -0.10056943023E+00 -0.56083800018E-01  0.88816690439E+00  0.88000000000E+00 0. -1.
        -11    1    4    4    0    0  0.33521988140E-01  0.62896493377E-01  0.11440229821E-01  0.72186096635E-01  0.51100000000E-03 0. -1.
         11    1    4    4    0    0  0.82310712072E-02  0.47537416796E-01  0.13526359288E-01  0.50107684495E-01  0.51100000000E-03 0.  1.
</event>
<event>
 8    1  0.1064884E+005  0.1043930E+01  0.7957747E-01            NaN
         13   -1    0    0    0    0  0.00000000000E+00  0.00000000000E+00  0.74505805969E-08  0.10566000000E+00  0.10566000000E+00 0. -1.
     999900   -1    0    0    0    0 -0.00000000000E+00 -0.00000000000E+00 -0.74505805969E-08  0.93827000000E+00  0.93827000000E+00 0. -1.
     999902    2    1    2    0    0 -0.13078753336E-01 -0.17380291868E-01  0.99165307735E-02  0.10200246467E+01  0.10197444846E+01 0.  0.
     999903    2    3    3    0    0  0.44508910732E-01 -0.12172064704E+00 -0.15265043505E-01  0.13163432681E+00  0.17251533058E-01 0.  0.
         14    1    1    2    0    0  0.13078753336E-01  0.17380291868E-01 -0.99165307735E-02  0.23905353309E-01  0.00000000000E+00 0.  1.
     999901    1    3    3    0    0 -0.57587664068E-01  0.10434035517E+00  0.25181574279E-01  0.88839031988E+00  0.88000000000E+00 0.  1.
        -11    1    4    4    0    0  0.37328006570E-01 -0.10213063750E+00 -0.63076115874E-02  0.10892242320E+00  0.51100000000E-03 0.  1.
         11    1    4    4    0    0  0.71809041612E-02 -0.19590009540E-01 -0.89574319177E-02  0.22711903617E-01  0.51100000000E-03 0. -1.
</event>
<event>
 8    1  0.1064884E+005  0.1043930E+01  0.7957747E-01            NaN
         13   -1    0    0    0    0  0.00000000000E+00  0.00000000000E+00  0.74505805969E-08  0.10566000000E+00  0.10566000000E+00 0. -1.
     999900   -1    0    0    0    0 -0.00000000000E+00 -0.00000000000E+00 -0.74505805969E-08  0.93827000000E+00  0.93827000000E+00 0.  1.
     999902    2    1    2    0    0 -0.82541869922E-02  0.21098857325E-01 -0.52397429413E-02  0.10206760049E+01  0.10204110734E+01 0.  0.
     999903    2    3    3    0    0 -0.10829994710E+00 -0.67241002164E-01  0.17943620157E-01  0.13031060055E+00  0.20215048774E-01 0.  0.
         14    1    1    2    0    0  0.82541869922E-02 -0.21098857325E-01  0.52397429413E-02  0.23253995128E-01  0.00000000000E+00 0. -1.
     999901    1    3    3    0    0  0.10004576011E+00  0.88339859488E-01 -0.23183363098E-01  0.89036540432E+00  0.88000000000E+00 0. -1.
        -11    1    4    4    0    0 -0.54812292461E-01 -0.22428033861E-01  0.10262326190E-01  0.60108074063E-01  0.51100000000E-03 0.  1.
         11    1    4    4    0    0 -0.53487654641E-01 -0.44812968303E-01  0.76812939669E-02  0.70202526487E-01  0.51100000000E-03 0. -1.
</event>
<event>
 8    1  0.1064884E+005  0.1043930E+01  0.7957747E-01            NaN
         13   -1    0    0    0    0  0.00000000000E+00  0.00000000000E+00  0.74505805969E-08  0.10566000000E+00  0.10566000000E+00 0.  1.
     999900   -1    0    0    0    0 -0.00000000000E+00 -0.00000000000E+00 -0.74505805969E-08  0.93827000000E+00  0.93827000000E+00 0.  1.
     999902    2    1    2    0    0  0.16690576850E-01  0.11657663960E-01  0.11542490478E-01  0.10205268897E+01  0.10202585099E+01 0.  0.
     999903    2    3    3    0    0 -0.14447117496E-01  0.12945572886E+00  0.89616901753E-02  0.13212799246E+00  0.20248198987E-01 0.  0.
         14    1    1    2    0    0 -0.16690576850E-01 -0.11657663960E-01 -0.11542490478E-01  0.23403110286E-01  0.00000000000E+00 0. -1.
     999901    1    3    3    0    0  0.31137694346E-01 -0.11779806490E+00  0.25808003027E-02  0.88839889725E+00  0.88000000000E+00 0. -1.
        -11    1    4    4    0    0 -0.91444325072E-03  0.84184527796E-01  0.92504180698E-03  0.84196126692E-01  0.51100000000E-03 0.  1.
         11    1    4    4    0    0 -0.13532674245E-01  0.45271201069E-01  0.80366483683E-02  0.47931865772E-01  0.51100000000E-03 0. -1.
</event>
<event>
 8    1  0.1064884E+005  0.1043930E+01  0.7957747E-01            NaN
         13   -1    0    0    0    0  0.00000000000E+00  0.00000000000E+00  0.74505805969E-08  0.10566000000E+00  0.10566000000E+00 0.  1.
     999900   -1    0    0    0    0 -0.00000000000E+00 -0.00000000000E+00 -0.74505805969E-08  0.93827000000E+00  0.93827000000E+00 0.  1.
     999902    2    1    2    0    0  0.78277612064E-02  0.98384904499E-02 -0.20221888952E-01  0.10201183530E+01  0.10198404089E+01 0.  0.
     999903    2    3    3    0    0 -0.25184796580E-01 -0.81765737072E-01  0.92528526079E-01  0.12759730588E+00  0.19990862705E-01 0.  0.
         14    1    1    2    0    0 -0.78277612064E-02 -0.98384904499E-02  0.20221888952E-01  0.23811646995E-01  0.00000000000E+00 0.  1.
     999901    1    3    3    0    0  0.33012557786E-01  0.91604227522E-01 -0.11275041503E+00  0.89252104713E+00  0.88000000000E+00 0.  1.
        -11    1    4    4    0    0 -0.25482398338E-01 -0.50349836798E-01  0.58710006823E-01  0.81434542503E-01  0.51100000000E-03 0.  1.
         11    1    4    4    0    0  0.29760175781E-03 -0.31415900274E-01  0.33818519257E-01  0.46162763377E-01  0.51100000000E-03 0. -1.
</event>
<event>
 8    1  0.1064884E+005  0.1043930E+01  0.7957747E-01            NaN
         13   -1    0    0    0    0  0.00000000000E+00  0.00000000000E+00  0.74505805969E-08  0.10566000000E+00  0.10566000000E+00 0.  1.
     999900   -1    0    0    0    0 -0.00000000000E+00 -0.00000000000E+00 -0.74505805969E-08  0.93827000000E+00  0.93827000000E+00 0. -1.
     999902    2    1    2    0    0  0.16694020646E-02 -0.27667441908E-02 -0.23367926447E-01  0.10203397104E+01  0.10200669698E+01 0.  0.
     999903    2    3    3    0    0 -0.99504613188E-01 -0.82226077200E-01  0.95589926002E-03  0.13065346489E+00  0.20177173414E-01 0.  0.
         14    1    1    2    0    0 -0.16694020646E-02  0.27667441908E-02  0.23367926447E-01  0.23590289594E-01  0.00000000000E+00 0.  1.
     999901    1    3    3    0    0  0.10117401525E+00  0.79459333009E-01 -0.24323825707E-01  0.88968624552E+00  0.88000000000E+00 0. -1.
        -11    1    4    4    0    0 -0.32466941357E-01 -0.34069111153E-01 -0.75759526355E-02  0.47670355517E-01  0.51100000000E-03 0. -1.
         11    1    4    4    0    0 -0.67037671831E-01 -0.48156966047E-01  0.85318518955E-02  0.82983109373E-01  0.51100000000E-03 0.  1.
</event>
<event>
 8    1  0.1064884E+005  0.1043930E+01  0.7957747E-01            NaN
         13   -1    0    0    0    0  0.00000000000E+00  0.00000000000E+00  0.74505805969E-08  0.10566000000E+00  0.10566000000E+00 0.  1.
     999900   -1    0    0    0    0 -0.00000000000E+00 -0.00000000000E+00 -0.74505805969E-08  0.93827000000E+00  0.93827000000E+00 0. -1.
     999902    2    1    2    0    0 -0.22040667392E-01  0.75975518374E-02  0.46043027622E-02  0.10201663004E+01  0.10198894877E+01 0.  0.
     999903    2    3    3    0    0 -0.40213999367E-01  0.10850397511E+00 -0.59359597292E-01  0.13190746611E+00  0.22039497851E-01 0.  0.
         14    1    1    2    0    0  0.22040667392E-01 -0.75975518374E-02 -0.46043027622E-02  0.23763699563E-01  0.00000000000E+00 0.  1.
     999901    1    3    3    0    0  0.18173331975E-01 -0.10090642327E+00  0.63963900054E-01  0.88825883433E+00  0.88000000000E+00 0.  1.
        -11    1    4    4    0    0 -0.32901010278E-01  0.84987646962E-01 -0.56206908442E-01  0.10707405984E+00  0.51100000000E-03 0.  1.
         11    1    4    4    0    0 -0.73129890891E-02  0.23516328144E-01 -0.31526888499E-02  0.24833406267E-01  0.51100000000E-03 0. -1.
</event>
<event>
 8    1  0.1064884E+005  0.1043930E+01  0.7957747E-01            NaN
         13   -1    0    0    0    0  0.00000000000E+00  0.00000000000E+00  0.74505805969E-08  0.10566000000E+00  0.10566000000E+00 0. -1.
     999900   -1    0    0    0    0 -0.00000000000E+00 -0.00000000000E+00 -0.74505805969E-08  0.93827000000E+00  0.93827000000E+00 0.  1.
     999902    2    1    2    0    0 -0.16826399916E-01 -0.16433734330E-01 -0.71965646288E-02  0.10193335389E+01  0.10190367400E+01 0.  0.
     999903    2    3    3    0    0  0.84639994261E-01 -0.75091001167E-01  0.58218318729E-01  0.12915647161E+00  0.22123165170E-01 0.  0.
         14    1    1    2    0    0  0.16826399916E-01  0.16433734330E-01  0.71965646288E-02  0.24596461140E-01  0.00000000000E+00 0.  1.
     999901    1    3    3    0    0 -0.10146639418E+00  0.58657266837E-01 -0.65414883358E-01  0.89017706725E+00  0.88000000000E+00 0.  1.
        -11    1    4    4    0    0  0.12445300985E-01 -0.23207085870E-01  0.11776882269E-01  0.28851523845E-01  0.51100000000E-03 0. -1.
         11    1    4    4    0    0  0.72194693276E-01 -0.51883915297E-01  0.46441436460E-01  0.10030494776E+00  0.51100000000E-03 0.  1.
</event>
<event>
 8    1  0.1064884E+005  0.1043930E+01  0.7957747E-01            NaN
         13   -1    0    0    0    0  0.00000000000E+00  0.00000000000E+00  0.74505805969E-08  0.10566000000E+00  0.10566000000E+00 0. -1.
     999900   -1    0    0    0    0 -0.00000000000E+00 -0.00000000000E+00 -0.74505805969E-08  0.93827000000E+00  0.93827000000E+00 0. -1.
     999902    2    1    2    0    0 -0.12018087007E-01 -0.25295514684E-01  0.17724951756E-02  0.10158686526E+01  0.10154810092E+01 0.  0.
     999903    2    3    3    0    0 -0.91411565523E-01 -0.85232389835E-01 -0.28806378465E-01  0.12973614505E+00  0.19519869458E-01 0.  0.
         14    1    1    2    0    0  0.12018087007E-01  0.25295514684E-01 -0.17724951756E-02  0.28061347395E-01  0.00000000000E+00 0.  1.
     999901    1    3    3    0    0  0.79393478515E-01  0.59936875151E-01  0.30578873641E-01  0.88613250756E+00  0.88000000000E+00 0.  1.
        -11    1    4    4    0    0 -0.37602832185E-02 -0.10629305200E-01 -0.10574057837E-02  0.11335831990E-01  0.51100000000E-03 0. -1.
         11    1    4    4    0    0 -0.87651282304E-01 -0.74603084636E-01 -0.27748972682E-01  0.11840031306E+00  0.51100000000E-03 0.  1.
</event>
<event>
 8    1  0.1064884E+005  0.1043930E+01  0.7957747E-01            NaN
         13   -1    0    0    0    0  0.00000000000E+00  0.00000000000E+00  0.74505805969E-08  0.10566000000E+00  0.10566000000E+00 0.  1.
     999900   -1    0    0    0    0 -0.00000000000E+00 -0.00000000000E+00 -0.74505805969E-08  0.93827000000E+00  0.93827000000E+00 0. -1.
     999902    2    1    2    0    0  0.14942842667E-01  0.17750712704E-01  0.63683391257E-02  0.10198689923E+01  0.10195851261E+01 0.  0.
     999903    2    3    3    0    0  0.92503908035E-01 -0.81913539919E-01  0.37020267788E-01  0.13032516379E+00  0.18637249393E-01 0.  0.
         14    1    1    2    0    0 -0.14942842667E-01 -0.17750712704E-01 -0.63683391257E-02  0.24061007703E-01  0.00000000000E+00 0.  1.
     999901    1    3    3    0    0 -0.77561065368E-01  0.99664252623E-01 -0.30651928662E-01  0.88954382851E+00  0.88000000000E+00 0.  1.
        -11    1    4    4    0    0  0.68742349777E-01 -0.49269569137E-01  0.24961376867E-01  0.88183516328E-01  0.51100000000E-03 0. -1.
         11    1    4    4    0    0  0.23761558258E-01 -0.32643970782E-01  0.12058890921E-01  0.42141647458E-01  0.51100000000E-03 0.  1.
</event>
<event>
 8    1  0.1064884E+005  0.1043930E+01  0.7957747E-01            NaN
         13   -1    0    0    0    0  0.00000000000E+00  0.00000000000E+00  0.74505805969E-08  0.10566000000E+00  0.10566000000E+00 0.  1.
     999900   -1    0    0    0    0 -0.00000000000E+00 -0.00000000000E+00 -0.74505805969E-08  0.93827000000E+00  0.93827000000E+00 0. -1.
     999902    2    1    2    0    0 -0.10529766922E-01  0.20127735682E-01 -0.11998660651E-01  0.10182401267E+01  0.10179160014E+01 0.  0.
     999903    2    3    3    0    0 -0.74846359712E-01 -0.78153180556E-01  0.65241564003E-01  0.12708255646E+00  0.13550545761E-01 0.  0.
         14    1    1    2    0    0  0.10529766922E-01 -0.20127735682E-01  0.11998660651E-01  0.25689873346E-01  0.00000000000E+00 0.  1.
     999901    1    3    3    0    0  0.64316592789E-01  0.98280916237E-01 -0.77240224654E-01  0.89115757019E+00  0.88000000000E+00 0. -1.
        -11    1    4    4    0    0 -0.57640280684E-01 -0.54580691513E-01  0.52884823135E-01  0.95386159806E-01  0.51100000000E-03 0. -1.
         11    1    4    4    0    0 -0.17206079028E-01 -0.23572489042E-01  0.12356740868E-01  0.31696396657E-01  0.51100000000E-03 0.  1.
</event>
<event>
 8    1  0.1064884E+005  0.1043930E+01  0.7957747E-01            NaN
         13   -1    0    0    0    0  0.00000000000E+00  0.00000000000E+00  0.74505805969E-08  0.10566000000E+00  0.10566000000E+00 0.  1.
     999900   -1    0    0    0    0 -0.00000000000E+00 -0.00000000000E+00 -0.74505805969E-08  0.93827000000E+00  0.93827000000E+00 0.  1.
     999902    2    1    2    0    0 -0.36305157769E-02 -0.21577925090E-01 -0.37195707053E-02  0.10217348946E+01  0.10214937945E+01 0.  0.
     999903    2    3    3    0    0  0.48540624724E-01  0.94256962674E-01  0.71744889209E-01  0.12941520201E+00  0.18984154547E-01 0.  0.
         14    1    1    2    0    0  0.36305157769E-02  0.21577925090E-01  0.37195707053E-02  0.22195105367E-01  0.00000000000E+00 0. -1.
     999901    1    3    3    0    0 -0.52171140501E-01 -0.11583488776E+00 -0.75464459914E-01  0.89231969262E+00  0.88000000000E+00 0. -1.
        -11    1    4    4    0    0  0.28768303360E-01  0.69922226632E-01  0.43615513038E-01  0.87288642755E-01  0.51100000000E-03 0.  1.
         11    1    4    4    0    0  0.19772321363E-01  0.24334736042E-01  0.28129376171E-01  0.42126559260E-01  0.51100000000E-03 0. -1.
</event>
<event>
 8    1  0.1064884E+005  0.1043930E+01  0.7957747E-01            NaN
         13   -1    0    0    0    0  0.00000000000E+00  0.00000000000E+00  0.74505805969E-08  0.10566000000E+00  0.10566000000E+00 0. -1.
     999900   -1    0    0    0    0 -0.00000000000E+00 -0.00000000000E+00 -0.74505805969E-08  0.93827000000E+00  0.93827000000E+00 0.  1.
     999902    2    1    2    0    0 -0.16720304031E-01 -0.66388949585E-02 -0.11812062370E-01  0.10224086545E+01  0.10221821210E+01 0.  0.
     999903    2    3    3    0    0  0.50847472290E-01  0.11294653730E+00  0.35715404131E-01  0.13048660633E+00  0.20218274215E-01 0.  0.
         14    1    1    2    0    0  0.16720304031E-01  0.66388949585E-02  0.11812062370E-01  0.21521345464E-01  0.00000000000E+00 0. -1.
     999901    1    3    3    0    0 -0.67567776321E-01 -0.11958543226E+00 -0.47527466502E-01  0.89192204821E+00  0.88000000000E+00 0.  1.
        -11    1    4    4    0    0  0.72830517594E-02  0.38549115792E-01  0.12947564949E-01  0.41315587015E-01  0.51100000000E-03 0.  1.
         11    1    4    4    0    0  0.43564420531E-01  0.74397421509E-01  0.22767839183E-01  0.89171019314E-01  0.51100000000E-03 0. -1.
</event>
<event>
 8    1  0.1064884E+005  0.1043930E+01  0.7957747E-01            NaN
         13   -1    0    0    0    0  0.00000000000E+00  0.00000000000E+00  0.74505805969E-08  0.10566000000E+00  0.10566000000E+00 0. -1.
     999900   -1    0    0    0    0 -0.00000000000E+00 -0.00000000000E+00 -0.74505805969E-08  0.93827000000E+00  0.93827000000E+00 0.  1.
     999902    2    1    2    0    0 -0.18875365611E-01 -0.14214005568E-01 -0.15040390826E-02  0.10202534395E+01  0.10199786769E+01 0.  0.
     999903    2    3    3    0    0 -0.86047722691E-01 -0.96317125949E-01 -0.27382189228E-01  0.13350503860E+00  0.19814431940E-01 0.  0.
         14    1    1    2    0    0  0.18875365611E-01  0.14214005568E-01  0.15040390826E-02  0.23676560451E-01  0.00000000000E+00 0.  1.
     999901    1    3    3    0    0  0.67172357079E-01  0.82103120381E-01  0.25878150145E-01  0.88674840095E+00  0.88000000000E+00 0.  1.
        -11    1    4    4    0    0 -0.66776670883E-01 -0.61814892043E-01 -0.21988866929E-01  0.93616109951E-01  0.51100000000E-03 0.  1.
         11    1    4    4    0    0 -0.19271051807E-01 -0.34502233906E-01 -0.53933222986E-02  0.39888928648E-01  0.51100000000E-03 0. -1.
</event>
<event>
 8    1  0.1064884E+005  0.1043930E+01  0.7957747E-01            NaN
         13   -1    0    0    0    0  0.00000000000E+00  0.00000000000E+00  0.74505805969E-08  0.10566000000E+00  0.10566000000E+00 0. -1.
     999900   -1    0    0    0    0 -0.00000000000E+00 -0.00000000000E+00 -0.74505805969E-08  0.93827000000E+00  0.93827000000E+00 0. -1.
     999902    2    1    2    0    0  0.35447490096E-02  0.21924731751E-01 -0.16206924319E-01  0.10164359369E+01  0.10160640188E+01 0.  0.
     999903    2    3    3    0    0 -0.65708232031E-01  0.74435377440E-01  0.77290605093E-01  0.12722553928E+00  0.18822939148E-01 0.  0.
         14    1    1    2    0    0 -0.35447490096E-02 -0.21924731751E-01  0.16206924319E-01  0.27494063064E-01  0.00000000000E+00 0. -1.
     999901    1    3    3    0    0  0.69252981040E-01 -0.52510645689E-01 -0.93497529412E-01  0.88921039766E+00  0.88000000000E+00 0. -1.
        -11    1    4    4    0    0 -0.45086675913E-01  0.37521409220E-01  0.47840662326E-01  0.75694481883E-01  0.51100000000E-03 0.  1.
         11    1    4    4    0    0 -0.20621556117E-01  0.36913968220E-01  0.29449942768E-01  0.51531057397E-01  0.51100000000E-03 0. -1.
</event>
<event>
 8    1  0.1064884E+005  0.1043930E+01  0.7957747E-01            NaN
         13   -1    0    0    0    0  0.00000000000E+00  0.00000000000E+00  0.74505805969E-08  0.10566000000E+00  0.10566000000E+00 0.  1.
     999900   -1    0    0    0    0 -0.00000000000E+00 -0.00000000000E+00 -0.74505805969E-08  0.93827000000E+00  0.93827000000E+00 0. -1.
     999902    2    1    2    0    0  0.89026247985E-02 -0.22096765045E-01  0.19541585653E-02  0.10200272284E+01  0.10197471276E+01 0.  0.
     999903    2    3    3    0    0  0.17346631576E-01  0.10206693897E+00  0.73421883190E-01  0.12840199194E+00  0.19435352984E-01 0.  0.
         14    1    1    2    0    0 -0.89026247985E-02  0.22096765045E-01 -0.19541585653E-02  0.23902771585E-01  0.00000000000E+00 0. -1.
     999901    1    3    3    0    0 -0.84440067771E-02 -0.12416370402E+00 -0.71467724625E-01  0.89162523647E+00  0.88000000000E+00 0. -1.
        -11    1    4    4    0    0 -0.27444486284E-02  0.36765199330E-01  0.22567205613E-01  0.43229061640E-01  0.51100000000E-03 0. -1.
         11    1    4    4    0    0  0.20091080204E-01  0.65301739645E-01  0.50854677577E-01  0.85172930305E-01  0.51100000000E-03 0.  1.
</event>
<event>
 8    1  0.1064884E+005  0.1043930E+01  0.7957747E-01            NaN
         13   -1    0    0    0    0  0.00000000000E+00  0.00000000000E+00  0.74505805969E-08  0.10566000000E+00  0.10566000000E+00 0. -1.
     999900   -1    0    0    0    0 -0.00000000000E+00 -0.00000000000E+00 -0.74505805969E-08  0.93827000000E+00  0.93827000000E+00 0.  1.
     999902    2    1    2    0    0 -0.17503759607E-01  0.13867108700E-01  0.58790711728E-02  0.10208379715E+01  0.10205767596E+01 0.  0.
     999903    2    3    3    0    0  0.25174027299E-01 -0.11690983670E+00 -0.41230687861E-01  0.12890561285E+00  0.24800117633E-01 0.  0.
         14    1    1    2    0    0  0.17503759607E-01 -0.13867108700E-01 -0.58790711728E-02  0.23092028536E-01  0.00000000000E+00 0. -1.
     999901    1    3    3    0    0 -0.42677786905E-01  0.13077694540E+00  0.47109759033E-01  0.89193235861E+00  0.88000000000E+00 0.  1.
        -11    1    4    4    0    0 -0.46032981375E-02 -0.11906938674E-01 -0.67159816755E-02  0.14433678436E-01  0.51100000000E-03 0.  1.
         11    1    4    4    0    0  0.29777325436E-01 -0.10500289803E+00 -0.34514706185E-01  0.11447193441E+00  0.51100000000E-03 0. -1.
</event>
<event>
 8    1  0.1064884E+005  0.1043930E+01  0.7957747E-01            NaN
         13   -1    0    0    0    0  0.00000000000E+00  0.00000000000E+00  0.74505805969E-08  0.10566000000E+00  0.10566000000E+00 0.  1.
     999900   -1    0    0    0    0 -0.00000000000E+00 -0.00000000000E+00 -0.74505805969E-08  0.93827000000E+00  0.93827000000E+00 0. -1.
     999902    2    1    2    0    0  0.18829825480E-01 -0.15588518883E-01  0.33541752149E-02  0.10192558285E+01  0.10189571282E+01 0.  0.
     999903    2    3    3    0    0  0.11910706542E+00 -0.19035673470E-02  0.53722688073E-01  0.13202429735E+00  0.18819438746E-01 0.  0.
         14    1    1    2    0    0 -0.18829825480E-01  0.15588518883E-01 -0.33541752149E-02  0.24674171514E-01  0.00000000000E+00 0.  1.
     999901    1    3    3    0    0 -0.10027723995E+00 -0.13684951536E-01 -0.50368512859E-01  0.88723153113E+00  0.88000000000E+00 0.  1.
        -11    1    4    4    0    0  0.87467019847E-01  0.66046290626E-02  0.41645043462E-01  0.97101346293E-01  0.51100000000E-03 0. -1.
         11    1    4    4    0    0  0.31640045578E-01 -0.85081964097E-02  0.12077644611E-01  0.34922951060E-01  0.51100000000E-03 0.  1.
</event>
<event>
 8    1  0.1064884E+005  0.1043930E+01  0.7957747E-01            NaN
         13   -1    0    0    0    0  0.00000000000E+00  0.00000000000E+00  0.74505805969E-08  0.10566000000E+00  0.10566000000E+00 0. -1.
     999900   -1    0    0    0    0 -0.00000000000E+00 -0.00000000000E+00 -0.74505805969E-08  0.93827000000E+00  0.93827000000E+00 0. -1.
     999902    2    1    2    0    0 -0.17117483035E-01  0.14639455720E-02 -0.15603825970E-01  0.10207215803E+01  0.10204576981E+01 0.  0.
     999903    2    3    3    0    0  0.11786975904E+00 -0.30348489334E-01  0.36003489590E-01  0.12836688533E+00  0.19170161339E-01 0.  0.
         14    1    1    2    0    0  0.17117483035E-01 -0.14639455720E-02  0.15603825970E-01  0.23208419744E-01  0.00000000000E+00 0. -1.
     999901    1    3    3    0    0 -0.13498724207E+00  0.31812434906E-01 -0.51607315560E-01  0.89235469493E+00  0.88000000000E+00 0.  1.
        -11    1    4    4    0    0  0.55050747131E-01 -0.14846904309E-01  0.69634172167E-02  0.57443586479E-01  0.51100000000E-03 0. -1.
         11    1    4    4    0    0  0.62819011908E-01 -0.15501585025E-01  0.29040072373E-01  0.70923298850E-01  0.51100000000E-03 0.  1.
</event>
<event>
 8    1  0.1064884E+005  0.1043930E+01  0.7957747E-01            NaN
         13   -1    0    0    0    0  0.00000000000E+00  0.00000000000E+00  0.74505805969E-08  0.10566000000E+00  0.10566000000E+00 0.  1.
     999900   -1    0    0    0    0 -0.00000000000E+00 -0.00000000000E+00 -0.74505805969E-08  0.93827000000E+00  0.93827000000E+00 0. -1.
     999902    2    1    2    0    0 -0.17867308141E-01  0.95033713073E-02  0.14331636425E-01  0.10191318031E+01  0.10188300553E+01 0.  0.
     999903    2    3    3    0    0  0.74547096287E-01  0.29009957791E-01 -0.96709708569E-01  0.12713902883E+00  0.20315454838E-01 0.  0.
         14    1    1    2    0    0  0.17867308141E-01 -0.95033713073E-02 -0.14331636425E-01  0.24798196891E-01  0.00000000000E+00 0. -1.
     999901    1    3    3    0    0 -0.92414404429E-01 -0.19506586484E-01  0.11104134499E+00  0.89199277428E+00  0.88000000000E+00 0.  1.
        -11    1    4    4    0    0  0.40814865092E-01  0.70471782765E-02 -0.39905764155E-01  0.57517363187E-01  0.51100000000E-03 0. -1.
         11    1    4    4    0    0  0.33732231195E-01  0.21962779515E-01 -0.56803944414E-01  0.69621665647E-01  0.51100000000E-03 0.  1.
</event>
<event>
 8    1  0.1064884E+005  0.1043930E+01  0.7957747E-01            NaN
         13   -1    0    0    0    0  0.00000000000E+00  0.00000000000E+00  0.74505805969E-08  0.10566000000E+00  0.10566000000E+00 0.  1.
     999900   -1    0    0    0    0 -0.00000000000E+00 -0.00000000000E+00 -0.74505805969E-08  0.93827000000E+00  0.93827000000E+00 0. -1.
     999902    2    1    2    0    0  0.12555095555E-01 -0.17370376569E-01 -0.17411054014E-01  0.10163165031E+01  0.10159413021E+01 0.  0.
     999903    2    3    3    0    0 -0.78902591604E-01  0.92735307947E-01 -0.18860236995E-01  0.12475053787E+00  0.19532840513E-01 0.  0.
         14    1    1    2    0    0 -0.12555095555E-01  0.17370376569E-01  0.17411054014E-01  0.27613496852E-01  0.00000000000E+00 0.  1.
     999901    1    3    3    0    0  0.91457687159E-01 -0.11010568452E+00  0.14491829818E-02  0.89156596527E+00  0.88000000000E+00 0.  1.
        -11    1    4    4    0    0 -0.29035116712E-01  0.38077258931E-01  0.18299505983E-02  0.47922077275E-01  0.51100000000E-03 0.  1.
         11    1    4    4    0    0 -0.49867474892E-01  0.54658049016E-01 -0.20690187594E-01  0.76828460599E-01  0.51100000000E-03 0. -1.
</event>
<event>
 8    1  0.1064884E+005  0.1043930E+01  0.7957747E-01            NaN
         13   -1    0    0    0    0  0.00000000000E+00  0.00000000000E+00  0.74505805969E-08  0.10566000000E+00  0.10566000000E+00 0. -1.
     999900   -1    0    0    0    0 -0.00000000000E+00 -0.00000000000E+00 -0.74505805969E-08  0.93827000000E+00  0.93827000000E+00 0.  1.
     999902    2    1    2    0    0 -0.51940191069E-02 -0.23098089420E-01 -0.22249071204E-02  0.10201508120E+01  0.10198736341E+01 0.  0.
     999903    2    3    3    0    0  0.52710628929E-01 -0.28376761626E-01  0.11431453718E+00  0.13056537221E+00  0.19896029958E-01 0.  0.
         14    1    1    2    0    0  0.51940191069E-02  0.23098089420E-01  0.22249071204E-02  0.23779187981E-01  0.00000000000E+00 0. -1.
     999901    1    3    3    0    0 -0.57904648035E-01  0.52786722060E-02 -0.11653944430E+00  0.88958543981E+00  0.88000000000E+00 0.  1.
        -11    1    4    4    0    0  0.27462087180E-01 -0.25671988283E-01  0.64794646677E-01  0.74912112330E-01  0.51100000000E-03 0. -1.
         11    1    4    4    0    0  0.25248541748E-01 -0.27047733433E-02  0.49519890498E-01  0.55653259879E-01  0.51100000000E-03 0.  1.
</event>
<event>
 8    1  0.1064884E+005  0.1043930E+01  0.7957747E-01            NaN
         13   -1    0    0    0    0  0.00000000000E+00  0.00000000000E+00  0.74505805969E-08  0.10566000000E+00  0.10566000000E+00 0. -1.
     999900   -1    0    0    0    0 -0.00000000000E+00 -0.00000000000E+00 -0.74505805969E-08  0.93827000000E+00  0.93827000000E+00 0.  1.
     999902    2    1    2    0    0 -0.16908013983E-01 -0.15060145542E-01 -0.67401018767E-02  0.10203054811E+01  0.10200319391E+01 0.  0.
     999903    2    3    3    0    0 -0.11710894193E+00  0.55756695198E-01 -0.12381304582E-01  0.13177462959E+00  0.19696267682E-01 0.  0.
         14    1    1    2    0    0  0.16908013983E-01  0.15060145542E-01  0.67401018767E-02  0.23624518914E-01  0.00000000000E+00 0. -1.
     999901    1    3    3    0    0  0.10020092795E+00 -0.70816840741E-01  0.56412027053E-02  0.88853085150E+00  0.88000000000E+00 0.  1.
        -11    1    4    4    0    0 -0.20977423439E-01  0.37366658623E-02  0.25050309296E-02  0.21460458216E-01  0.51100000000E-03 0.  1.
         11    1    4    4    0    0 -0.96131518492E-01  0.52020029336E-01 -0.14886335512E-01  0.11031417137E+00  0.51100000000E-03 0. -1.
</event>
<event>
 8    1  0.1064884E+005  0.1043930E+01  0.7957747E-01            NaN
         13   -1    0    0    0    0  0.00000000000E+00  0.00000000000E+00  0.74505805969E-08  0.10566000000E+00  0.10566000000E+00 0. -1.
     999900   -1    0    0    0    0 -0.00000000000E+00 -0.00000000000E+00 -0.74505805969E-08  0.93827000000E+00  0.93827000000E+00 0. -1.
     999902    2    1    2    0    0 -0.56830326152E-02 -0.22286396967E-01 -0.44432424065E-02  0.10205051680E+01  0.10202362840E+01 0.  0.
     999903    2    3    3    0    0  0.64637318325E-01  0.10557850322E+00 -0.27087467606E-01  0.12820076628E+00  0.19413972038E-01 0.  0.
         14    1    1    2    0    0  0.56830326152E-02  0.22286396967E-01  0.44432424065E-02  0.23424831965E-01  0.00000000000E+00 0. -1.
     999901    1    3    3    0    0 -0.70320350940E-01 -0.12786490019E+00  0.22644225200E-01  0.89230440176E+00  0.88000000000E+00 0.  1.
        -11    1    4    4    0    0  0.40446720593E-01  0.77205934241E-01 -0.25763842761E-01  0.90888559256E-01  0.51100000000E-03 0. -1.
         11    1    4    4    0    0  0.24190597731E-01  0.28372568982E-01 -0.13236248451E-02  0.37312207024E-01  0.51100000000E-03 0.  1.
</event>
<event>
 8    1  0.1064884E+005  0.1043930E+01  0.7957747E-01            NaN
         13   -1    0    0    0    0  0.00000000000E+00  0.00000000000E+00  0.74505805969E-08  0.10566000000E+00  0.10566000000E+00 0. -1.
     999900   -1    0    0    0    0 -0.00000000000E+00 -0.00000000000E+00 -0.74505805969E-08  0.93827000000E+00  0.93827000000E+00 0. -1.
     999902    2    1    2    0    0 -0.95580339288E-02  0.11323837171E-01  0.21913274504E-01  0.10174767034E+01  0.10171327667E+01 0.  0.
     999903    2    3    3    0    0  0.74065990550E-01  0.98860364918E-01  0.32105486188E-01  0.12913020438E+00  0.19613891321E-01 0.  0.
         14    1    1    2    0    0  0.95580339288E-02 -0.11323837171E-01 -0.21913274504E-01  0.26453296587E-01  0.00000000000E+00 0.  1.
     999901    1    3    3    0    0 -0.83624024479E-01 -0.87536527747E-01 -0.10192211685E-01  0.88834649903E+00  0.88000000000E+00 0. -1.
        -11    1    4    4    0    0  0.10488262666E-01  0.17000456661E-01 -0.18303719089E-02  0.20065656300E-01  0.51100000000E-03 0.  1.
         11    1    4    4    0    0  0.63577727883E-01  0.81859908257E-01  0.33935858097E-01  0.10906454808E+00  0.51100000000E-03 0. -1.
</event>
<event>
 8    1  0.1064884E+005  0.1043930E+01  0.7957747E-01            NaN
         13   -1    0    0    0    0  0.00000000000E+00  0.00000000000E+00  0.74505805969E-08  0.10566000000E+00  0.10566000000E+00 0.  1.
     999900   -1    0    0    0    0 -0.00000000000E+00 -0.00000000000E+00 -0.74505805969E-08  0.93827000000E+00  0.93827000000E+00 0. -1.
     999902    2    1    2    0    0 -0.24068596767E-02  0.91790672208E-02 -0.21282002955E-01  0.10206282426E+01  0.10203622091E+01 0.  0.
     999903    2    3    3    0    0  0.60136710177E-01 -0.10022742122E+00  0.50234781205E-01  0.12877840755E+00  0.19959587520E-01 0.  0.
         14    1    1    2    0    0  0.24068596767E-02 -0.91790672208E-02  0.21282002955E-01  0.23301757408E-01  0.00000000000E+00 0.  1.
     999901    1    3    3    0    0 -0.62543569854E-01  0.10940648844E+00 -0.71516784160E-01  0.89184983504E+00  0.88000000000E+00 0. -1.
        -11    1    4    4    0    0  0.89572483878E-02 -0.94704741299E-02 -0.13910160095E-03  0.13046173737E-01  0.51100000000E-03 0.  1.
         11    1    4    4    0    0  0.51179461789E-01 -0.90756947089E-01  0.50373882806E-01  0.11573223382E+00  0.51100000000E-03 0. -1.
</event>
<event>
 8    1  0.1064884E+005  0.1043930E+01  0.7957747E-01            NaN
         13   -1    0    0    0    0  0.00000000000E+00  0.00000000000E+00  0.74505805969E-08  0.10566000000E+00  0.10566000000E+00 0.  1.
     999900   -1    0    0    0    0 -0.00000000000E+00 -0.00000000000E+00 -0.74505805969E-08  0.93827000000E+00  0.93827000000E+00 0. -1.
     999902    2    1    2    0    0 -0.17712403576E-01  0.15752513270E-01 -0.24376467677E-03  0.10202249302E+01  0.10199494977E+01 0.  0.
     999903    2    3    3    0    0 -0.92394309897E-01 -0.84758807172E-01 -0.31455754853E-01  0.13081270796E+00  0.20043356925E-01 0.  0.
         14    1    1    2    0    0  0.17712403576E-01 -0.15752513270E-01  0.24376467677E-03  0.23705069837E-01  0.00000000000E+00 0. -1.
     999901    1    3    3    0    0  0.74681906321E-01  0.10051132044E+00  0.31211990176E-01  0.88941222220E+00  0.88000000000E+00 0.  1.
        -11    1    4    4    0    0 -0.62495597084E-01 -0.53580537784E-01 -0.11133542428E-01  0.83070997177E-01  0.51100000000E-03 0. -1.
         11    1    4    4    0    0 -0.29898712813E-01 -0.31178269388E-01 -0.20322212425E-01  0.47741710786E-01  0.51100000000E-03 0.  1.
</event>
<event>
 8    1  0.1064884E+005  0.1043930E+01  0.7957747E-01            NaN
         13   -1    0    0    0    0  0.00000000000E+00  0.00000000000E+00  0.74505805969E-08  0.10566000000E+00  0.10566000000E+00 0. -1.
     999900   -1    0    0    0    0 -0.00000000000E+00 -0.00000000000E+00 -0.74505805969E-08  0.93827000000E+00  0.93827000000E+00 0.  1.
     999902    2    1    2    0    0 -0.85720531703E-02  0.15395931939E-01 -0.14796805722E-01  0.10209199962E+01  0.10206606578E+01 0.  0.
     999903    2    3    3    0    0 -0.83212730381E-01  0.56425814583E-01  0.82311703481E-01  0.13149054731E+00  0.20157292827E-01 0.  0.
         14    1    1    2    0    0  0.85720531703E-02 -0.15395931939E-01  0.14796805722E-01  0.23010003812E-01  0.00000000000E+00 0. -1.
     999901    1    3    3    0    0  0.74640677211E-01 -0.41029882644E-01 -0.97108509204E-01  0.88942944887E+00  0.88000000000E+00 0.  1.
        -11    1    4    4    0    0 -0.13684989917E-01  0.31943587107E-02  0.58176862159E-02  0.15218063954E-01  0.51100000000E-03 0. -1.
         11    1    4    4    0    0 -0.69527740465E-01  0.53231455873E-01  0.76494017266E-01  0.11627248336E+00  0.51100000000E-03 0.  1.
</event>
<event>
 8    1  0.1064884E+005  0.1043930E+01  0.7957747E-01            NaN
         13   -1    0    0    0    0  0.00000000000E+00  0.00000000000E+00  0.74505805969E-08  0.10566000000E+00  0.10566000000E+00 0.  1.
     999900   -1    0    0    0    0 -0.00000000000E+00 -0.00000000000E+00 -0.74505805969E-08  0.93827000000E+00  0.93827000000E+00 0.  1.
     999902    2    1    2    0    0  0.15287325499E-01 -0.21727520107E-02  0.18241638804E-01  0.10200306159E+01  0.10197505954E+01 0.  0.
     999903    2    3    3    0    0  0.85651858477E-01 -0.23912400732E-01 -0.92758264526E-01  0.13000547114E+00  0.19730259004E-01 0.  0.
         14    1    1    2    0    0 -0.15287325499E-01  0.21727520107E-02 -0.18241638804E-01  0.23899384061E-01  0.00000000000E+00 0. -1.
     999901    1    3    3    0    0 -0.70364532978E-01  0.21739648721E-01  0.11099990333E+00  0.89002514479E+00  0.88000000000E+00 0.  1.
        -11    1    4    4    0    0  0.68168063008E-02 -0.38301924711E-02 -0.19303354067E-02  0.80701015044E-02  0.51100000000E-03 0. -1.
         11    1    4    4    0    0  0.78835052176E-01 -0.20082208261E-01 -0.90827929119E-01  0.12193536964E+00  0.51100000000E-03 0.  1.
</event>
<event>
 8    1  0.1064884E+005  0.1043930E+01  0.7957747E-01            NaN
         13   -1    0    0    0    0  0.00000000000E+00  0.00000000000E+00  0.74505805969E-08  0.10566000000E+00  0.10566000000E+00 0.  1.
     999900   -1    0    0    0    0 -0.00000000000E+00 -0.00000000000E+00 -0.74505805969E-08  0.93827000000E+00  0.93827000000E+00 0. -1.
     999902    2    1    2    0    0 -0.15454704516E-01  0.74275378142E-02  0.17050953719E-01  0.10197483699E+01  0.10194616161E+01 0.  0.
     999903    2    3    3    0    0  0.11076972128E+00 -0.54530561266E-01  0.28821847560E-01  0.12850768098E+00  0.20976460845E-01 0.  0.
         14    1    1    2    0    0  0.15454704516E-01 -0.74275378142E-02 -0.17050953719E-01  0.24181630061E-01  0.00000000000E+00 0. -1.
     999901    1    3    3    0    0 -0.12622442580E+00  0.61958099081E-01 -0.11770893840E-01  0.89124068896E+00  0.88000000000E+00 0. -1.
        -11    1    4    4    0    0  0.10264596191E+00 -0.54541147008E-01  0.22977244672E-01  0.11848689846E+00  0.51100000000E-03 0. -1.
         11    1    4    4    0    0  0.81237593707E-02  0.10585741729E-04  0.58446028874E-02  0.10020782518E-01  0.51100000000E-03 0.  1.
</event>
<event>
 8    1  0.1064884E+005  0.1043930E+01  0.7957747E-01            NaN
         13   -1    0    0    0    0  0.00000000000E+00  0.00000000000E+00  0.74505805969E-08  0.10566000000E+00  0.10566000000E+00 0. -1.
     999900   -1    0    0    0    0 -0.00000000000E+00 -0.00000000000E+00 -0.74505805969E-08  0.93827000000E+00  0.93827000000E+00 0.  1.
     999902    2    1    2    0    0  0.19960851199E-01  0.14934697547E-01 -0.22151150699E-02  0.10189022653E+01  0.10185948354E+01 0.  0.
     999903    2    3    3    0    0 -0.61634395768E-01  0.63381124708E-01 -0.92432266530E-01  0.12921469367E+00  0.18350679888E-01 0.  0.
         14    1    1    2    0    0 -0.19960851199E-01 -0.14934697547E-01  0.22151150699E-02  0.25027734739E-01  0.00000000000E+00 0. -1.
     999901    1    3    3    0    0  0.81595246967E-01 -0.48446427162E-01  0.90217151461E-01  0.88968757159E+00  0.88000000000E+00 0. -1.
        -11    1    4    4    0    0 -0.31950397732E-01  0.40987053104E-01 -0.43620322209E-01  0.67851013758E-01  0.51100000000E-03 0.  1.
         11    1    4    4    0    0 -0.29683998037E-01  0.22394071604E-01 -0.48811944322E-01  0.61363679909E-01  0.51100000000E-03 0. -1.
</event>
<event>
 8    1  0.1064884E+005  0.1043930E+01  0.7957747E-01            NaN
         13   -1    0    0    0    0  0.00000000000E+00  0.00000000000E+00  0.74505805969E-08  0.10566000000E+00  0.10566000000E+00 0.  1.
     999900   -1    0    0    0    0 -0.00000000000E+00 -0.00000000000E+00 -0.74505805969E-08  0.93827000000E+00  0.93827000000E+00 0.  1.
     999902    2    1    2    0    0  0.38368103133E-04 -0.25892060683E-02  0.23016563216E-01  0.10207682289E+01  0.10205054186E+01 0.  0.
     999903    2    3    3    0    0 -0.21098761058E-02  0.28981908323E-01 -0.12320458392E+00  0.12814178174E+00  0.19913416150E-01 0.  0.
         14    1    1    2    0    0 -0.38368103133E-04  0.25892060683E-02 -0.23016563216E-01  0.23161771142E-01  0.00000000000E+00 0. -1.
     999901    1    3    3    0    0  0.21482442089E-02 -0.31571114392E-01  0.14622114713E+00  0.89262644711E+00  0.88000000000E+00 0. -1.
        -11    1    4    4    0    0 -0.95549799660E-02  0.91349687922E-02 -0.61150967289E-01  0.62565543379E-01  0.51100000000E-03 0.  1.
         11    1    4    4    0    0  0.74451038602E-02  0.19846939531E-01 -0.62053616630E-01  0.65576238365E-01  0.51100000000E-03 0. -1.
</event>
<event>
 8    1  0.1064884E+005  0.1043930E+01  0.7957747E-01            NaN
         13   -1    0    0    0    0  0.00000000000E+00  0.00000000000E+00  0.74505805969E-08  0.10566000000E+00  0.10566000000E+00 0. -1.
     999900   -1    0    0    0    0 -0.00000000000E+00 -0.00000000000E+00 -0.74505805969E-08  0.93827000000E+00  0.93827000000E+00 0.  1.
     999902    2    1    2    0    0  0.14174057999E-01 -0.81994742387E-02  0.16781093848E-01  0.10204834564E+01  0.10202140679E+01 0.  0.
     999903    2    3    3    0    0  0.55644078926E-01 -0.96757049423E-01 -0.65500697574E-01  0.13125204668E+00  0.21876202662E-01 0.  0.
         14    1    1    2    0    0 -0.14174057999E-01  0.81994742387E-02 -0.16781093848E-01  0.23446543641E-01  0.00000000000E+00 0.  1.
     999901    1    3    3    0    0 -0.41470020926E-01  0.88557575184E-01  0.82281791422E-01  0.88923140968E+00  0.88000000000E+00 0. -1.
        -11    1    4    4    0    0  0.43309474810E-01 -0.56092430851E-01 -0.46043700842E-01  0.84512454202E-01  0.51100000000E-03 0. -1.
         11    1    4    4    0    0  0.12334604116E-01 -0.40664618572E-01 -0.19456996732E-01  0.46739592479E-01  0.51100000000E-03 0.  1.
</event>
<event>
 8    1  0.1064884E+005  0.1043930E+01  0.7957747E-01            NaN
         13   -1    0    0    0    0  0.00000000000E+00  0.00000000000E+00  0.74505805969E-08  0.10566000000E+00  0.10566000000E+00 0. -1.
     999900   -1    0    0    0    0 -0.00000000000E+00 -0.00000000000E+00 -0.74505805969E-08  0.93827000000E+00  0.93827000000E+00 0.  1.
     999902    2    1    2    0    0  0.15155801988E-01 -0.80544944432E-02 -0.15840953083E-01  0.10205738657E+01  0.10203065747E+01 0.  0.
     999903    2    3    3    0    0 -0.86999171018E-01  0.23883598244E-01 -0.93877584021E-01  0.13066072610E+00  0.10951828166E-01 0.  0.
         14    1    1    2    0    0 -0.15155801988E-01  0.80544944432E-02  0.15840953083E-01  0.23356134295E-01  0.00000000000E+00 0. -1.
     999901    1    3    3    0    0  0.10215497301E+00 -0.31938092687E-01  0.78036630938E-01  0.88991313961E+00  0.88000000000E+00 0. -1.
        -11    1    4    4    0    0 -0.77354086858E-01  0.17986137111E-01 -0.84493839403E-01  0.11595958736E+00  0.51100000000E-03 0. -1.
         11    1    4    4    0    0 -0.96450841600E-02  0.58974611333E-02 -0.93837446182E-02  0.14701138743E-01  0.51100000000E-03 0.  1.
</event>
<event>
 8    1  0.1064884E+005  0.1043930E+01  0.7957747E-01            NaN
         13   -1    0    0    0    0  0.00000000000E+00  0.00000000000E+00  0.74505805969E-08  0.10566000000E+00  0.10566000000E+00 0. -1.
     999900   -1    0    0    0    0 -0.00000000000E+00 -0.00000000000E+00 -0.74505805969E-08  0.93827000000E+00  0.93827000000E+00 0. -1.
     999902    2    1    2    0    0  0.58041995368E-02 -0.78610009249E-02 -0.25419512991E-01  0.10166970107E+01  0.10163322172E+01 0.  0.
     999903    2    3    3    0    0  0.37598777990E-01  0.11911301928E+00  0.35889229480E-02  0.12654264967E+00  0.19964527282E-01 0.  0.
         14    1    1    2    0    0 -0.58041995368E-02  0.78610009249E-02  0.25419512991E-01  0.27232989342E-01  0.00000000000E+00 0. -1.
     999901    1    3    3    0    0 -0.31794578453E-01 -0.12697402021E+00 -0.29008435939E-01  0.89015436099E+00  0.88000000000E+00 0. -1.
        -11    1    4    4    0    0  0.21269925620E-01  0.47076633952E-01  0.91608608613E-02  0.52467148701E-01  0.51100000000E-03 0. -1.
         11    1    4    4    0    0  0.16328852370E-01  0.72036385330E-01 -0.55719379133E-02  0.74075500972E-01  0.51100000000E-03 0.  1.
</event>
<event>
 8    1  0.1064884E+005  0.1043930E+01  0.7957747E-01            NaN
         13   -1    0    0    0    0  0.00000000000E+00  0.00000000000E+00  0.74505805969E-08  0.10566000000E+00  0.10566000000E+00 0.  1.
     999900   -1    0    0    0    0 -0.00000000000E+00 -0.00000000000E+00 -0.74505805969E-08  0.93827000000E+00  0.93827000000E+00 0.  1.
     999902    2    1    2    0    0 -0.14941675948E-01  0.16497727682E-01  0.79537731324E-02  0.10202933504E+01  0.10200195241E+01 0.  0.
     999903    2    3    3    0    0  0.62246484168E-01 -0.44297941994E-01  0.10302804700E+00  0.12973552346E+00  0.19483201058E-01 0.  0.
         14    1    1    2    0    0  0.14941675948E-01 -0.16497727682E-01 -0.79537731324E-02  0.23636649633E-01  0.00000000000E+00 0.  1.
     999901    1    3    3    0    0 -0.77188160115E-01  0.60795669676E-01 -0.95074273865E-01  0.89055782691E+00  0.88000000000E+00 0.  1.
        -11    1    4    4    0    0  0.16363747343E-01 -0.20270643974E-01  0.25208848910E-01  0.36254908890E-01  0.51100000000E-03 0.  1.
         11    1    4    4    0    0  0.45882736825E-01 -0.24027298019E-01  0.77819198087E-01  0.93480614571E-01  0.51100000000E-03 0. -1.
</event>
<event>
 8    1  0.1064884E+005  0.1043930E+01  0.7957747E-01            NaN
         13   -1    0    0    0    0  0.00000000000E+00  0.00000000000E+00  0.74505805969E-08  0.10566000000E+00  0.10566000000E+00 0.  1.
     999900   -1    0    0    0    0 -0.00000000000E+00 -0.00000000000E+00 -0.74505805969E-08  0.93827000000E+00  0.93827000000E+00 0.  1.
     999902    2    1    2    0    0  0.14079616769E-01 -0.11555157641E-01 -0.15179281831E-01  0.10202199204E+01  0.10199443701E+01 0.  0.
     999903    2    3    3    0    0  0.11684362803E+00 -0.30877278888E-01  0.48491224637E-01  0.13174498000E+00  0.19987524236E-01 0.  0.
         14    1    1    2    0    0 -0.14079616769E-01  0.11555157641E-01  0.15179281831E-01  0.23710079574E-01  0.00000000000E+00 0.  1.
     999901    1    3    3    0    0 -0.10276401126E+00  0.19322121246E-01 -0.63670506468E-01  0.88847494043E+00  0.88000000000E+00 0.  1.
        -11    1    4    4    0    0  0.55922291009E-01 -0.24083716086E-01  0.19517176924E-01  0.63941452348E-01  0.51100000000E-03 0. -1.
         11    1    4    4    0    0  0.60921337018E-01 -0.67935628014E-02  0.28974047713E-01  0.67803527648E-01  0.51100000000E-03 0.  1.
</event>
<event>
 8    1  0.1064884E+005  0.1043930E+01  0.7957747E-01            NaN
         13   -1    0    0    0    0  0.00000000000E+00  0.00000000000E+00  0.74505805969E-08  0.10566000000E+00  0.10566000000E+00 0.  1.
     999900   -1    0    0    0    0 -0.00000000000E+00 -0.00000000000E+00 -0.74505805969E-08  0.93827000000E+00  0.93827000000E+00 0.  1.
     999902    2    1    2    0    0  0.32096660067E-02 -0.12531379293E-01 -0.21947142395E-01  0.10184542374E+01  0.10181355603E+01 0.  0.
     999903    2    3    3    0    0 -0.70560938226E-01 -0.78570748384E-01  0.69886478828E-01  0.12815276353E+00  0.19667291926E-01 0.  0.
         14    1    1    2    0    0 -0.32096660067E-02  0.12531379293E-01  0.21947142395E-01  0.25475762642E-01  0.00000000000E+00 0.  1.
     999901    1    3    3    0    0  0.73770604233E-01  0.66039369091E-01 -0.91833621223E-01  0.89030147383E+00  0.88000000000E+00 0.  1.
        -11    1    4    4    0    0 -0.54569071771E-01 -0.47618430852E-01  0.43976667142E-01  0.84731971089E-01  0.51100000000E-03 0. -1.
         11    1    4    4    0    0 -0.15991866455E-01 -0.30952317533E-01  0.25909811686E-01  0.43420792438E-01  0.51100000000E-03 0.  1.
</event>
<event>
 7    1  0.1064884E+005  0.1043930E+01  0.7957747E-01            NaN
         13   -1    0    0    0    0  0.00000000000E+00  0.00000000000E+00  0.74505805969E-08  0.10566000000E+00  0.10566000000E+00 0. -1.
     999900   -1    0    0    0    0 -0.00000000000E+00 -0.00000000000E+00 -0.74505805969E-08  0.93827000000E+00  0.93827000000E+00 0. -1.
     999903    2    1    2    0    0 -0.47533085342E-01 -0.86784882165E-01  0.10644214412E-01  0.10090657896E+00  0.16668185357E-01 0.  0.
         14    1    1    2    0    0  0.15604156641E-01  0.31790248818E-01 -0.48340034575E-01  0.59923856411E-01  0.00000000000E+00 0.  1.
     999901    1    1    2    0    0  0.31928928702E-01  0.54994633347E-01  0.37695820163E-01  0.88309956463E+00  0.88000000000E+00 0.  1.
        -11    1    3    3    0    0 -0.44903502776E-01 -0.85724326714E-01  0.12348975513E-01  0.97558921014E-01  0.51100000000E-03 0.  1.
         11    1    3    3    0    0 -0.26295825668E-02 -0.10605554507E-02 -0.17047611004E-02  0.33476579498E-02  0.51100000000E-03 0. -1.
</event>
<event>
 8    1  0.1064884E+005  0.1043930E+01  0.7957747E-01            NaN
         13   -1    0    0    0    0  0.00000000000E+00  0.00000000000E+00  0.74505805969E-08  0.10566000000E+00  0.10566000000E+00 0. -1.
     999900   -1    0    0    0    0 -0.00000000000E+00 -0.00000000000E+00 -0.74505805969E-08  0.93827000000E+00  0.93827000000E+00 0.  1.
     999902    2    1    2    0    0 -0.84367711992E-02 -0.14350480010E-01  0.95145610502E-02  0.10247560005E+01  0.10245766044E+01 0.  0.
     999903    2    3    3    0    0 -0.39902793302E-03 -0.67911571920E-01  0.11665079619E+00  0.13660535519E+00  0.21011282462E-01 0.  0.
         14    1    1    2    0    0  0.84367711992E-02  0.14350480010E-01 -0.95145610502E-02  0.19173999498E-01  0.00000000000E+00 0.  1.
     999901    1    3    3    0    0 -0.80377432662E-02  0.53561091911E-01 -0.10713623514E+00  0.88815064531E+00  0.88000000000E+00 0. -1.
        -11    1    4    4    0    0  0.62977726863E-02 -0.46278343803E-01  0.63491872277E-01  0.78821481920E-01  0.51100000000E-03 0.  1.
         11    1    4    4    0    0 -0.66968006193E-02 -0.21633228118E-01  0.53158923916E-01  0.57783873272E-01  0.51100000000E-03 0. -1.
</event>
<event>
 8    1  0.1064884E+005  0.1043930E+01  0.7957747E-01            NaN
         13   -1    0    0    0    0  0.00000000000E+00  0.00000000000E+00  0.74505805969E-08  0.10566000000E+00  0.10566000000E+00 0.  1.
     999900   -1    0    0    0    0 -0.00000000000E+00 -0.00000000000E+00 -0.74505805969E-08  0.93827000000E+00  0.93827000000E+00 0.  1.
     999902    2    1    2    0    0  0.23380103024E-01  0.52604565581E-02  0.21878877751E-02  0.10198657428E+01  0.10195817990E+01 0.  0.
     999903    2    3    3    0    0  0.75214918182E-01  0.10450927149E+00  0.25467674145E-01  0.13246553785E+00  0.17861818119E-01 0.  0.
         14    1    1    2    0    0 -0.23380103024E-01 -0.52604565581E-02 -0.21878877751E-02  0.24064257178E-01  0.00000000000E+00 0. -1.
     999901    1    3    3    0    0 -0.51834815158E-01 -0.99248814936E-01 -0.23279786370E-01  0.88740020497E+00  0.88000000000E+00 0. -1.
        -11    1    4    4    0    0  0.28763448949E-01  0.38208667462E-01  0.18241184095E-01  0.51188281695E-01  0.51100000000E-03 0.  1.
         11    1    4    4    0    0  0.46451469233E-01  0.66300604032E-01  0.72264900507E-02  0.81277256157E-01  0.51100000000E-03 0. -1.
</event>
<event>
 7    1  0.1064884E+005  0.1043930E+01  0.7957747E-01            NaN
         13   -1    0    0    0    0  0.00000000000E+00  0.00000000000E+00  0.74505805969E-08  0.10566000000E+00  0.10566000000E+00 0. -1.
     999900   -1    0    0    0    0 -0.00000000000E+00 -0.00000000000E+00 -0.74505805969E-08  0.93827000000E+00  0.93827000000E+00 0.  1.
     999903    2    1    2    0    0 -0.10194477195E+00  0.23099187252E-01  0.18729472444E-02  0.10587357978E+00  0.16715202239E-01 0.  0.
         14    1    1    2    0    0 -0.14090896764E-01 -0.23130448070E-01  0.41301160306E-01  0.49389845537E-01  0.00000000000E+00 0. -1.
     999901    1    1    2    0    0  0.11603566871E+00  0.31260818732E-04 -0.43174107551E-01  0.88866657468E+00  0.88000000000E+00 0.  1.
        -11    1    3    3    0    0 -0.79154782202E-01  0.14051660193E-01 -0.45445499932E-02  0.80522312158E-01  0.51100000000E-03 0. -1.
         11    1    3    3    0    0 -0.22789989744E-01  0.90475270583E-02  0.64174972375E-02  0.25351267625E-01  0.51100000000E-03 0.  1.
</event>
<event>
 8    1  0.1064884E+005  0.1043930E+01  0.7957747E-01            NaN
         13   -1    0    0    0    0  0.00000000000E+00  0.00000000000E+00  0.74505805969E-08  0.10566000000E+00  0.10566000000E+00 0. -1.
     999900   -1    0    0    0    0 -0.00000000000E+00 -0.00000000000E+00 -0.74505805969E-08  0.93827000000E+00  0.93827000000E+00 0.  1.
     999902    2    1    2    0    0 -0.66871113768E-02  0.13060023708E-01  0.18053977390E-01  0.10206656974E+01  0.10204005282E+01 0.  0.
     999903    2    3    3    0    0  0.36419788702E-01  0.61016304339E-01 -0.10640064051E+00  0.12957257001E+00  0.20458841493E-01 0.  0.
         14    1    1    2    0    0  0.66871113768E-02 -0.13060023708E-01 -0.18053977390E-01  0.23264302642E-01  0.00000000000E+00 0.  1.
     999901    1    3    3    0    0 -0.43106900079E-01 -0.47956280631E-01  0.12445461790E+00  0.89109312735E+00  0.88000000000E+00 0. -1.
        -11    1    4    4    0    0  0.29779810987E-01  0.30721993064E-01 -0.65566196736E-01  0.78293456148E-01  0.51100000000E-03 0. -1.
         11    1    4    4    0    0  0.66399777152E-02  0.30294311274E-01 -0.40834443771E-01  0.51279113865E-01  0.51100000000E-03 0.  1.
</event>
<event>
 8    1  0.1064884E+005  0.1043930E+01  0.7957747E-01            NaN
         13   -1    0    0    0    0  0.00000000000E+00  0.00000000000E+00  0.74505805969E-08  0.10566000000E+00  0.10566000000E+00 0. -1.
     999900   -1    0    0    0    0 -0.00000000000E+00 -0.00000000000E+00 -0.74505805969E-08  0.93827000000E+00  0.93827000000E+00 0. -1.
     999902    2    1    2    0    0  0.21396392703E-01  0.40343055333E-02  0.76403421720E-02  0.10208549904E+01  0.10205941678E+01 0.  0.
     999903    2    3    3    0    0  0.74341393698E-01 -0.10522535301E+00  0.21837741253E-01  0.13240554764E+00  0.21338330989E-01 0.  0.
         14    1    1    2    0    0 -0.21396392703E-01 -0.40343055333E-02 -0.76403421720E-02  0.23075009650E-01  0.00000000000E+00 0. -1.
     999901    1    3    3    0    0 -0.52945000995E-01  0.10925965854E+00 -0.14197399081E-01  0.88844944271E+00  0.88000000000E+00 0.  1.
        -11    1    4    4    0    0  0.38641613622E-01 -0.57882286070E-01  0.22377370290E-01  0.73106368848E-01  0.51100000000E-03 0. -1.
         11    1    4    4    0    0  0.35699780076E-01 -0.47343066939E-01 -0.53962903730E-03  0.59299178790E-01  0.51100000000E-03 0.  1.
</event>
<event>
 8    1  0.1064884E+005  0.1043930E+01  0.7957747E-01            NaN
         13   -1    0    0    0    0  0.00000000000E+00  0.00000000000E+00  0.74505805969E-08  0.10566000000E+00  0.10566000000E+00 0. -1.
     999900   -1    0    0    0    0 -0.00000000000E+00 -0.00000000000E+00 -0.74505805969E-08  0.93827000000E+00  0.93827000000E+00 0. -1.
     999902    2    1    2    0    0  0.18329065065E-01 -0.11457411290E-01  0.14118530312E-01  0.10181121806E+01  0.10177847771E+01 0.  0.
     999903    2    3    3    0    0  0.39831956974E-02 -0.74235045648E-01 -0.10241524512E+00  0.12809703683E+00  0.19830798317E-01 0.  0.
         14    1    1    2    0    0 -0.18329065065E-01  0.11457411290E-01 -0.14118530312E-01  0.25817819385E-01  0.00000000000E+00 0.  1.
     999901    1    3    3    0    0  0.14345869368E-01  0.62777634358E-01  0.11653377543E+00  0.89001514378E+00  0.88000000000E+00 0.  1.
        -11    1    4    4    0    0 -0.49516686264E-02 -0.56703455158E-01 -0.81115292301E-01  0.99094664918E-01  0.51100000000E-03 0.  1.
         11    1    4    4    0    0  0.89348643238E-02 -0.17531590490E-01 -0.21299952821E-01  0.29002371916E-01  0.51100000000E-03 0. -1.
</event>
<event>
 8    1  0.1064884E+005  0.1043930E+01  0.7957747E-01            NaN
         13   -1    0    0    0    0  0.00000000000E+00  0.00000000000E+00  0.74505805969E-08  0.10566000000E+00  0.10566000000E+00 0.  1.
     999900   -1    0    0    0    0 -0.00000000000E+00 -0.00000000000E+00 -0.74505805969E-08  0.93827000000E+00  0.93827000000E+00 0.  1.
     999902    2    1    2    0    0 -0.99026119761E-02 -0.18799406892E-01  0.43895547637E-03  0.10226774212E+01  0.10224565691E+01 0.  0.
     999903    2    3    3    0    0 -0.11675425670E-01 -0.13322725741E+00 -0.17542534854E-02  0.13526450379E+00  0.20188880563E-01 0.  0.
         14    1    1    2    0    0  0.99026119761E-02  0.18799406892E-01 -0.43895547637E-03  0.21252578793E-01  0.00000000000E+00 0. -1.
     999901    1    3    3    0    0  0.17728136935E-02  0.11442785052E+00  0.21932089618E-02  0.88741291742E+00  0.88000000000E+00 0. -1.
        -11    1    4    4    0    0 -0.77891706873E-02 -0.93564883379E-01 -0.10455028279E-01  0.94470245681E-01  0.51100000000E-03 0. -1.
         11    1    4    4    0    0 -0.38862549823E-02 -0.39662374027E-01  0.87007747932E-02  0.40794258104E-01  0.51100000000E-03 0.  1.
</event>
<event>
 8    1  0.1064884E+005  0.1043930E+01  0.7957747E-01            NaN
         13   -1    0    0    0    0  0.00000000000E+00  0.00000000000E+00  0.74505805969E-08  0.10566000000E+00  0.10566000000E+00 0. -1.
     999900   -1    0    0    0    0 -0.00000000000E+00 -0.00000000000E+00 -0.74505805969E-08  0.93827000000E+00  0.93827000000E+00 0.  1.
     999902    2    1    2    0    0  0.16318722864E-01 -0.52182571689E-02 -0.16006928991E-01  0.10204831943E+01  0.10202137997E+01 0.  0.
     999903    2    3    3    0    0  0.13334174616E-01 -0.82662740118E-01 -0.10132080348E+00  0.13296699010E+00  0.20084482123E-01 0.  0.
         14    1    1    2    0    0 -0.16318722864E-01  0.52182571689E-02  0.16006928991E-01  0.23446805742E-01  0.00000000000E+00 0.  1.
     999901    1    3    3    0    0  0.29845482480E-02  0.77444482949E-01  0.85313874486E-01  0.88751620416E+00  0.88000000000E+00 0. -1.
        -11    1    4    4    0    0  0.15427293524E-01 -0.48821695917E-01 -0.70581221812E-01  0.87198218853E-01  0.51100000000E-03 0.  1.
         11    1    4    4    0    0 -0.20931189086E-02 -0.33841044200E-01 -0.30739581665E-01  0.45768771245E-01  0.51100000000E-03 0. -1.
</event>
<event>
 8    1  0.1064884E+005  0.1043930E+01  0.7957747E-01            NaN
         13   -1    0    0    0    0  0.00000000000E+00  0.00000000000E+00  0.74505805969E-08  0.10566000000E+00  0.10566000000E+00 0.  1.
     999900   -1    0    0    0    0 -0.00000000000E+00 -0.00000000000E+00 -0.74505805969E-08  0.93827000000E+00  0.93827000000E+00 0.  1.
     999902    2    1    2    0    0  0.24412187269E-01  0.33390191124E-02  0.36617131200E-03  0.10192878001E+01  0.10189898829E+01 0.  0.
     999903    2    3    3    0    0 -0.10893583073E+00 -0.61290791353E-01  0.41811351599E-02  0.12689032122E+00  0.21449834694E-01 0.  0.
         14    1    1    2    0    0 -0.24412187269E-01 -0.33390191124E-02 -0.36617131200E-03  0.24642199928E-01  0.00000000000E+00 0.  1.
     999901    1    3    3    0    0  0.13334801800E+00  0.64629810465E-01 -0.38149638479E-02  0.89239747885E+00  0.88000000000E+00 0. -1.
        -11    1    4    4    0    0 -0.10081270207E+00 -0.49067973352E-01  0.43327999982E-02  0.11220472889E+00  0.51100000000E-03 0. -1.
         11    1    4    4    0    0 -0.81231286518E-02 -0.12222818001E-01 -0.15166483832E-03  0.14685592334E-01  0.51100000000E-03 0.  1.
</event>
<event>
 8    1  0.1064884E+005  0.1043930E+01  0.7957747E-01            NaN
         13   -1    0    0    0    0  0.00000000000E+00  0.00000000000E+00  0.74505805969E-08  0.10566000000E+00  0.10566000000E+00 0. -1.
     999900   -1    0    0    0    0 -0.00000000000E+00 -0.00000000000E+00 -0.74505805969E-08  0.93827000000E+00  0.93827000000E+00 0.  1.
     999902    2    1    2    0    0  0.80815799140E-02 -0.21021867694E-01 -0.44014795307E-02  0.10209821487E+01  0.10207242253E+01 0.  0.
     999903    2    3    3    0    0 -0.26640579098E-01  0.92195331154E-01  0.83195761378E-01  0.12873944686E+00  0.21038320426E-01 0.  0.
         14    1    1    2    0    0 -0.80815799140E-02  0.21021867694E-01  0.44014795307E-02  0.22947851257E-01  0.00000000000E+00 0.  1.
     999901    1    3    3    0    0  0.34722159012E-01 -0.11321719885E+00 -0.87597240909E-01  0.89224270188E+00  0.88000000000E+00 0.  1.
        -11    1    4    4    0    0 -0.12651846754E-01  0.14468130509E-01  0.17805317273E-01  0.26204703221E-01  0.51100000000E-03 0. -1.
         11    1    4    4    0    0 -0.13988732344E-01  0.77727200645E-01  0.65390444106E-01  0.10253474364E+00  0.51100000000E-03 0.  1.
</event>
<event>
 8    1  0.1064884E+005  0.1043930E+01  0.7957747E-01            NaN
         13   -1    0    0    0    0  0.00000000000E+00  0.00000000000E+00  0.74505805969E-08  0.10566000000E+00  0.10566000000E+00 0.  1.
     999900   -1    0    0    0    0 -0.00000000000E+00 -0.00000000000E+00 -0.74505805969E-08  0.93827000000E+00  0.93827000000E+00 0.  1.
     999902    2    1    2    0    0  0.22624762740E-01  0.60229414509E-02 -0.80153716549E-02  0.10191832447E+01  0.10188827629E+01 0.  0.
     999903    2    3    3    0    0  0.12756456726E+00 -0.25267205012E-01 -0.88857846564E-02  0.13239567523E+00  0.23205757504E-01 0.  0.
         14    1    1    2    0    0 -0.22624762740E-01 -0.60229414509E-02  0.80153716549E-02  0.24746755252E-01  0.00000000000E+00 0. -1.
     999901    1    3    3    0    0 -0.10493980452E+00  0.31290146463E-01  0.87041300148E-03  0.88678756952E+00  0.88000000000E+00 0. -1.
        -11    1    4    4    0    0  0.81623620442E-01 -0.27061261654E-01 -0.85229008387E-02  0.86415439917E-01  0.51100000000E-03 0. -1.
         11    1    4    4    0    0  0.45940946815E-01  0.17940566423E-02 -0.36288381769E-03  0.45980235310E-01  0.51100000000E-03 0.  1.
</event>
<event>
 8    1  0.1064884E+005  0.1043930E+01  0.7957747E-01            NaN
         13   -1    0    0    0    0  0.00000000000E+00  0.00000000000E+00  0.74505805969E-08  0.10566000000E+00  0.10566000000E+00 0. -1.
     999900   -1    0    0    0    0 -0.00000000000E+00 -0.00000000000E+00 -0.74505805969E-08  0.93827000000E+00  0.93827000000E+00 0. -1.
     999902    2    1    2    0    0 -0.73242528187E-03 -0.23776150916E-01 -0.38182388596E-02  0.10198380771E+01  0.10195534723E+01 0.  0.
     999903    2    3    3    0    0  0.62199696411E-01 -0.36586951499E-01  0.10707347734E+00  0.13055660242E+00  0.19310350413E-01 0.  0.
         14    1    1    2    0    0  0.73242528187E-03  0.23776150916E-01  0.38182388596E-02  0.24091922862E-01  0.00000000000E+00 0. -1.
     999901    1    3    3    0    0 -0.62932121693E-01  0.12810800582E-01 -0.11089171620E+00  0.88928147472E+00  0.88000000000E+00 0. -1.
        -11    1    4    4    0    0  0.56393846552E-02 -0.95209586298E-03  0.19831441138E-01  0.20645975986E-01  0.51100000000E-03 0.  1.
         11    1    4    4    0    0  0.56560311756E-01 -0.35634855636E-01  0.87242036200E-01  0.10991062644E+00  0.51100000000E-03 0. -1.
</event>
<event>
 8    1  0.1175544E+005  0.1043930E+01  0.7957747E-01            NaN
         13   -1    0    0    0    0  0.00000000000E+00  0.00000000000E+00  0.74505805969E-08  0.10566000000E+00  0.10566000000E+00 0. -1.
     999900   -1    0    0    0    0 -0.00000000000E+00 -0.00000000000E+00 -0.74505805969E-08  0.93827000000E+00  0.93827000000E+00 0. -1.
     999902    2    1    2    0    0 -0.97398832639E-02  0.10445440538E-01  0.18096490613E-01  0.10208766808E+01  0.10206163539E+01 0.  0.
     999903    2    3    3    0    0 -0.52002149761E-01  0.14338082584E-01 -0.11614632505E+00  0.12968512709E+00  0.20456274704E-01 0.  0.
         14    1    1    2    0    0  0.97398832639E-02 -0.10445440538E-01 -0.18096490613E-01  0.23053319209E-01  0.00000000000E+00 0.  1.
     999901    1    3    3    0    0  0.42262266497E-01 -0.38926420453E-02  0.13424281566E+00  0.89119155370E+00  0.88000000000E+00 0.  1.
        -11    1    4    4    0    0 -0.34995705213E-01  0.10676395957E-01 -0.54615568757E-01  0.65740446345E-01  0.51100000000E-03 0. -1.
         11    1    4    4    0    0 -0.17006444548E-01  0.36616866263E-02 -0.61530756289E-01  0.63944680745E-01  0.51100000000E-03 0.  1.
</event>
<event>
 8    1  0.1064884E+005  0.1043930E+01  0.7957747E-01            NaN
         13   -1    0    0    0    0  0.00000000000E+00  0.00000000000E+00  0.74505805969E-08  0.10566000000E+00  0.10566000000E+00 0.  1.
     999900   -1    0    0    0    0 -0.00000000000E+00 -0.00000000000E+00 -0.74505805969E-08  0.93827000000E+00  0.93827000000E+00 0.  1.
     999902    2    1    2    0    0  0.67794209378E-02 -0.19793680945E-01  0.10824953515E-01  0.10203730483E+01  0.10201010870E+01 0.  0.
     999903    2    3    3    0    0  0.46050277916E-01 -0.11877400257E+00  0.34887764751E-01  0.13362713029E+00  0.20277130865E-01 0.  0.
         14    1    1    2    0    0 -0.67794209378E-02  0.19793680945E-01 -0.10824953515E-01  0.23556951674E-01  0.00000000000E+00 0. -1.
     999901    1    3    3    0    0 -0.39270856979E-01  0.98980321626E-01 -0.24062811236E-01  0.88674591804E+00  0.88000000000E+00 0. -1.
        -11    1    4    4    0    0  0.13347056055E-01 -0.60224453471E-01  0.20778816531E-01  0.65093387057E-01  0.51100000000E-03 0.  1.
         11    1    4    4    0    0  0.32703221862E-01 -0.58549549100E-01  0.14108948220E-01  0.68533743228E-01  0.51100000000E-03 0. -1.
</event>
<event>
 8    1  0.1064884E+005  0.1043930E+01  0.7957747E-01            NaN
         13   -1    0    0    0    0  0.00000000000E+00  0.00000000000E+00  0.74505805969E-08  0.10566000000E+00  0.10566000000E+00 0. -1.
     999900   -1    0    0    0    0 -0.00000000000E+00 -0.00000000000E+00 -0.74505805969E-08  0.93827000000E+00  0.93827000000E+00 0.  1.
     999902    2    1    2    0    0 -0.15612161892E-01  0.14836268077E-01  0.74757945974E-02  0.10211321502E+01  0.10208776255E+01 0.  0.
     999903    2    3    3    0    0  0.12424692367E+00 -0.22639656202E-01  0.25204140422E-01  0.12912357238E+00  0.93699613365E-02 0.  0.
         14    1    1    2    0    0  0.15612161892E-01 -0.14836268077E-01 -0.74757945974E-02  0.22797849773E-01  0.00000000000E+00 0. -1.
     999901    1    3    3    0    0 -0.13985908556E+00  0.37475924279E-01 -0.17728345824E-01  0.89200857785E+00  0.88000000000E+00 0. -1.
        -11    1    4    4    0    0  0.93882724424E-01 -0.19375866498E-01  0.22449400037E-01  0.98456217837E-01  0.51100000000E-03 0. -1.
         11    1    4    4    0    0  0.30364199242E-01 -0.32637897035E-02  0.27547403854E-02  0.30667354539E-01  0.51100000000E-03 0.  1.
</event>
<event>
 8    1  0.1064884E+005  0.1043930E+01  0.7957747E-01            NaN
         13   -1    0    0    0    0  0.00000000000E+00  0.00000000000E+00  0.74505805969E-08  0.10566000000E+00  0.10566000000E+00 0. -1.
     999900   -1    0    0    0    0 -0.00000000000E+00 -0.00000000000E+00 -0.74505805969E-08  0.93827000000E+00  0.93827000000E+00 0. -1.
     999902    2    1    2    0    0 -0.72792544203E-02 -0.21745820022E-01 -0.61218387924E-02  0.10201951070E+01  0.10199189729E+01 0.  0.
     999903    2    3    3    0    0  0.52262948743E-01  0.23921289190E-02 -0.11816973529E+00  0.13076683807E+00  0.19968512918E-01 0.  0.
         14    1    1    2    0    0  0.72792544203E-02  0.21745820022E-01  0.61218387924E-02  0.23734892954E-01  0.00000000000E+00 0. -1.
     999901    1    3    3    0    0 -0.59542203163E-01 -0.24137948941E-01  0.11204789650E+00  0.88942826897E+00  0.88000000000E+00 0.  1.
        -11    1    4    4    0    0  0.20196822656E-01 -0.39078856093E-02 -0.66654059066E-01  0.69758210458E-01  0.51100000000E-03 0.  1.
         11    1    4    4    0    0  0.32066126086E-01  0.63000145282E-02 -0.51515676228E-01  0.61008627615E-01  0.51100000000E-03 0. -1.
</event>
<event>
 8    1  0.1064884E+005  0.1043930E+01  0.7957747E-01            NaN
         13   -1    0    0    0    0  0.00000000000E+00  0.00000000000E+00  0.74505805969E-08  0.10566000000E+00  0.10566000000E+00 0.  1.
     999900   -1    0    0    0    0 -0.00000000000E+00 -0.00000000000E+00 -0.74505805969E-08  0.93827000000E+00  0.93827000000E+00 0.  1.
     999902    2    1    2    0    0  0.14844308642E-01 -0.13667004887E-01  0.17366495271E-04  0.10237522691E+01  0.10235534025E+01 0.  0.
     999903    2    3    3    0    0 -0.10919992613E+00 -0.63941705951E-01 -0.34212078632E-01  0.13297386084E+00  0.22325226029E-01 0.  0.
         14    1    1    2    0    0 -0.14844308642E-01  0.13667004887E-01 -0.17366495271E-04  0.20177730875E-01  0.00000000000E+00 0. -1.
     999901    1    3    3    0    0  0.12404423477E+00  0.50274701063E-01  0.34229445127E-01  0.89077840828E+00  0.88000000000E+00 0. -1.
        -11    1    4    4    0    0 -0.36150995765E-01 -0.13678772684E-01 -0.18751962979E-01  0.42963944809E-01  0.51100000000E-03 0. -1.
         11    1    4    4    0    0 -0.73048930363E-01 -0.50262933266E-01 -0.15460115652E-01  0.90009916035E-01  0.51100000000E-03 0.  1.
</event>
<event>
 8    1  0.1064884E+005  0.1043930E+01  0.7957747E-01            NaN
         13   -1    0    0    0    0  0.00000000000E+00  0.00000000000E+00  0.74505805969E-08  0.10566000000E+00  0.10566000000E+00 0.  1.
     999900   -1    0    0    0    0 -0.00000000000E+00 -0.00000000000E+00 -0.74505805969E-08  0.93827000000E+00  0.93827000000E+00 0. -1.
     999902    2    1    2    0    0 -0.19608097920E-01 -0.12864631854E-01 -0.15215956415E-02  0.10204291168E+01  0.10201584636E+01 0.  0.
     999903    2    3    3    0    0 -0.49387403908E-01  0.37727640860E-01  0.11351885691E+00  0.13100194676E+00  0.20309816148E-01 0.  0.
         14    1    1    2    0    0  0.19608097920E-01  0.12864631854E-01  0.15215956415E-02  0.23500883177E-01  0.00000000000E+00 0. -1.
     999901    1    3    3    0    0  0.29779305987E-01 -0.50592272715E-01 -0.11504045255E+00  0.88942717006E+00  0.88000000000E+00 0.  1.
        -11    1    4    4    0    0 -0.36958446297E-01  0.24724153021E-01  0.61018778645E-01  0.75503397033E-01  0.51100000000E-03 0. -1.
         11    1    4    4    0    0 -0.12428957611E-01  0.13003487840E-01  0.52500078262E-01  0.55498549727E-01  0.51100000000E-03 0.  1.
</event>
<event>
 8    1  0.1064884E+005  0.1043930E+01  0.7957747E-01            NaN
         13   -1    0    0    0    0  0.00000000000E+00  0.00000000000E+00  0.74505805969E-08  0.10566000000E+00  0.10566000000E+00 0. -1.
     999900   -1    0    0    0    0 -0.00000000000E+00 -0.00000000000E+00 -0.74505805969E-08  0.93827000000E+00  0.93827000000E+00 0. -1.
     999902    2    1    2    0    0 -0.22686915019E-01  0.54524188706E-02 -0.14979971757E-02  0.10205490466E+01  0.10202811807E+01 0.  0.
     999903    2    3    3    0    0 -0.78075687715E-01  0.47750594083E-02 -0.10528952315E+00  0.13271963970E+00  0.20248577058E-01 0.  0.
         14    1    1    2    0    0  0.22686915019E-01 -0.54524188706E-02  0.14979971757E-02  0.23380953362E-01  0.00000000000E+00 0. -1.
     999901    1    3    3    0    0  0.55388772697E-01  0.67735946232E-03  0.10379152597E+00  0.88782940694E+00  0.88000000000E+00 0.  1.
        -11    1    4    4    0    0 -0.54249016073E-01  0.41893978470E-02 -0.87239689787E-01  0.10281795268E+00  0.51100000000E-03 0. -1.
         11    1    4    4    0    0 -0.23826671643E-01  0.58566156128E-03 -0.18049833363E-01  0.29901687017E-01  0.51100000000E-03 0.  1.
</event>
<event>
 8    1  0.1064884E+005  0.1043930E+01  0.7957747E-01            NaN
         13   -1    0    0    0    0  0.00000000000E+00  0.00000000000E+00  0.74505805969E-08  0.10566000000E+00  0.10566000000E+00 0. -1.
     999900   -1    0    0    0    0 -0.00000000000E+00 -0.00000000000E+00 -0.74505805969E-08  0.93827000000E+00  0.93827000000E+00 0. -1.
     999902    2    1    2    0    0  0.11513981612E-01 -0.12162547086E-01 -0.15792722233E-01  0.10209102389E+01  0.10206506780E+01 0.  0.
     999903    2    3    3    0    0  0.99358470046E-01 -0.80684521521E-01  0.28219939115E-01  0.13279480190E+00  0.21354083110E-01 0.  0.
         14    1    1    2    0    0 -0.11513981612E-01  0.12162547086E-01  0.15792722233E-01  0.23019761070E-01  0.00000000000E+00 0. -1.
     999901    1    3    3    0    0 -0.87844488434E-01  0.68521974435E-01 -0.44012661348E-01  0.88811543703E+00  0.88000000000E+00 0. -1.
        -11    1    4    4    0    0  0.43591290792E-01 -0.22266956496E-01  0.12360401686E-01  0.50488202932E-01  0.51100000000E-03 0.  1.
         11    1    4    4    0    0  0.55767179254E-01 -0.58417565026E-01  0.15859537428E-01  0.82306598969E-01  0.51100000000E-03 0. -1.
</event>
<event>
 8    1  0.1064884E+005  0.1043930E+01  0.7957747E-01            NaN
         13   -1    0    0    0    0  0.00000000000E+00  0.00000000000E+00  0.74505805969E-08  0.10566000000E+00  0.10566000000E+00 0. -1.
     999900   -1    0    0    0    0 -0.00000000000E+00 -0.00000000000E+00 -0.74505805969E-08  0.93827000000E+00  0.93827000000E+00 0.  1.
     999902    2    1    2    0    0  0.19782915732E-01  0.12514745804E-01  0.11387536708E-01  0.10178981232E+01  0.10175651972E+01 0.  0.
     999903    2    3    3    0    0 -0.47472825189E-01  0.11440640105E-02 -0.11489030647E+00  0.12627111555E+00  0.22127676972E-01 0.  0.
         14    1    1    2    0    0 -0.19782915732E-01 -0.12514745804E-01 -0.11387536708E-01  0.26031876799E-01  0.00000000000E+00 0.  1.
     999901    1    3    3    0    0  0.67255740921E-01  0.11370681794E-01  0.12627784318E+00  0.89162700765E+00  0.88000000000E+00 0. -1.
        -11    1    4    4    0    0 -0.32966408735E-01  0.10453332639E-01 -0.67595409046E-01  0.75930604589E-01  0.51100000000E-03 0.  1.
         11    1    4    4    0    0 -0.14506416454E-01 -0.93092686282E-02 -0.47294897424E-01  0.50340510964E-01  0.51100000000E-03 0. -1.
</event>
<event>
 8    1  0.1064884E+005  0.1043930E+01  0.7957747E-01            NaN
         13   -1    0    0    0    0  0.00000000000E+00  0.00000000000E+00  0.74505805969E-08  0.10566000000E+00  0.10566000000E+00 0. -1.
     999900   -1    0    0    0    0 -0.00000000000E+00 -0.00000000000E+00 -0.74505805969E-08  0.93827000000E+00  0.93827000000E+00 0. -1.
     999902    2    1    2    0    0  0.19498038871E-01 -0.11187960345E-02 -0.13969889491E-01  0.10199178565E+01  0.10196351558E+01 0.  0.
     999903    2    3    3    0    0 -0.45963017241E-01  0.84908627687E-01  0.81846433785E-01  0.12814062235E+00  0.19977646568E-01 0.  0.
         14    1    1    2    0    0 -0.19498038871E-01  0.11187960345E-02  0.13969889491E-01  0.24012143527E-01  0.00000000000E+00 0. -1.
     999901    1    3    3    0    0  0.65461056112E-01 -0.86027423721E-01 -0.95816323276E-01  0.89177723413E+00  0.88000000000E+00 0. -1.
        -11    1    4    4    0    0 -0.22544707702E-01  0.57077539745E-01  0.59323004319E-01  0.85355663849E-01  0.51100000000E-03 0.  1.
         11    1    4    4    0    0 -0.23418309538E-01  0.27831087942E-01  0.22523429467E-01  0.42784958497E-01  0.51100000000E-03 0. -1.
</event>
<event>
 8    1  0.1064884E+005  0.1043930E+01  0.7957747E-01            NaN
         13   -1    0    0    0    0  0.00000000000E+00  0.00000000000E+00  0.74505805969E-08  0.10566000000E+00  0.10566000000E+00 0. -1.
     999900   -1    0    0    0    0 -0.00000000000E+00 -0.00000000000E+00 -0.74505805969E-08  0.93827000000E+00  0.93827000000E+00 0. -1.
     999902    2    1    2    0    0  0.18257244138E-02 -0.21958512674E-01  0.53400796836E-02  0.10212578585E+01  0.10210061643E+01 0.  0.
     999903    2    3    3    0    0 -0.73530890201E-01  0.92805033467E-01 -0.47198812595E-01  0.12906414295E+00  0.20254852134E-01 0.  0.
         14    1    1    2    0    0 -0.18257244138E-02  0.21958512674E-01 -0.53400796836E-02  0.22672141485E-01  0.00000000000E+00 0.  1.
     999901    1    3    3    0    0  0.75356614614E-01 -0.11476354614E+00  0.52538892278E-01  0.89219371556E+00  0.88000000000E+00 0. -1.
        -11    1    4    4    0    0 -0.51202379833E-01  0.48929155867E-01 -0.29960954690E-01  0.76900363597E-01  0.51100000000E-03 0.  1.
         11    1    4    4    0    0 -0.22328510367E-01  0.43875877600E-01 -0.17237857905E-01  0.52163779354E-01  0.51100000000E-03 0. -1.
</event>
<event>
 8    1  0.1064884E+005  0.1043930E+01  0.7957747E-01            NaN
         13   -1    0    0    0    0  0.00000000000E+00  0.00000000000E+00  0.74505805969E-08  0.10566000000E+00  0.10566000000E+00 0.  1.
     999900   -1    0    0    0    0 -0.00000000000E+00 -0.00000000000E+00 -0.74505805969E-08  0.93827000000E+00  0.93827000000E+00 0.  1.
     999902    2    1    2    0    0 -0.53799866602E-02 -0.24012006196E-01 -0.28672923070E-04  0.10193226531E+01  0.10190255883E+01 0.  0.
     999903    2    3    3    0    0  0.79810003380E-01 -0.64307215586E-02 -0.99746427976E-01  0.12942936366E+00  0.19789377533E-01 0.  0.
         14    1    1    2    0    0  0.53799866602E-02  0.24012006196E-01  0.28672923070E-04  0.24607346873E-01  0.00000000000E+00 0. -1.
     999901    1    3    3    0    0 -0.85189990040E-01 -0.17581284637E-01  0.99717755053E-01  0.88989328947E+00  0.88000000000E+00 0. -1.
        -11    1    4    4    0    0  0.22648816452E-01  0.59197619865E-02 -0.35753501023E-01  0.42738582394E-01  0.51100000000E-03 0. -1.
         11    1    4    4    0    0  0.57161186927E-01 -0.12350483545E-01 -0.63992926953E-01  0.86690781262E-01  0.51100000000E-03 0.  1.
</event>
<event>
 8    1  0.1064884E+005  0.1043930E+01  0.7957747E-01            NaN
         13   -1    0    0    0    0  0.00000000000E+00  0.00000000000E+00  0.74505805969E-08  0.10566000000E+00  0.10566000000E+00 0. -1.
     999900   -1    0    0    0    0 -0.00000000000E+00 -0.00000000000E+00 -0.74505805969E-08  0.93827000000E+00  0.93827000000E+00 0. -1.
     999902    2    1    2    0    0  0.22218949878E-01 -0.33296582979E-02 -0.86817370608E-02  0.10198438854E+01  0.10195594194E+01 0.  0.
     999903    2    3    3    0    0 -0.24565747822E-01 -0.11912337746E+00  0.40387135838E-01  0.12967269533E+00  0.19749231620E-01 0.  0.
         14    1    1    2    0    0 -0.22218949878E-01  0.33296582979E-02  0.86817370608E-02  0.24086114598E-01  0.00000000000E+00 0. -1.
     999901    1    3    3    0    0  0.46784697700E-01  0.11579371917E+00 -0.49068872899E-01  0.89017119007E+00  0.88000000000E+00 0. -1.
        -11    1    4    4    0    0  0.18341862956E-02 -0.28452049912E-01  0.57938879449E-02  0.29098344318E-01  0.51100000000E-03 0. -1.
         11    1    4    4    0    0 -0.26399934118E-01 -0.90671327553E-01  0.34593247893E-01  0.10057435102E+00  0.51100000000E-03 0.  1.
</event>
<event>
 8    1  0.1064884E+005  0.1043930E+01  0.7957747E-01            NaN
         13   -1    0    0    0    0  0.00000000000E+00  0.00000000000E+00  0.74505805969E-08  0.10566000000E+00  0.10566000000E+00 0. -1.
     999900   -1    0    0    0    0 -0.00000000000E+00 -0.00000000000E+00 -0.74505805969E-08  0.93827000000E+00  0.93827000000E+00 0. -1.
     999902    2    1    2    0    0  0.72489964160E-02 -0.22264287486E-01 -0.40055046053E-03  0.10205119111E+01  0.10202431837E+01 0.  0.
     999903    2    3    3    0    0  0.65239317697E-01 -0.65795428569E-01  0.92899111324E-01  0.13261402031E+00  0.19262048290E-01 0.  0.
         14    1    1    2    0    0 -0.72489964160E-02  0.22264287486E-01  0.40055046053E-03  0.23418088884E-01  0.00000000000E+00 0.  1.
     999901    1    3    3    0    0 -0.57990321281E-01  0.43531141083E-01 -0.93299661785E-01  0.88789789080E+00  0.88000000000E+00 0. -1.
        -11    1    4    4    0    0  0.26297104953E-01 -0.36632002043E-01  0.53766504810E-01  0.70175062972E-01  0.51100000000E-03 0. -1.
         11    1    4    4    0    0  0.38942212744E-01 -0.29163426526E-01  0.39132606514E-01  0.62438957340E-01  0.51100000000E-03 0.  1.
</event>
<event>
 8    1  0.1064884E+005  0.1043930E+01  0.7957747E-01            NaN
         13   -1    0    0    0    0  0.00000000000E+00  0.00000000000E+00  0.74505805969E-08  0.10566000000E+00  0.10566000000E+00 0.  1.
     999900   -1    0    0    0    0 -0.00000000000E+00 -0.00000000000E+00 -0.74505805969E-08  0.93827000000E+00  0.93827000000E+00 0. -1.
     999902    2    1    2    0    0 -0.88030978682E-03  0.13120959548E-02 -0.23670398499E-01  0.10202069246E+01  0.10199310686E+01 0.  0.
     999903    2    3    3    0    0  0.46665390750E-01  0.43489302920E-01  0.10921121177E+00  0.12796422625E+00  0.19462175135E-01 0.  0.
         14    1    1    2    0    0  0.88030978682E-03 -0.13120959548E-02  0.23670398499E-01  0.23723075395E-01  0.00000000000E+00 0.  1.
     999901    1    3    3    0    0 -0.47545700537E-01 -0.42177206965E-01 -0.13288161027E+00  0.89224269836E+00  0.88000000000E+00 0. -1.
        -11    1    4    4    0    0  0.28717322929E-01  0.15700958214E-01  0.64644292301E-01  0.72459301495E-01  0.51100000000E-03 0. -1.
         11    1    4    4    0    0  0.17948067821E-01  0.27788344706E-01  0.44566919466E-01  0.55504924751E-01  0.51100000000E-03 0.  1.
</event>
<event>
 8    1  0.1064884E+005  0.1043930E+01  0.7957747E-01            NaN
         13   -1    0    0    0    0  0.00000000000E+00  0.00000000000E+00  0.74505805969E-08  0.10566000000E+00  0.10566000000E+00 0. -1.
     999900   -1    0    0    0    0 -0.00000000000E+00 -0.00000000000E+00 -0.74505805969E-08  0.93827000000E+00  0.93827000000E+00 0. -1.
     999902    2    1    2    0    0  0.15902599858E-01  0.68462013644E-02 -0.16274951612E-01  0.10201679040E+01  0.10198911291E+01 0.  0.
     999903    2    3    3    0    0  0.19467044299E-01 -0.50809708446E-01  0.11484508510E+00  0.12857978542E+00  0.19564645713E-01 0.  0.
         14    1    1    2    0    0 -0.15902599858E-01 -0.68462013644E-02  0.16274951612E-01  0.23762095980E-01  0.00000000000E+00 0. -1.
     999901    1    3    3    0    0 -0.35644444411E-02  0.57655909810E-01 -0.13112003671E+00  0.89158811860E+00  0.88000000000E+00 0. -1.
        -11    1    4    4    0    0  0.62864401174E-02 -0.10728944772E-01  0.11470860212E-01  0.16925464256E-01  0.51100000000E-03 0.  1.
         11    1    4    4    0    0  0.13180604182E-01 -0.40080763674E-01  0.10337422489E+00  0.11165432117E+00  0.51100000000E-03 0. -1.
</event>
<event>
 8    1  0.1064884E+005  0.1043930E+01  0.7957747E-01            NaN
         13   -1    0    0    0    0  0.00000000000E+00  0.00000000000E+00  0.74505805969E-08  0.10566000000E+00  0.10566000000E+00 0. -1.
     999900   -1    0    0    0    0 -0.00000000000E+00 -0.00000000000E+00 -0.74505805969E-08  0.93827000000E+00  0.93827000000E+00 0.  1.
     999902    2    1    2    0    0  0.14481275018E-01  0.10410782479E-01  0.16799843360E-01  0.10194284397E+01  0.10191339545E+01 0.  0.
     999903    2    3    3    0    0  0.11139675089E+00  0.62652020153E-01  0.30006628510E-01  0.13246949168E+00  0.17699060283E-01 0.  0.
         14    1    1    2    0    0 -0.14481275018E-01 -0.10410782479E-01 -0.16799843360E-01  0.24501560255E-01  0.00000000000E+00 0. -1.
     999901    1    3    3    0    0 -0.96915475867E-01 -0.52241237674E-01 -0.13206785149E-01  0.88695894806E+00  0.88000000000E+00 0. -1.
        -11    1    4    4    0    0  0.42695638344E-01  0.33180830742E-01  0.16181670782E-01  0.56444598082E-01  0.51100000000E-03 0. -1.
         11    1    4    4    0    0  0.68701112542E-01  0.29471189411E-01  0.13824957728E-01  0.76024893600E-01  0.51100000000E-03 0.  1.
</event>
<event>
 8    1  0.1064884E+005  0.1043930E+01  0.7957747E-01            NaN
         13   -1    0    0    0    0  0.00000000000E+00  0.00000000000E+00  0.74505805969E-08  0.10566000000E+00  0.10566000000E+00 0. -1.
     999900   -1    0    0    0    0 -0.00000000000E+00 -0.00000000000E+00 -0.74505805969E-08  0.93827000000E+00  0.93827000000E+00 0.  1.
     999902    2    1    2    0    0  0.22501952917E-01 -0.84690351733E-02 -0.25326430429E-02  0.10197540466E+01  0.10194674290E+01 0.  0.
     999903    2    3    3    0    0  0.15947361814E-01 -0.62711238898E-01 -0.11258704602E+00  0.13121752459E+00  0.18846166589E-01 0.  0.
         14    1    1    2    0    0 -0.22501952917E-01  0.84690351733E-02  0.25326430429E-02  0.24175953397E-01  0.00000000000E+00 0. -1.
     999901    1    3    3    0    0  0.65545911033E-02  0.54242203725E-01  0.11005440298E+00  0.88853652201E+00  0.88000000000E+00 0. -1.
        -11    1    4    4    0    0  0.10443271445E-01 -0.13647322108E-01 -0.38758750064E-01  0.42400626726E-01  0.51100000000E-03 0. -1.
         11    1    4    4    0    0  0.55040903690E-02 -0.49063916790E-01 -0.73828295960E-01  0.88816897868E-01  0.51100000000E-03 0.  1.
</event>
<event>
 8    1  0.1064884E+005  0.1043930E+01  0.7957747E-01            NaN
         13   -1    0    0    0    0  0.00000000000E+00  0.00000000000E+00  0.74505805969E-08  0.10566000000E+00  0.10566000000E+00 0.  1.
     999900   -1    0    0    0    0 -0.00000000000E+00 -0.00000000000E+00 -0.74505805969E-08  0.93827000000E+00  0.93827000000E+00 0.  1.
     999902    2    1    2    0    0  0.13328486263E-01  0.17869321484E-01  0.75128875030E-02  0.10204054453E+01  0.10201342402E+01 0.  0.
     999903    2    3    3    0    0  0.10654234837E+00 -0.25006900096E-01  0.71697859820E-01  0.13212232310E+00  0.18414888279E-01 0.  0.
         14    1    1    2    0    0 -0.13328486263E-01 -0.17869321484E-01 -0.75128875030E-02  0.23524554725E-01  0.00000000000E+00 0. -1.
     999901    1    3    3    0    0 -0.93213862108E-01  0.42876221580E-01 -0.64184972317E-01  0.88828312217E+00  0.88000000000E+00 0.  1.
        -11    1    4    4    0    0  0.64164423771E-01 -0.82452628073E-02  0.49319041294E-01  0.81349164666E-01  0.51100000000E-03 0.  1.
         11    1    4    4    0    0  0.42377924600E-01 -0.16761637288E-01  0.22378818525E-01  0.50773158437E-01  0.51100000000E-03 0. -1.
</event>
<event>
 8    1  0.1064884E+005  0.1043930E+01  0.7957747E-01            NaN
         13   -1    0    0    0    0  0.00000000000E+00  0.00000000000E+00  0.74505805969E-08  0.10566000000E+00  0.10566000000E+00 0.  1.
     999900   -1    0    0    0    0 -0.00000000000E+00 -0.00000000000E+00 -0.74505805969E-08  0.93827000000E+00  0.93827000000E+00 0.  1.
     999902    2    1    2    0    0 -0.61514317217E-02  0.20561861766E-01 -0.93358227654E-02  0.10205251317E+01  0.10202567112E+01 0.  0.
     999903    2    3    3    0    0  0.11753826102E+00  0.38433423328E-01 -0.39277616300E-01  0.13119108662E+00  0.19390699700E-01 0.  0.
         14    1    1    2    0    0  0.61514317217E-02 -0.20561861766E-01  0.93358227654E-02  0.23404868259E-01  0.00000000000E+00 0.  1.
     999901    1    3    3    0    0 -0.12368969274E+00 -0.17871561562E-01  0.29941793535E-01  0.88933404512E+00  0.88000000000E+00 0. -1.
        -11    1    4    4    0    0  0.44625221398E-01  0.48387227431E-02 -0.14424369925E-01  0.47150261837E-01  0.51100000000E-03 0. -1.
         11    1    4    4    0    0  0.72913039623E-01  0.33594700585E-01 -0.24853246376E-01  0.84040824787E-01  0.51100000000E-03 0.  1.
</event>
<event>
 8    1  0.1064884E+005  0.1043930E+01  0.7957747E-01            NaN
         13   -1    0    0    0    0  0.00000000000E+00  0.00000000000E+00  0.74505805969E-08  0.10566000000E+00  0.10566000000E+00 0.  1.
     999900   -1    0    0    0    0 -0.00000000000E+00 -0.00000000000E+00 -0.74505805969E-08  0.93827000000E+00  0.93827000000E+00 0.  1.
     999902    2    1    2    0    0 -0.11123698882E-01 -0.58300311944E-03  0.20492919338E-01  0.10206054140E+01  0.10203388529E+01 0.  0.
     999903    2    3    3    0    0 -0.36392350031E-01  0.75882480999E-01  0.10128656040E+00  0.13324241756E+00  0.20298287040E-01 0.  0.
         14    1    1    2    0    0  0.11123698882E-01  0.58300311944E-03 -0.20492919338E-01  0.23324586008E-01  0.00000000000E+00 0. -1.
     999901    1    3    3    0    0  0.25268651150E-01 -0.76465484119E-01 -0.80793641065E-01  0.88736299643E+00  0.88000000000E+00 0.  1.
        -11    1    4    4    0    0 -0.31828283856E-01  0.49755003111E-01  0.60216360489E-01  0.84349695787E-01  0.51100000000E-03 0. -1.
         11    1    4    4    0    0 -0.45640661754E-02  0.26127477888E-01  0.41070199914E-01  0.48892721777E-01  0.51100000000E-03 0.  1.
</event>
<event>
 8    1  0.1064884E+005  0.1043930E+01  0.7957747E-01            NaN
         13   -1    0    0    0    0  0.00000000000E+00  0.00000000000E+00  0.74505805969E-08  0.10566000000E+00  0.10566000000E+00 0. -1.
     999900   -1    0    0    0    0 -0.00000000000E+00 -0.00000000000E+00 -0.74505805969E-08  0.93827000000E+00  0.93827000000E+00 0. -1.
     999902    2    1    2    0    0  0.20486252441E-01  0.24549485626E-04  0.76804717529E-02  0.10220513166E+01  0.10218171152E+01 0.  0.
     999903    2    3    3    0    0 -0.56712223572E-01  0.11573958252E+00  0.13068904310E-01  0.13110877704E+00  0.20168983392E-01 0.  0.
         14    1    1    2    0    0 -0.20486252441E-01 -0.24549485626E-04 -0.76804717529E-02  0.21878683418E-01  0.00000000000E+00 0.  1.
     999901    1    3    3    0    0  0.77198476013E-01 -0.11571503304E+00 -0.53884325575E-02  0.89094253955E+00  0.88000000000E+00 0.  1.
        -11    1    4    4    0    0 -0.19523494875E-01  0.36681555078E-01  0.13638010869E-01  0.43737395859E-01  0.51100000000E-03 0.  1.
         11    1    4    4    0    0 -0.37188728697E-01  0.79058027443E-01 -0.56910655869E-03  0.87371381176E-01  0.51100000000E-03 0. -1.
</event>
<event>
 8    1  0.1064884E+005  0.1043930E+01  0.7957747E-01            NaN
         13   -1    0    0    0    0  0.00000000000E+00  0.00000000000E+00  0.74505805969E-08  0.10566000000E+00  0.10566000000E+00 0. -1.
     999900   -1    0    0    0    0 -0.00000000000E+00 -0.00000000000E+00 -0.74505805969E-08  0.93827000000E+00  0.93827000000E+00 0. -1.
     999902    2    1    2    0    0 -0.17477941796E-01 -0.11820549007E-01 -0.11149863176E-01  0.10200653132E+01  0.10197861148E+01 0.  0.
     999903    2    3    3    0    0 -0.10885344378E+00  0.22859593321E-01 -0.69530677878E-01  0.13273194056E+00  0.20288411675E-01 0.  0.
         14    1    1    2    0    0  0.17477941796E-01  0.11820549007E-01  0.11149863176E-01  0.23864686822E-01  0.00000000000E+00 0.  1.
     999901    1    3    3    0    0  0.91375501989E-01 -0.34680142329E-01  0.58380814702E-01  0.88733337262E+00  0.88000000000E+00 0. -1.
        -11    1    4    4    0    0 -0.51353854154E-01  0.20102217318E-01 -0.39200713324E-01  0.67662947938E-01  0.51100000000E-03 0.  1.
         11    1    4    4    0    0 -0.57499589630E-01  0.27573760036E-02 -0.30329964554E-01  0.65068992623E-01  0.51100000000E-03 0. -1.
</event>
<event>
 8    1  0.1064884E+005  0.1043930E+01  0.7957747E-01            NaN
         13   -1    0    0    0    0  0.00000000000E+00  0.00000000000E+00  0.74505805969E-08  0.10566000000E+00  0.10566000000E+00 0. -1.
     999900   -1    0    0    0    0 -0.00000000000E+00 -0.00000000000E+00 -0.74505805969E-08  0.93827000000E+00  0.93827000000E+00 0. -1.
     999902    2    1    2    0    0  0.13416622237E-01  0.78838917340E-02  0.15283315767E-01  0.10221185067E+01  0.10218857570E+01 0.  0.
     999903    2    3    3    0    0 -0.10197940836E+00  0.21032812069E-01 -0.74811617136E-01  0.12992669156E+00  0.21023515610E-01 0.  0.
         14    1    1    2    0    0 -0.13416622237E-01 -0.78838917340E-02 -0.15283315767E-01  0.21811493346E-01  0.00000000000E+00 0.  1.
     999901    1    3    3    0    0  0.11539603060E+00 -0.13148920335E-01  0.90094932903E-01  0.89219181509E+00  0.88000000000E+00 0. -1.
        -11    1    4    4    0    0 -0.53949513716E-01  0.21250125413E-01 -0.44947532314E-01  0.73366611223E-01  0.51100000000E-03 0.  1.
         11    1    4    4    0    0 -0.48029894644E-01 -0.21731334415E-03 -0.29864084822E-01  0.56560080338E-01  0.51100000000E-03 0. -1.
</event>
<event>
 8    1  0.1300571E+005  0.1043930E+01  0.7957747E-01            NaN
         13   -1    0    0    0    0  0.00000000000E+00  0.00000000000E+00  0.74505805969E-08  0.10566000000E+00  0.10566000000E+00 0.  1.
     999900   -1    0    0    0    0 -0.00000000000E+00 -0.00000000000E+00 -0.74505805969E-08  0.93827000000E+00  0.93827000000E+00 0.  1.
     999902    2    1    2    0    0 -0.39829377600E-02  0.90553060273E-02 -0.18584609869E-01  0.10228764947E+01  0.10226598033E+01 0.  0.
     999903    2    3    3    0    0  0.35935539062E-01  0.11561020893E+00 -0.55861348837E-01  0.13476783730E+00  0.19616225410E-01 0.  0.
         14    1    1    2    0    0  0.39829377600E-02 -0.90553060273E-02  0.18584609869E-01  0.21053505277E-01  0.00000000000E+00 0.  1.
     999901    1    3    3    0    0 -0.39918476822E-01 -0.10655490290E+00  0.37276738968E-01  0.88810865742E+00  0.88000000000E+00 0. -1.
        -11    1    4    4    0    0  0.18507986773E-01  0.67114510057E-01 -0.21645381061E-01  0.72908755831E-01  0.51100000000E-03 0.  1.
         11    1    4    4    0    0  0.17427552290E-01  0.48495698874E-01 -0.34215967776E-01  0.61859081468E-01  0.51100000000E-03 0. -1.
</event>
<event>
 8    1  0.1064884E+005  0.1043930E+01  0.7957747E-01            NaN
         13   -1    0    0    0    0  0.00000000000E+00  0.00000000000E+00  0.74505805969E-08  0.10566000000E+00  0.10566000000E+00 0. -1.
     999900   -1    0    0    0    0 -0.00000000000E+00 -0.00000000000E+00 -0.74505805969E-08  0.93827000000E+00  0.93827000000E+00 0.  1.
     999902    2    1    2    0    0  0.13237764187E-01  0.18780262406E-01 -0.74510338649E-02  0.10197751959E+01  0.10194890856E+01 0.  0.
     999903    2    3    3    0    0  0.56857782218E-02 -0.11012670644E+00 -0.63255126188E-01  0.12860285798E+00  0.19423299033E-01 0.  0.
         14    1    1    2    0    0 -0.13237764187E-01 -0.18780262406E-01  0.74510338649E-02  0.24154804126E-01  0.00000000000E+00 0. -1.
     999901    1    3    3    0    0  0.75519859647E-02  0.12890696885E+00  0.55804092323E-01  0.89117233790E+00  0.88000000000E+00 0. -1.
        -11    1    4    4    0    0  0.10715409736E-01 -0.43033882481E-01 -0.30049358319E-01  0.53572008582E-01  0.51100000000E-03 0.  1.
         11    1    4    4    0    0 -0.50296315139E-02 -0.67092823962E-01 -0.33205767869E-01  0.75030849396E-01  0.51100000000E-03 0. -1.
</event>
<event>
 8    1  0.1064884E+005  0.1043930E+01  0.7957747E-01            NaN
         13   -1    0    0    0    0  0.00000000000E+00  0.00000000000E+00  0.74505805969E-08  0.10566000000E+00  0.10566000000E+00 0.  1.
     999900   -1    0    0    0    0 -0.00000000000E+00 -0.00000000000E+00 -0.74505805969E-08  0.93827000000E+00  0.93827000000E+00 0.  1.
     999902    2    1    2    0    0  0.83175622670E-02  0.97191339172E-02 -0.19951451363E-01  0.10202297085E+01  0.10199543883E+01 0.  0.
     999903    2    3    3    0    0 -0.95746705192E-01 -0.80792148366E-01 -0.26739019322E-01  0.12946164942E+00  0.18722732795E-01 0.  0.
         14    1    1    2    0    0 -0.83175622670E-02 -0.97191339172E-02  0.19951451363E-01  0.23700291510E-01  0.00000000000E+00 0.  1.
     999901    1    3    3    0    0  0.10406426746E+00  0.90511282283E-01  0.67875679584E-02  0.89076805907E+00  0.88000000000E+00 0.  1.
        -11    1    4    4    0    0 -0.56465311058E-01 -0.58131509492E-01 -0.13030800480E-01  0.82083290814E-01  0.51100000000E-03 0.  1.
         11    1    4    4    0    0 -0.39281394135E-01 -0.22660638873E-01 -0.13708218842E-01  0.47378358605E-01  0.51100000000E-03 0. -1.
</event>
<event>
 8    1  0.1064884E+005  0.1043930E+01  0.7957747E-01            NaN
         13   -1    0    0    0    0  0.00000000000E+00  0.00000000000E+00  0.74505805969E-08  0.10566000000E+00  0.10566000000E+00 0.  1.
     999900   -1    0    0    0    0 -0.00000000000E+00 -0.00000000000E+00 -0.74505805969E-08  0.93827000000E+00  0.93827000000E+00 0. -1.
     999902    2    1    2    0    0 -0.21095235041E-01  0.78123197112E-02  0.73134115422E-02  0.10202756712E+01  0.10200014304E+01 0.  0.
     999903    2    3    3    0    0 -0.20056246217E-01 -0.83927760027E-01 -0.94303607392E-01  0.12968971791E+00  0.21911883752E-01 0.  0.
         14    1    1    2    0    0  0.21095235041E-01 -0.78123197112E-02 -0.73134115422E-02  0.23654328760E-01  0.00000000000E+00 0. -1.
     999901    1    3    3    0    0 -0.10389888233E-02  0.91740079738E-01  0.10161701893E+00  0.89058595333E+00  0.88000000000E+00 0.  1.
        -11    1    4    4    0    0 -0.46310403316E-02 -0.85208941815E-02 -0.22162559612E-01  0.24196949018E-01  0.51100000000E-03 0. -1.
         11    1    4    4    0    0 -0.15425205886E-01 -0.75406865846E-01 -0.72141047779E-01  0.10549276889E+00  0.51100000000E-03 0.  1.
</event>
<event>
 8    1  0.1064884E+005  0.1043930E+01  0.7957747E-01            NaN
         13   -1    0    0    0    0  0.00000000000E+00  0.00000000000E+00  0.74505805969E-08  0.10566000000E+00  0.10566000000E+00 0.  1.
     999900   -1    0    0    0    0 -0.00000000000E+00 -0.00000000000E+00 -0.74505805969E-08  0.93827000000E+00  0.93827000000E+00 0.  1.
     999902    2    1    2    0    0 -0.18990725147E-01 -0.54505804354E-02  0.13873947784E-01  0.10197878606E+01  0.10195020538E+01 0.  0.
     999903    2    3    3    0    0  0.70205482971E-01  0.97655295771E-01 -0.38069868858E-01  0.12777612000E+00  0.20299145183E-01 0.  0.
         14    1    1    2    0    0  0.18990725147E-01  0.54505804354E-02 -0.13873947784E-01  0.24142139420E-01  0.00000000000E+00 0.  1.
     999901    1    3    3    0    0 -0.89196208118E-01 -0.10310587621E+00  0.51943816641E-01  0.89201174058E+00  0.88000000000E+00 0.  1.
        -11    1    4    4    0    0  0.45214978938E-01  0.54297148375E-01 -0.31266969726E-01  0.77268746327E-01  0.51100000000E-03 0.  1.
         11    1    4    4    0    0  0.24990504033E-01  0.43358147396E-01 -0.68028991319E-02  0.50507373670E-01  0.51100000000E-03 0. -1.
</event>
<event>
 8    1  0.1064884E+005  0.1043930E+01  0.7957747E-01            NaN
         13   -1    0    0    0    0  0.00000000000E+00  0.00000000000E+00  0.74505805969E-08  0.10566000000E+00  0.10566000000E+00 0. -1.
     999900   -1    0    0    0    0 -0.00000000000E+00 -0.00000000000E+00 -0.74505805969E-08  0.93827000000E+00  0.93827000000E+00 0. -1.
     999902    2    1    2    0    0  0.16797874870E-01  0.11386079968E-01  0.10993847507E-01  0.10208502231E+01  0.10205892915E+01 0.  0.
     999903    2    3    3    0    0 -0.35178074085E-01  0.79734284404E-01 -0.94868370392E-01  0.13035609879E+00  0.19941208189E-01 0.  0.
         14    1    1    2    0    0 -0.16797874870E-01 -0.11386079968E-01 -0.10993847507E-01  0.23079776866E-01  0.00000000000E+00 0.  1.
     999901    1    3    3    0    0  0.51975948955E-01 -0.68348204436E-01  0.10586221790E+00  0.89049412435E+00  0.88000000000E+00 0.  1.
        -11    1    4    4    0    0 -0.58196110627E-02  0.20100644718E-02 -0.85385498084E-02  0.10539268757E-01  0.51100000000E-03 0.  1.
         11    1    4    4    0    0 -0.29358463022E-01  0.77724219933E-01 -0.86329820584E-01  0.11981683003E+00  0.51100000000E-03 0. -1.
</event>
<event>
 8    1  0.1064884E+005  0.1043930E+01  0.7957747E-01            NaN
         13   -1    0    0    0    0  0.00000000000E+00  0.00000000000E+00  0.74505805969E-08  0.10566000000E+00  0.10566000000E+00 0.  1.
     999900   -1    0    0    0    0 -0.00000000000E+00 -0.00000000000E+00 -0.74505805969E-08  0.93827000000E+00  0.93827000000E+00 0.  1.
     999902    2    1    2    0    0  0.24443692770E-02 -0.10074874600E-01 -0.21341848254E-01  0.10202033794E+01  0.10199274399E+01 0.  0.
     999903    2    3    3    0    0 -0.89847468685E-01 -0.43744339780E-01  0.79486641897E-01  0.12901439792E+00  0.18451388537E-01 0.  0.
         14    1    1    2    0    0 -0.24443692770E-02  0.10074874600E-01  0.21341848254E-01  0.23726620625E-01  0.00000000000E+00 0.  1.
     999901    1    3    3    0    0  0.92291837962E-01  0.33669465181E-01 -0.10082849015E+00  0.89118898145E+00  0.88000000000E+00 0.  1.
        -11    1    4    4    0    0 -0.32454937422E-01 -0.25501073303E-01  0.29298888089E-01  0.50619301328E-01  0.51100000000E-03 0.  1.
         11    1    4    4    0    0 -0.57392531263E-01 -0.18243266477E-01  0.50187753808E-01  0.78395096593E-01  0.51100000000E-03 0. -1.
</event>
<event>
 8    1  0.1064884E+005  0.1043930E+01  0.7957747E-01            NaN
         13   -1    0    0    0    0  0.00000000000E+00  0.00000000000E+00  0.74505805969E-08  0.10566000000E+00  0.10566000000E+00 0. -1.
     999900   -1    0    0    0    0 -0.00000000000E+00 -0.00000000000E+00 -0.74505805969E-08  0.93827000000E+00  0.93827000000E+00 0.  1.
     999902    2    1    2    0    0 -0.22904184628E-01 -0.51585842029E-03  0.62873130600E-02  0.10201729360E+01  0.10198962797E+01 0.  0.
     999903    2    3    3    0    0  0.10202754320E+00  0.74000853218E-01 -0.90964939043E-02  0.12809819787E+00  0.20991813800E-01 0.  0.
         14    1    1    2    0    0  0.22904184628E-01  0.51585842029E-03 -0.62873130600E-02  0.23757063979E-01  0.00000000000E+00 0. -1.
     999901    1    3    3    0    0 -0.12493172783E+00 -0.74516711638E-01  0.15383806964E-01  0.89207473815E+00  0.88000000000E+00 0.  1.
        -11    1    4    4    0    0  0.57829352058E-01  0.48517904583E-01 -0.14236967766E-01  0.76819095261E-01  0.51100000000E-03 0. -1.
         11    1    4    4    0    0  0.44198191146E-01  0.25482948635E-01  0.51404738614E-02  0.51279102607E-01  0.51100000000E-03 0.  1.
</event>
<event>
 8    1  0.1064884E+005  0.1043930E+01  0.7957747E-01            NaN
         13   -1    0    0    0    0  0.00000000000E+00  0.00000000000E+00  0.74505805969E-08  0.10566000000E+00  0.10566000000E+00 0.  1.
     999900   -1    0    0    0    0 -0.00000000000E+00 -0.00000000000E+00 -0.74505805969E-08  0.93827000000E+00  0.93827000000E+00 0. -1.
     999902    2    1    2    0    0 -0.76152479613E-04 -0.21855040732E-01  0.77018332752E-02  0.10207574550E+01  0.10204943974E+01 0.  0.
     999903    2    3    3    0    0 -0.34806202079E-01  0.92995405655E-01  0.80450346803E-01  0.12964065707E+00  0.21790467857E-01 0.  0.
         14    1    1    2    0    0  0.76152479613E-04  0.21855040732E-01 -0.77018332752E-02  0.23172544971E-01  0.00000000000E+00 0.  1.
     999901    1    3    3    0    0  0.34730049599E-01 -0.11485044639E+00 -0.72748513527E-01  0.89111679796E+00  0.88000000000E+00 0. -1.
        -11    1    4    4    0    0 -0.35555522905E-01  0.68966686740E-01  0.60360905263E-01  0.98307167054E-01  0.51100000000E-03 0. -1.
         11    1    4    4    0    0  0.74932082590E-03  0.24028718915E-01  0.20089441540E-01  0.31333490019E-01  0.51100000000E-03 0.  1.
</event>
<event>
 8    1  0.1064884E+005  0.1043930E+01  0.7957747E-01            NaN
         13   -1    0    0    0    0  0.00000000000E+00  0.00000000000E+00  0.74505805969E-08  0.10566000000E+00  0.10566000000E+00 0.  1.
     999900   -1    0    0    0    0 -0.00000000000E+00 -0.00000000000E+00 -0.74505805969E-08  0.93827000000E+00  0.93827000000E+00 0. -1.
     999902    2    1    2    0    0  0.73871376012E-02  0.12186778520E-01  0.19067406469E-01  0.10201255180E+01  0.10198477431E+01 0.  0.
     999903    2    3    3    0    0  0.11314443932E+00  0.59240746207E-01 -0.29646679350E-01  0.13120946749E+00  0.50861186636E-02 0.  0.
         14    1    1    2    0    0 -0.73871376012E-02 -0.12186778520E-01 -0.19067406469E-01  0.23804481975E-01  0.00000000000E+00 0. -1.
     999901    1    3    3    0    0 -0.10575730172E+00 -0.47053967687E-01  0.48714085818E-01  0.88891605053E+00  0.88000000000E+00 0. -1.
        -11    1    4    4    0    0  0.84648004980E-01  0.44527822171E-01 -0.24385603931E-01  0.98706283966E-01  0.51100000000E-03 0. -1.
         11    1    4    4    0    0  0.28496434338E-01  0.14712924036E-01 -0.52610754187E-02  0.32503183524E-01  0.51100000000E-03 0.  1.
</event>
<event>
 8    1  0.1064884E+005  0.1043930E+01  0.7957747E-01            NaN
         13   -1    0    0    0    0  0.00000000000E+00  0.00000000000E+00  0.74505805969E-08  0.10566000000E+00  0.10566000000E+00 0. -1.
     999900   -1    0    0    0    0 -0.00000000000E+00 -0.00000000000E+00 -0.74505805969E-08  0.93827000000E+00  0.93827000000E+00 0.  1.
     999902    2    1    2    0    0  0.12959537173E-01  0.34209171172E-02  0.18245521394E-01  0.10212904035E+01  0.10210394395E+01 0.  0.
     999903    2    3    3    0    0  0.15585124961E-01  0.12921123262E+00  0.13817444253E-03  0.13215713275E+00  0.22957567108E-01 0.  0.
         14    1    1    2    0    0 -0.12959537173E-01 -0.34209171172E-02 -0.18245521394E-01  0.22639596476E-01  0.00000000000E+00 0.  1.
     999901    1    3    3    0    0 -0.26255877882E-02 -0.12579031551E+00  0.18107346951E-01  0.88913327078E+00  0.88000000000E+00 0.  1.
        -11    1    4    4    0    0 -0.46154520324E-02  0.48089099093E-01  0.39128468043E-02  0.48470974203E-01  0.51100000000E-03 0. -1.
         11    1    4    4    0    0  0.20200576994E-01  0.81122133532E-01 -0.37746723618E-02  0.83686158545E-01  0.51100000000E-03 0.  1.
</event>
<event>
 8    1  0.1064884E+005  0.1043930E+01  0.7957747E-01            NaN
         13   -1    0    0    0    0  0.00000000000E+00  0.00000000000E+00  0.74505805969E-08  0.10566000000E+00  0.10566000000E+00 0.  1.
     999900   -1    0    0    0    0 -0.00000000000E+00 -0.00000000000E+00 -0.74505805969E-08  0.93827000000E+00  0.93827000000E+00 0. -1.
     999902    2    1    2    0    0  0.28306308272E-02  0.19261907160E-01  0.72677793330E-02  0.10231488991E+01  0.10229378356E+01 0.  0.
     999903    2    3    3    0    0  0.70811942831E-01 -0.89484121382E-01  0.63462984484E-01  0.13207928420E+00  0.19890894629E-01 0.  0.
         14    1    1    2    0    0 -0.28306308272E-02 -0.19261907160E-01 -0.72677793330E-02  0.20781100903E-01  0.00000000000E+00 0.  1.
     999901    1    3    3    0    0 -0.67981312003E-01  0.10874602854E+00 -0.56195205151E-01  0.89106961489E+00  0.88000000000E+00 0. -1.
        -11    1    4    4    0    0  0.18718488971E-01 -0.39114634562E-01  0.23278634054E-01  0.49218821509E-01  0.51100000000E-03 0. -1.
         11    1    4    4    0    0  0.52093453859E-01 -0.50369486820E-01  0.40184350429E-01  0.82860462695E-01  0.51100000000E-03 0.  1.
</event>
<event>
 8    1  0.1064884E+005  0.1043930E+01  0.7957747E-01            NaN
         13   -1    0    0    0    0  0.00000000000E+00  0.00000000000E+00  0.74505805969E-08  0.10566000000E+00  0.10566000000E+00 0.  1.
     999900   -1    0    0    0    0 -0.00000000000E+00 -0.00000000000E+00 -0.74505805969E-08  0.93827000000E+00  0.93827000000E+00 0.  1.
     999902    2    1    2    0    0 -0.16855395184E-01 -0.27314669945E-02  0.17048283249E-01  0.10198009880E+01  0.10195154957E+01 0.  0.
     999903    2    3    3    0    0  0.19603779848E-01 -0.35558392652E-01 -0.11960860568E+00  0.12790302085E+00  0.20106136320E-01 0.  0.
         14    1    1    2    0    0  0.16855395184E-01  0.27314669945E-02 -0.17048283249E-01  0.24129012009E-01  0.00000000000E+00 0. -1.
     999901    1    3    3    0    0 -0.36459175033E-01  0.32826925658E-01  0.13665688893E+00  0.89189796714E+00  0.88000000000E+00 0. -1.
        -11    1    4    4    0    0  0.69286330517E-02 -0.10785660338E-01 -0.68657932341E-01  0.69846325739E-01  0.51100000000E-03 0.  1.
         11    1    4    4    0    0  0.12675146797E-01 -0.24772732315E-01 -0.50950673342E-01  0.58056695115E-01  0.51100000000E-03 0. -1.
</event>
<event>
 8    1  0.1064884E+005  0.1043930E+01  0.7957747E-01            NaN
         13   -1    0    0    0    0  0.00000000000E+00  0.00000000000E+00  0.74505805969E-08  0.10566000000E+00  0.10566000000E+00 0. -1.
     999900   -1    0    0    0    0 -0.00000000000E+00 -0.00000000000E+00 -0.74505805969E-08  0.93827000000E+00  0.93827000000E+00 0.  1.
     999902    2    1    2    0    0  0.76789328811E-02  0.21330346009E-01 -0.37330139810E-02  0.10209542505E+01  0.10206956924E+01 0.  0.
     999903    2    3    3    0    0 -0.12778996944E+00  0.15871614031E-01 -0.76759514888E-02  0.13056266924E+00  0.20137178174E-01 0.  0.
         14    1    1    2    0    0 -0.76789328811E-02 -0.21330346009E-01  0.37330139810E-02  0.22975749486E-01  0.00000000000E+00 0.  1.
     999901    1    3    3    0    0  0.13546890232E+00  0.54587319787E-02  0.39429375078E-02  0.89039158128E+00  0.88000000000E+00 0. -1.
        -11    1    4    4    0    0 -0.78442098315E-01  0.14204418292E-01 -0.13455144735E-01  0.80846956207E-01  0.51100000000E-03 0.  1.
         11    1    4    4    0    0 -0.49347871128E-01  0.16671957382E-02  0.57791932462E-02  0.49715713030E-01  0.51100000000E-03 0. -1.
</event>
<event>
 8    1  0.1064884E+005  0.1043930E+01  0.7957747E-01            NaN
         13   -1    0    0    0    0  0.00000000000E+00  0.00000000000E+00  0.74505805969E-08  0.10566000000E+00  0.10566000000E+00 0.  1.
     999900   -1    0    0    0    0 -0.00000000000E+00 -0.00000000000E+00 -0.74505805969E-08  0.93827000000E+00  0.93827000000E+00 0.  1.
     999902    2    1    2    0    0 -0.19577368344E-01 -0.94065910044E-02 -0.11118364932E-01  0.10195296856E+01  0.10192376585E+01 0.  0.
     999903    2    3    3    0    0 -0.10310608317E+00  0.23021642702E-01  0.74543243213E-01  0.13084158075E+00  0.20049033012E-01 0.  0.
         14    1    1    2    0    0  0.19577368344E-01  0.94065910044E-02  0.11118364932E-01  0.24400314432E-01  0.00000000000E+00 0.  1.
     999901    1    3    3    0    0  0.83528714823E-01 -0.32428233706E-01 -0.85661608146E-01  0.88868810482E+00  0.88000000000E+00 0.  1.
        -11    1    4    4    0    0 -0.87888571746E-01  0.18151212068E-01  0.71082581049E-01  0.11448520425E+00  0.51100000000E-03 0. -1.
         11    1    4    4    0    0 -0.15217511421E-01  0.48704306334E-02  0.34606621646E-02  0.16356376494E-01  0.51100000000E-03 0.  1.
</event>
<event>
 8    1  0.1064884E+005  0.1043930E+01  0.7957747E-01            NaN
         13   -1    0    0    0    0  0.00000000000E+00  0.00000000000E+00  0.74505805969E-08  0.10566000000E+00  0.10566000000E+00 0.  1.
     999900   -1    0    0    0    0 -0.00000000000E+00 -0.00000000000E+00 -0.74505805969E-08  0.93827000000E+00  0.93827000000E+00 0. -1.
     999902    2    1    2    0    0  0.17505454947E-01 -0.16254166347E-01  0.56530038252E-03  0.10200352633E+01  0.10197553530E+01 0.  0.
     999903    2    3    3    0    0  0.89720282759E-01 -0.32412074798E-03 -0.94840904641E-01  0.13179481633E+00  0.18034473263E-01 0.  0.
         14    1    1    2    0    0 -0.17505454947E-01  0.16254166347E-01 -0.56530038252E-03  0.23894736681E-01  0.00000000000E+00 0. -1.
     999901    1    3    3    0    0 -0.72214827812E-01 -0.15930045599E-01  0.95406205024E-01  0.88824044699E+00  0.88000000000E+00 0.  1.
        -11    1    4    4    0    0  0.33277100615E-01  0.23383118563E-02 -0.23612111406E-01  0.40873292671E-01  0.51100000000E-03 0.  1.
         11    1    4    4    0    0  0.56443182144E-01 -0.26624326042E-02 -0.71228793236E-01  0.90921523660E-01  0.51100000000E-03 0. -1.
</event>
<event>
 8    1  0.1064884E+005  0.1043930E+01  0.7957747E-01            NaN
         13   -1    0    0    0    0  0.00000000000E+00  0.00000000000E+00  0.74505805969E-08  0.10566000000E+00  0.10566000000E+00 0.  1.
     999900   -1    0    0    0    0 -0.00000000000E+00 -0.00000000000E+00 -0.74505805969E-08  0.93827000000E+00  0.93827000000E+00 0.  1.
     999902    2    1    2    0    0  0.66338691641E-02  0.41649133312E-02 -0.22452731746E-01  0.10201501790E+01  0.10198729861E+01 0.  0.
     999903    2    3    3    0    0  0.12180622538E+00  0.29097637674E-01 -0.37305212109E-01  0.13217106409E+00  0.19851505524E-01 0.  0.
         14    1    1    2    0    0 -0.66338691641E-02 -0.41649133312E-02  0.22452731746E-01  0.23779820984E-01  0.00000000000E+00 0.  1.
     999901    1    3    3    0    0 -0.11517235622E+00 -0.24932724343E-01  0.14852480362E-01  0.88797911493E+00  0.88000000000E+00 0.  1.
        -11    1    4    4    0    0  0.64210255751E-01  0.58688469225E-02 -0.15187696945E-01  0.66244453106E-01  0.51100000000E-03 0.  1.
         11    1    4    4    0    0  0.57595969629E-01  0.23228790752E-01 -0.22117515164E-01  0.65926610980E-01  0.51100000000E-03 0. -1.
</event>
<event>
 8    1  0.1064884E+005  0.1043930E+01  0.7957747E-01            NaN
         13   -1    0    0    0    0  0.00000000000E+00  0.00000000000E+00  0.74505805969E-08  0.10566000000E+00  0.10566000000E+00 0.  1.
     999900   -1    0    0    0    0 -0.00000000000E+00 -0.00000000000E+00 -0.74505805969E-08  0.93827000000E+00  0.93827000000E+00 0. -1.
     999902    2    1    2    0    0 -0.14347528789E-01 -0.64286041417E-02  0.18916409022E-01  0.10193330680E+01  0.10190362577E+01 0.  0.
     999903    2    3    3    0    0 -0.37608032327E-01 -0.12125420533E+00 -0.23121707049E-01  0.13057372323E+00  0.19948369727E-01 0.  0.
         14    1    1    2    0    0  0.14347528789E-01  0.64286041417E-02 -0.18916409022E-01  0.24596932001E-01  0.00000000000E+00 0. -1.
     999901    1    3    3    0    0  0.23260503537E-01  0.11482560119E+00  0.42038116071E-01  0.88875934477E+00  0.88000000000E+00 0. -1.
        -11    1    4    4    0    0 -0.75844413473E-02 -0.27096654791E-01 -0.13687342220E-01  0.31294678613E-01  0.51100000000E-03 0.  1.
         11    1    4    4    0    0 -0.30023590979E-01 -0.94157550541E-01 -0.94343648289E-02  0.99279044616E-01  0.51100000000E-03 0. -1.
</event>
<event>
 8    1  0.1064884E+005  0.1043930E+01  0.7957747E-01            NaN
         13   -1    0    0    0    0  0.00000000000E+00  0.00000000000E+00  0.74505805969E-08  0.10566000000E+00  0.10566000000E+00 0. -1.
     999900   -1    0    0    0    0 -0.00000000000E+00 -0.00000000000E+00 -0.74505805969E-08  0.93827000000E+00  0.93827000000E+00 0.  1.
     999902    2    1    2    0    0 -0.76909415930E-02 -0.11427133773E-01  0.19239001974E-01  0.10202684454E+01  0.10199940350E+01 0.  0.
     999903    2    3    3    0    0  0.64045116779E-01  0.55959517244E-01 -0.93079972491E-01  0.12768647447E+00  0.20167050637E-01 0.  0.
         14    1    1    2    0    0  0.76909415930E-02  0.11427133773E-01 -0.19239001974E-01  0.23661554594E-01  0.00000000000E+00 0.  1.
     999901    1    3    3    0    0 -0.71736058372E-01 -0.67386651017E-01  0.11231897447E+00  0.89258197093E+00  0.88000000000E+00 0. -1.
        -11    1    4    4    0    0  0.48055993596E-01  0.47986705033E-01 -0.82717376323E-01  0.10702582794E+00  0.51100000000E-03 0.  1.
         11    1    4    4    0    0  0.15989123182E-01  0.79728122116E-02 -0.10362596168E-01  0.20660646530E-01  0.51100000000E-03 0. -1.
</event>
<event>
 8    1  0.1064884E+005  0.1043930E+01  0.7957747E-01            NaN
         13   -1    0    0    0    0  0.00000000000E+00  0.00000000000E+00  0.74505805969E-08  0.10566000000E+00  0.10566000000E+00 0.  1.
     999900   -1    0    0    0    0 -0.00000000000E+00 -0.00000000000E+00 -0.74505805969E-08  0.93827000000E+00  0.93827000000E+00 0. -1.
     999902    2    1    2    0    0  0.40781027173E-03  0.18347092407E-01 -0.17679773293E-01  0.10184475258E+01  0.10181286786E+01 0.  0.
     999903    2    3    3    0    0 -0.88711254564E-01  0.48266594654E-01  0.76983775023E-01  0.12839215013E+00  0.18939159231E-01 0.  0.
         14    1    1    2    0    0 -0.40781027173E-03 -0.18347092407E-01  0.17679773293E-01  0.25482474227E-01  0.00000000000E+00 0.  1.
     999901    1    3    3    0    0  0.89119064836E-01 -0.29919502247E-01 -0.94663548316E-01  0.89005537564E+00  0.88000000000E+00 0. -1.
        -11    1    4    4    0    0 -0.53867652255E-01  0.18973092331E-01  0.45840296442E-01  0.73234527997E-01  0.51100000000E-03 0. -1.
         11    1    4    4    0    0 -0.34843602309E-01  0.29293502323E-01  0.31143478582E-01  0.55157622133E-01  0.51100000000E-03 0.  1.
</event>
<event>
 8    1  0.1064884E+005  0.1043930E+01  0.7957747E-01            NaN
         13   -1    0    0    0    0  0.00000000000E+00  0.00000000000E+00  0.74505805969E-08  0.10566000000E+00  0.10566000000E+00 0. -1.
     999900   -1    0    0    0    0 -0.00000000000E+00 -0.00000000000E+00 -0.74505805969E-08  0.93827000000E+00  0.93827000000E+00 0. -1.
     999902    2    1    2    0    0  0.15239170927E-01  0.16586697201E-01 -0.82339354352E-02  0.10199477452E+01  0.10196657562E+01 0.  0.
     999903    2    3    3    0    0  0.22152576516E-01  0.10988670831E+00 -0.68527391886E-01  0.13293704165E+00  0.20259029939E-01 0.  0.
         14    1    1    2    0    0 -0.15239170927E-01 -0.16586697201E-01  0.82339354352E-02  0.23982254843E-01  0.00000000000E+00 0.  1.
     999901    1    3    3    0    0 -0.69134055895E-02 -0.93300011107E-01  0.60293456451E-01  0.88701070351E+00  0.88000000000E+00 0. -1.
        -11    1    4    4    0    0  0.16982648247E-01  0.42278130123E-01 -0.21258513066E-01  0.50279579622E-01  0.51100000000E-03 0. -1.
         11    1    4    4    0    0  0.51699282692E-02  0.67608578186E-01 -0.47268878821E-01  0.82657462026E-01  0.51100000000E-03 0.  1.
</event>
<event>
 8    1  0.1064884E+005  0.1043930E+01  0.7957747E-01            NaN
         13   -1    0    0    0    0  0.00000000000E+00  0.00000000000E+00  0.74505805969E-08  0.10566000000E+00  0.10566000000E+00 0.  1.
     999900   -1    0    0    0    0 -0.00000000000E+00 -0.00000000000E+00 -0.74505805969E-08  0.93827000000E+00  0.93827000000E+00 0. -1.
     999902    2    1    2    0    0  0.74808968437E-02  0.23058782189E-02  0.22496262104E-01  0.10201106234E+01  0.10198324967E+01 0.  0.
     999903    2    3    3    0    0  0.56039308848E-01  0.10145621895E+00  0.60135186152E-01  0.13241394209E+00  0.21987336053E-01 0.  0.
         14    1    1    2    0    0 -0.74808968437E-02 -0.23058782189E-02 -0.22496262104E-01  0.23819376579E-01  0.00000000000E+00 0. -1.
     999901    1    3    3    0    0 -0.48558412005E-01 -0.99150340729E-01 -0.37638924048E-01  0.88769668133E+00  0.88000000000E+00 0.  1.
        -11    1    4    4    0    0  0.23335882584E-01  0.32173536173E-01  0.10452714319E-01  0.41100124130E-01  0.51100000000E-03 0. -1.
         11    1    4    4    0    0  0.32703426264E-01  0.69282682775E-01  0.49682471833E-01  0.91313817960E-01  0.51100000000E-03 0.  1.
</event>
<event>
 8    1  0.1064884E+005  0.1043930E+01  0.7957747E-01            NaN
         13   -1    0    0    0    0  0.00000000000E+00  0.00000000000E+00  0.74505805969E-08  0.10566000000E+00  0.10566000000E+00 0.  1.
     999900   -1    0    0    0    0 -0.00000000000E+00 -0.00000000000E+00 -0.74505805969E-08  0.93827000000E+00  0.93827000000E+00 0. -1.
     999902    2    1    2    0    0 -0.73412148089E-02  0.17898208277E-01  0.11482735271E-01  0.10214335002E+01  0.10211857337E+01 0.  0.
     999903    2    3    3    0    0 -0.12429338604E+00  0.32194111929E-01 -0.27824835172E-01  0.13271123294E+00  0.18781459998E-01 0.  0.
         14    1    1    2    0    0  0.73412148089E-02 -0.17898208277E-01 -0.11482735271E-01  0.22496499810E-01  0.00000000000E+00 0.  1.
     999901    1    3    3    0    0  0.11695217123E+00 -0.14295903652E-01  0.39307570443E-01  0.88872226725E+00  0.88000000000E+00 0.  1.
        -11    1    4    4    0    0 -0.26116815381E-01  0.86948697370E-02  0.15463079484E-02  0.27574281399E-01  0.51100000000E-03 0. -1.
         11    1    4    4    0    0 -0.98176570657E-01  0.23499242192E-01 -0.29371143121E-01  0.10513695154E+00  0.51100000000E-03 0.  1.
</event>
<event>
 8    1  0.1064884E+005  0.1043930E+01  0.7957747E-01            NaN
         13   -1    0    0    0    0  0.00000000000E+00  0.00000000000E+00  0.74505805969E-08  0.10566000000E+00  0.10566000000E+00 0. -1.
     999900   -1    0    0    0    0 -0.00000000000E+00 -0.00000000000E+00 -0.74505805969E-08  0.93827000000E+00  0.93827000000E+00 0.  1.
     999902    2    1    2    0    0 -0.67783742282E-02  0.17693473040E-01  0.13508155439E-01  0.10206603715E+01  0.10203950796E+01 0.  0.
     999903    2    3    3    0    0  0.11526934237E-02 -0.12556956965E+00 -0.18418341025E-01  0.12846840654E+00  0.19895996311E-01 0.  0.
         14    1    1    2    0    0  0.67783742282E-02 -0.17693473040E-01 -0.13508155439E-01  0.23269628462E-01  0.00000000000E+00 0.  1.
     999901    1    3    3    0    0 -0.79310676519E-02  0.14326304269E+00  0.31926496464E-01  0.89219196500E+00  0.88000000000E+00 0. -1.
        -11    1    4    4    0    0  0.85751429273E-02 -0.69064734369E-01 -0.16066615686E-01  0.71427360796E-01  0.51100000000E-03 0.  1.
         11    1    4    4    0    0 -0.74224495036E-02 -0.56504835277E-01 -0.23517253383E-02  0.57041045742E-01  0.51100000000E-03 0. -1.
</event>
<event>
 8    1  0.1064884E+005  0.1043930E+01  0.7957747E-01            NaN
         13   -1    0    0    0    0  0.00000000000E+00  0.00000000000E+00  0.74505805969E-08  0.10566000000E+00  0.10566000000E+00 0. -1.
     999900   -1    0    0    0    0 -0.00000000000E+00 -0.00000000000E+00 -0.74505805969E-08  0.93827000000E+00  0.93827000000E+00 0. -1.
     999902    2    1    2    0    0 -0.14390003352E-01 -0.10658999618E-01  0.15333198205E-01  0.10203547283E+01  0.10200823389E+01 0.  0.
     999903    2    3    3    0    0 -0.50292436311E-01 -0.12016792647E+00 -0.11188022984E-01  0.13244450482E+00  0.21135640466E-01 0.  0.
         14    1    1    2    0    0  0.14390003352E-01  0.10658999618E-01 -0.15333198205E-01  0.23575271717E-01  0.00000000000E+00 0.  1.
     999901    1    3    3    0    0  0.35902432959E-01  0.10950892685E+00  0.26521221189E-01  0.88791022346E+00  0.88000000000E+00 0. -1.
        -11    1    4    4    0    0 -0.32051094196E-01 -0.64084524311E-01 -0.15492146958E-01  0.73310071843E-01  0.51100000000E-03 0.  1.
         11    1    4    4    0    0 -0.18241342114E-01 -0.56083402157E-01  0.43041239740E-02  0.59134432979E-01  0.51100000000E-03 0. -1.
</event>
<event>
 8    1  0.1064884E+005  0.1043930E+01  0.7957747E-01            NaN
         13   -1    0    0    0    0  0.00000000000E+00  0.00000000000E+00  0.74505805969E-08  0.10566000000E+00  0.10566000000E+00 0.  1.
     999900   -1    0    0    0    0 -0.00000000000E+00 -0.00000000000E+00 -0.74505805969E-08  0.93827000000E+00  0.93827000000E+00 0.  1.
     999902    2    1    2    0    0 -0.20025238101E-01  0.10896456028E-01 -0.41496106694E-02  0.10207575555E+01  0.10204945002E+01 0.  0.
     999903    2    3    3    0    0 -0.91855843644E-01 -0.23534914765E-01  0.89965039435E-01  0.13216162791E+00  0.19534567972E-01 0.  0.
         14    1    1    2    0    0  0.20025238101E-01 -0.10896456028E-01  0.41496106694E-02  0.23172444491E-01  0.00000000000E+00 0.  1.
     999901    1    3    3    0    0  0.71830605543E-01  0.34431370794E-01 -0.94114650104E-01  0.88859592760E+00  0.88000000000E+00 0.  1.
        -11    1    4    4    0    0 -0.64503264927E-01 -0.97993083217E-02  0.52260729509E-01  0.83595111099E-01  0.51100000000E-03 0. -1.
         11    1    4    4    0    0 -0.27352578717E-01 -0.13735606444E-01  0.37704309925E-01  0.48566516807E-01  0.51100000000E-03 0.  1.
</event>
<event>
 8    1  0.1064884E+005  0.1043930E+01  0.7957747E-01            NaN
         13   -1    0    0    0    0  0.00000000000E+00  0.00000000000E+00  0.74505805969E-08  0.10566000000E+00  0.10566000000E+00 0. -1.
     999900   -1    0    0    0    0 -0.00000000000E+00 -0.00000000000E+00 -0.74505805969E-08  0.93827000000E+00  0.93827000000E+00 0.  1.
     999902    2    1    2    0    0  0.91245861376E-02 -0.21740902285E-01  0.37829518582E-02  0.10200503930E+01  0.10197708413E+01 0.  0.
     999903    2    3    3    0    0 -0.63654921903E-02 -0.83200549199E-02 -0.12808534899E+00  0.12998898479E+00  0.19532965373E-01 0.  0.
         14    1    1    2    0    0 -0.91245861376E-02  0.21740902285E-01 -0.37829518582E-02  0.23879606971E-01  0.00000000000E+00 0. -1.
     999901    1    3    3    0    0  0.15490078328E-01 -0.13420847365E-01  0.13186830085E+00  0.89006140824E+00  0.88000000000E+00 0. -1.
        -11    1    4    4    0    0  0.68140040908E-02 -0.25649240454E-02 -0.31301309545E-01  0.32140979876E-01  0.51100000000E-03 0.  1.
         11    1    4    4    0    0 -0.13179496281E-01 -0.57551308745E-02 -0.96784039442E-01  0.97848004913E-01  0.51100000000E-03 0. -1.
</event>
<event>
 8    1  0.1064884E+005  0.1043930E+01  0.7957747E-01            NaN
         13   -1    0    0    0    0  0.00000000000E+00  0.00000000000E+00  0.74505805969E-08  0.10566000000E+00  0.10566000000E+00 0. -1.
     999900   -1    0    0    0    0 -0.00000000000E+00 -0.00000000000E+00 -0.74505805969E-08  0.93827000000E+00  0.93827000000E+00 0. -1.
     999902    2    1    2    0    0 -0.51375168907E-02 -0.19815373922E-01  0.11557253365E-01  0.10204222730E+01  0.10201514603E+01 0.  0.
     999903    2    3    3    0    0  0.10304777070E+00 -0.76842379963E-01 -0.18152168022E-01  0.13146851403E+00  0.20757518459E-01 0.  0.
         14    1    1    2    0    0  0.51375168907E-02  0.19815373922E-01 -0.11557253365E-01  0.23507727002E-01  0.00000000000E+00 0.  1.
     999901    1    3    3    0    0 -0.10818528759E+00  0.57027006041E-01  0.29709421387E-01  0.88895375897E+00  0.88000000000E+00 0. -1.
        -11    1    4    4    0    0  0.68172241998E-01 -0.49124964065E-01 -0.21669088704E-01  0.86778610266E-01  0.51100000000E-03 0. -1.
         11    1    4    4    0    0  0.34875528699E-01 -0.27717415898E-01  0.35169206816E-02  0.44689903762E-01  0.51100000000E-03 0.  1.
</event>
<event>
 8    1  0.1064884E+005  0.1043930E+01  0.7957747E-01            NaN
         13   -1    0    0    0    0  0.00000000000E+00  0.00000000000E+00  0.74505805969E-08  0.10566000000E+00  0.10566000000E+00 0. -1.
     999900   -1    0    0    0    0 -0.00000000000E+00 -0.00000000000E+00 -0.74505805969E-08  0.93827000000E+00  0.93827000000E+00 0. -1.
     999902    2    1    2    0    0 -0.16227893909E-01 -0.10402500111E-01  0.13645982339E-01  0.10203128583E+01  0.10200394891E+01 0.  0.
     999903    2    3    3    0    0 -0.81311501481E-01  0.38956341507E-01 -0.91558127643E-01  0.13029034396E+00  0.21529658061E-01 0.  0.
         14    1    1    2    0    0  0.16227893909E-01  0.10402500111E-01 -0.13645982339E-01  0.23617141726E-01  0.00000000000E+00 0.  1.
     999901    1    3    3    0    0  0.65083607572E-01 -0.49358841618E-01  0.10520410998E+00  0.89002251431E+00  0.88000000000E+00 0.  1.
        -11    1    4    4    0    0 -0.52232838349E-01  0.30151090142E-01 -0.72969541726E-01  0.94668752920E-01  0.51100000000E-03 0.  1.
         11    1    4    4    0    0 -0.29078663132E-01  0.88052513645E-02 -0.18588585917E-01  0.35621591044E-01  0.51100000000E-03 0. -1.
</event>
<event>
 8    1  0.1064884E+005  0.1043930E+01  0.7957747E-01            NaN
         13   -1    0    0    0    0  0.00000000000E+00  0.00000000000E+00  0.74505805969E-08  0.10566000000E+00  0.10566000000E+00 0.  1.
     999900   -1    0    0    0    0 -0.00000000000E+00 -0.00000000000E+00 -0.74505805969E-08  0.93827000000E+00  0.93827000000E+00 0.  1.
     999902    2    1    2    0    0  0.85655923312E-02 -0.30107852956E-02 -0.21530015956E-01  0.10205638752E+01  0.10202963528E+01 0.  0.
     999903    2    3    3    0    0 -0.46164729042E-01  0.11136730138E+00 -0.48016741296E-01  0.13108127202E+00  0.18515787990E-01 0.  0.
         14    1    1    2    0    0 -0.85655923312E-02  0.30107852956E-02  0.21530015956E-01  0.23366124778E-01  0.00000000000E+00 0.  1.
     999901    1    3    3    0    0  0.54730321373E-01 -0.11437808667E+00  0.26486725340E-01  0.88948260321E+00  0.88000000000E+00 0. -1.
        -11    1    4    4    0    0 -0.13356100664E-01  0.45656511474E-01 -0.10978304923E-01  0.48823014705E-01  0.51100000000E-03 0. -1.
         11    1    4    4    0    0 -0.32808628378E-01  0.65710789903E-01 -0.37038436372E-01  0.82258257310E-01  0.51100000000E-03 0.  1.
</event>
<event>
 8    1  0.1064884E+005  0.1043930E+01  0.7957747E-01            NaN
         13   -1    0    0    0    0  0.00000000000E+00  0.00000000000E+00  0.74505805969E-08  0.10566000000E+00  0.10566000000E+00 0. -1.
     999900   -1    0    0    0    0 -0.00000000000E+00 -0.00000000000E+00 -0.74505805969E-08  0.93827000000E+00  0.93827000000E+00 0. -1.
     999902    2    1    2    0    0 -0.13857265195E-01 -0.78341877768E-02  0.14793474087E-01  0.10221987973E+01  0.10219677764E+01 0.  0.
     999903    2    3    3    0    0  0.37494932132E-02 -0.18466685906E-01 -0.12744946627E+00  0.13053961235E+00  0.21027285882E-01 0.  0.
         14    1    1    2    0    0  0.13857265195E-01  0.78341877768E-02 -0.14793474087E-01  0.21731202736E-01  0.00000000000E+00 0.  1.
     999901    1    3    3    0    0 -0.17606758408E-01  0.10632498130E-01  0.14224294036E+00  0.89165918491E+00  0.88000000000E+00 0.  1.
        -11    1    4    4    0    0  0.11565005025E-01 -0.10164917803E-01 -0.52077028774E-01  0.54307945479E-01  0.51100000000E-03 0. -1.
         11    1    4    4    0    0 -0.78155118117E-02 -0.83017681037E-02 -0.75372437499E-01  0.76231666872E-01  0.51100000000E-03 0.  1.
</event>
<event>
 8    1  0.1064884E+005  0.1043930E+01  0.7957747E-01            NaN
         13   -1    0    0    0    0  0.00000000000E+00  0.00000000000E+00  0.74505805969E-08  0.10566000000E+00  0.10566000000E+00 0. -1.
     999900   -1    0    0    0    0 -0.00000000000E+00 -0.00000000000E+00 -0.74505805969E-08  0.93827000000E+00  0.93827000000E+00 0. -1.
     999902    2    1    2    0    0 -0.33700412025E-02 -0.21135599138E-01 -0.11127526953E-01  0.10198075502E+01  0.10195222150E+01 0.  0.
     999903    2    3    3    0    0 -0.78612560519E-01 -0.68996287762E-01  0.76232780796E-01  0.13099716232E+00  0.20208841393E-01 0.  0.
         14    1    1    2    0    0  0.33700412025E-02  0.21135599138E-01  0.11127526953E-01  0.24122449807E-01  0.00000000000E+00 0. -1.
     999901    1    3    3    0    0  0.75242519317E-01  0.47860688624E-01 -0.87360307749E-01  0.88881038788E+00  0.88000000000E+00 0. -1.
        -11    1    4    4    0    0 -0.55389601808E-01 -0.51175830459E-01  0.43413058909E-01  0.87016828352E-01  0.51100000000E-03 0.  1.
         11    1    4    4    0    0 -0.23222958711E-01 -0.17820457303E-01  0.32819721887E-01  0.43980333963E-01  0.51100000000E-03 0. -1.
</event>
<event>
 8    1  0.1064884E+005  0.1043930E+01  0.7957747E-01            NaN
         13   -1    0    0    0    0  0.00000000000E+00  0.00000000000E+00  0.74505805969E-08  0.10566000000E+00  0.10566000000E+00 0. -1.
     999900   -1    0    0    0    0 -0.00000000000E+00 -0.00000000000E+00 -0.74505805969E-08  0.93827000000E+00  0.93827000000E+00 0. -1.
     999902    2    1    2    0    0  0.12255491313E-01  0.17993954371E-01  0.59880716917E-02  0.10213504415E+01  0.10211008216E+01 0.  0.
     999903    2    3    3    0    0 -0.11531219866E+00 -0.50224254226E-01  0.28408993874E-01  0.12925743215E+00  0.90018864945E-02 0.  0.
         14    1    1    2    0    0 -0.12255491313E-01 -0.17993954371E-01 -0.59880716917E-02  0.22579558539E-01  0.00000000000E+00 0. -1.
     999901    1    3    3    0    0  0.12756768997E+00  0.68218208597E-01 -0.22420922183E-01  0.89209300931E+00  0.88000000000E+00 0. -1.
        -11    1    4    4    0    0 -0.24734038425E-01 -0.72622691129E-02  0.74546547066E-02  0.26839266146E-01  0.51100000000E-03 0.  1.
         11    1    4    4    0    0 -0.90578160236E-01 -0.42961985113E-01  0.20954339168E-01  0.10241816600E+00  0.51100000000E-03 0. -1.
</event>
<event>
 8    1  0.1064884E+005  0.1043930E+01  0.7957747E-01            NaN
         13   -1    0    0    0    0  0.00000000000E+00  0.00000000000E+00  0.74505805969E-08  0.10566000000E+00  0.10566000000E+00 0.  1.
     999900   -1    0    0    0    0 -0.00000000000E+00 -0.00000000000E+00 -0.74505805969E-08  0.93827000000E+00  0.93827000000E+00 0. -1.
     999902    2    1    2    0    0  0.17146863563E-01  0.16309674696E-01  0.32834179716E-02  0.10200385527E+01  0.10197587204E+01 0.  0.
     999903    2    3    3    0    0 -0.84148656641E-01  0.86106673159E-01  0.45832243507E-01  0.13046404436E+00  0.20613508866E-01 0.  0.
         14    1    1    2    0    0 -0.17146863563E-01 -0.16309674696E-01 -0.32834179716E-02  0.23891447263E-01  0.00000000000E+00 0. -1.
     999901    1    3    3    0    0  0.10129552020E+00 -0.69796998463E-01 -0.42548825536E-01  0.88957450838E+00  0.88000000000E+00 0. -1.
        -11    1    4    4    0    0 -0.61364514506E-01  0.65438603671E-01  0.43242864611E-01  0.99589261227E-01  0.51100000000E-03 0.  1.
         11    1    4    4    0    0 -0.22784142134E-01  0.20668069488E-01  0.25893788962E-02  0.30874783129E-01  0.51100000000E-03 0. -1.
</event>
<event>
 8    1  0.1064884E+005  0.1043930E+01  0.7957747E-01            NaN
         13   -1    0    0    0    0  0.00000000000E+00  0.00000000000E+00  0.74505805969E-08  0.10566000000E+00  0.10566000000E+00 0. -1.
     999900   -1    0    0    0    0 -0.00000000000E+00 -0.00000000000E+00 -0.74505805969E-08  0.93827000000E+00  0.93827000000E+00 0.  1.
     999902    2    1    2    0    0  0.29557445699E-03  0.20931990826E-01 -0.11297419010E-01  0.10201420350E+01  0.10198646500E+01 0.  0.
     999903    2    3    3    0    0 -0.88993989141E-01  0.65315064475E-01 -0.70432141380E-01  0.13253885855E+00  0.20490845171E-01 0.  0.
         14    1    1    2    0    0 -0.29557445699E-03 -0.20931990826E-01  0.11297419010E-01  0.23787965034E-01  0.00000000000E+00 0.  1.
     999901    1    3    3    0    0  0.89289563598E-01 -0.44383073649E-01  0.59134722370E-01  0.88760317642E+00  0.88000000000E+00 0.  1.
        -11    1    4    4    0    0 -0.44181064472E-01  0.28206181723E-01 -0.44809967427E-01  0.68961942020E-01  0.51100000000E-03 0.  1.
         11    1    4    4    0    0 -0.44812924668E-01  0.37108882751E-01 -0.25622173952E-01  0.63576916530E-01  0.51100000000E-03 0. -1.
</event>
<event>
 8    1  0.1064884E+005  0.1043930E+01  0.7957747E-01            NaN
         13   -1    0    0    0    0  0.00000000000E+00  0.00000000000E+00  0.74505805969E-08  0.10566000000E+00  0.10566000000E+00 0. -1.
     999900   -1    0    0    0    0 -0.00000000000E+00 -0.00000000000E+00 -0.74505805969E-08  0.93827000000E+00  0.93827000000E+00 0.  1.
     999902    2    1    2    0    0 -0.19650091802E-01 -0.12749297691E-02  0.13231729373E-01  0.10202059570E+01  0.10199300782E+01 0.  0.
     999903    2    3    3    0    0 -0.25504260587E-01  0.31590215012E-01  0.12456414857E+00  0.13256340699E+00  0.20209422811E-01 0.  0.
         14    1    1    2    0    0  0.19650091802E-01  0.12749297691E-02 -0.13231729373E-01  0.23724042994E-01  0.00000000000E+00 0. -1.
     999901    1    3    3    0    0  0.58541687848E-02 -0.32865144781E-01 -0.11133241920E+00  0.88764255002E+00  0.88000000000E+00 0.  1.
        -11    1    4    4    0    0 -0.84811641909E-02  0.84857493244E-02  0.68858906990E-01  0.69898127875E-01  0.51100000000E-03 0.  1.
         11    1    4    4    0    0 -0.17023096396E-01  0.23104465688E-01  0.55705241584E-01  0.62665279115E-01  0.51100000000E-03 0. -1.
</event>
<event>
 8    1  0.1064884E+005  0.1043930E+01  0.7957747E-01            NaN
         13   -1    0    0    0    0  0.00000000000E+00  0.00000000000E+00  0.74505805969E-08  0.10566000000E+00  0.10566000000E+00 0. -1.
     999900   -1    0    0    0    0 -0.00000000000E+00 -0.00000000000E+00 -0.74505805969E-08  0.93827000000E+00  0.93827000000E+00 0. -1.
     999902    2    1    2    0    0 -0.21772748855E-01  0.39066901150E-02  0.11527591928E-01  0.10189860589E+01  0.10186807096E+01 0.  0.
     999903    2    3    3    0    0 -0.82720416697E-01 -0.36156035601E-01 -0.91324638285E-01  0.12999887035E+00  0.20238341948E-01 0.  0.
         14    1    1    2    0    0  0.21772748855E-01 -0.39066901150E-02 -0.11527591928E-01  0.24943941068E-01  0.00000000000E+00 0.  1.
     999901    1    3    3    0    0  0.60947667842E-01  0.40062725716E-01  0.10285223021E+00  0.88898718858E+00  0.88000000000E+00 0.  1.
        -11    1    4    4    0    0 -0.64221489185E-01 -0.28688548680E-01 -0.81808200990E-01  0.10789010784E+00  0.51100000000E-03 0.  1.
         11    1    4    4    0    0 -0.18498927513E-01 -0.74674869213E-02 -0.95164372945E-02  0.22108762512E-01  0.51100000000E-03 0. -1.
</event>
<event>
 8    1  0.1064884E+005  0.1043930E+01  0.7957747E-01            NaN
         13   -1    0    0    0    0  0.00000000000E+00  0.00000000000E+00  0.74505805969E-08  0.10566000000E+00  0.10566000000E+00 0.  1.
     999900   -1    0    0    0    0 -0.00000000000E+00 -0.00000000000E+00 -0.74505805969E-08  0.93827000000E+00  0.93827000000E+00 0.  1.
     999902    2    1    2    0    0  0.10849038026E-01  0.20158420079E-01 -0.29886746781E-02  0.10208433003E+01  0.10205822104E+01 0.  0.
     999903    2    3    3    0    0  0.77093326566E-01  0.10585753863E+00  0.19888653614E-01  0.13390699097E+00  0.19655131696E-01 0.  0.
         14    1    1    2    0    0 -0.10849038026E-01 -0.20158420079E-01  0.29886746781E-02  0.23086699689E-01  0.00000000000E+00 0.  1.
     999901    1    3    3    0    0 -0.66244288540E-01 -0.85699118548E-01 -0.22877328292E-01  0.88693630934E+00  0.88000000000E+00 0.  1.
        -11    1    4    4    0    0  0.64657084025E-01  0.74498142460E-01  0.13421015174E-01  0.99553485694E-01  0.51100000000E-03 0. -1.
         11    1    4    4    0    0  0.12436242541E-01  0.31359396167E-01  0.64676384399E-02  0.34353505273E-01  0.51100000000E-03 0.  1.
</event>
<event>
 8    1  0.1064884E+005  0.1043930E+01  0.7957747E-01            NaN
         13   -1    0    0    0    0  0.00000000000E+00  0.00000000000E+00  0.74505805969E-08  0.10566000000E+00  0.10566000000E+00 0. -1.
     999900   -1    0    0    0    0 -0.00000000000E+00 -0.00000000000E+00 -0.74505805969E-08  0.93827000000E+00  0.93827000000E+00 0.  1.
     999902    2    1    2    0    0  0.22315632886E-01 -0.78392538749E-02  0.10101193709E-02  0.10202559274E+01  0.10199812232E+01 0.  0.
     999903    2    3    3    0    0  0.10742152408E-03  0.35873509441E-01 -0.12353613945E+00  0.13013471042E+00  0.19670914770E-01 0.  0.
         14    1    1    2    0    0 -0.22315632886E-01  0.78392538749E-02 -0.10101193709E-02  0.23674072602E-01  0.00000000000E+00 0.  1.
     999901    1    3    3    0    0  0.22208211362E-01 -0.43712763316E-01  0.12454625882E+00  0.89012121698E+00  0.88000000000E+00 0. -1.
        -11    1    4    4    0    0  0.96331781481E-02  0.22375561320E-01 -0.71713019090E-01  0.75739567556E-01  0.51100000000E-03 0. -1.
         11    1    4    4    0    0 -0.95257566240E-02  0.13497948121E-01 -0.51823120356E-01  0.54395142864E-01  0.51100000000E-03 0.  1.
</event>
<event>
 8    1  0.1064884E+005  0.1043930E+01  0.7957747E-01            NaN
         13   -1    0    0    0    0  0.00000000000E+00  0.00000000000E+00  0.74505805969E-08  0.10566000000E+00  0.10566000000E+00 0.  1.
     999900   -1    0    0    0    0 -0.00000000000E+00 -0.00000000000E+00 -0.74505805969E-08  0.93827000000E+00  0.93827000000E+00 0.  1.
     999902    2    1    2    0    0  0.92413306937E-02  0.19024728423E-01 -0.94553723155E-02  0.10207622088E+01  0.10204992603E+01 0.  0.
     999903    2    3    3    0    0  0.59877216857E-01 -0.10126565868E+00 -0.51857702714E-01  0.13012663357E+00  0.20092404222E-01 0.  0.
         14    1    1    2    0    0 -0.92413306937E-02 -0.19024728423E-01  0.94553723155E-02  0.23167791223E-01  0.00000000000E+00 0.  1.
     999901    1    3    3    0    0 -0.50635886163E-01  0.12029038710E+00  0.42402330398E-01  0.89063557520E+00  0.88000000000E+00 0.  1.
        -11    1    4    4    0    0  0.32876204952E-01 -0.36684133742E-01 -0.23823484928E-01  0.54721020418E-01  0.51100000000E-03 0.  1.
         11    1    4    4    0    0  0.27001011905E-01 -0.64581524938E-01 -0.28034217786E-01  0.75405613154E-01  0.51100000000E-03 0. -1.
</event>
<event>
 8    1  0.1064884E+005  0.1043930E+01  0.7957747E-01            NaN
         13   -1    0    0    0    0  0.00000000000E+00  0.00000000000E+00  0.74505805969E-08  0.10566000000E+00  0.10566000000E+00 0. -1.
     999900   -1    0    0    0    0 -0.00000000000E+00 -0.00000000000E+00 -0.74505805969E-08  0.93827000000E+00  0.93827000000E+00 0.  1.
     999902    2    1    2    0    0  0.14698586561E-01 -0.18072858316E-01 -0.51538863570E-02  0.10200712658E+01  0.10197922083E+01 0.  0.
     999903    2    3    3    0    0  0.38905622597E-01  0.16254435742E-01 -0.12128939297E+00  0.13144772365E+00  0.28098630814E-01 0.  0.
         14    1    1    2    0    0 -0.14698586561E-01  0.18072858316E-01  0.51538863570E-02  0.23858734233E-01  0.00000000000E+00 0.  1.
     999901    1    3    3    0    0 -0.24207036035E-01 -0.34327294058E-01  0.11613550662E+00  0.88862354212E+00  0.88000000000E+00 0. -1.
        -11    1    4    4    0    0 -0.45175017336E-02  0.17326296918E-02 -0.10758146935E-01  0.11807145042E-01  0.51100000000E-03 0.  1.
         11    1    4    4    0    0  0.43423124330E-01  0.14521806050E-01 -0.11053124604E+00  0.11964057861E+00  0.51100000000E-03 0. -1.
</event>
<event>
 8    1  0.1064884E+005  0.1043930E+01  0.7957747E-01            NaN
         13   -1    0    0    0    0  0.00000000000E+00  0.00000000000E+00  0.74505805969E-08  0.10566000000E+00  0.10566000000E+00 0. -1.
     999900   -1    0    0    0    0 -0.00000000000E+00 -0.00000000000E+00 -0.74505805969E-08  0.93827000000E+00  0.93827000000E+00 0.  1.
     999902    2    1    2    0    0 -0.22002432915E-01  0.29373437543E-02 -0.10893192993E-01  0.10192035628E+01  0.10189035802E+01 0.  0.
     999903    2    3    3    0    0 -0.12424508782E+00  0.32604801534E-01 -0.26655594236E-01  0.13264720711E+00  0.19617490146E-01 0.  0.
         14    1    1    2    0    0  0.22002432915E-01 -0.29373437543E-02  0.10893192993E-01  0.24726437190E-01  0.00000000000E+00 0.  1.
     999901    1    3    3    0    0  0.10224265491E+00 -0.29667457779E-01  0.15762401243E-01  0.88655635570E+00  0.88000000000E+00 0. -1.
        -11    1    4    4    0    0 -0.88108627046E-01  0.21130780603E-01 -0.97503750286E-02  0.91131613522E-01  0.51100000000E-03 0. -1.
         11    1    4    4    0    0 -0.36136460777E-01  0.11474020930E-01 -0.16905219208E-01  0.41515593591E-01  0.51100000000E-03 0.  1.
</event>
<event>
 8    1  0.1064884E+005  0.1043930E+01  0.7957747E-01            NaN
         13   -1    0    0    0    0  0.00000000000E+00  0.00000000000E+00  0.74505805969E-08  0.10566000000E+00  0.10566000000E+00 0. -1.
     999900   -1    0    0    0    0 -0.00000000000E+00 -0.00000000000E+00 -0.74505805969E-08  0.93827000000E+00  0.93827000000E+00 0.  1.
     999902    2    1    2    0    0 -0.13956541624E-01  0.15912456789E-01 -0.10446064671E-01  0.10203267883E+01  0.10200537453E+01 0.  0.
     999903    2    3    3    0    0 -0.22753152992E-01  0.46127100894E-01  0.11807632801E+00  0.13043448555E+00  0.20632992432E-01 0.  0.
         14    1    1    2    0    0  0.13956541624E-01 -0.15912456789E-01  0.10446064671E-01  0.23603211694E-01  0.00000000000E+00 0. -1.
     999901    1    3    3    0    0  0.87966113675E-02 -0.30214644105E-01 -0.12852239268E+00  0.88989230276E+00  0.88000000000E+00 0.  1.
        -11    1    4    4    0    0 -0.15125110249E-01  0.36623270789E-01  0.66290412072E-01  0.77231552989E-01  0.51100000000E-03 0. -1.
         11    1    4    4    0    0 -0.76280427422E-02  0.95038301045E-02  0.51785915933E-01  0.53202932558E-01  0.51100000000E-03 0.  1.
</event>
<event>
 8    1  0.1064884E+005  0.1043930E+01  0.7957747E-01            NaN
         13   -1    0    0    0    0  0.00000000000E+00  0.00000000000E+00  0.74505805969E-08  0.10566000000E+00  0.10566000000E+00 0. -1.
     999900   -1    0    0    0    0 -0.00000000000E+00 -0.00000000000E+00 -0.74505805969E-08  0.93827000000E+00  0.93827000000E+00 0. -1.
     999902    2    1    2    0    0 -0.22682193192E-01  0.76247517810E-02  0.10185093607E-02  0.10199788813E+01  0.10196976327E+01 0.  0.
     999903    2    3    3    0    0  0.57927422286E-01 -0.54764517091E-02  0.11348623386E+00  0.12907005276E+00  0.19858888853E-01 0.  0.
         14    1    1    2    0    0  0.22682193192E-01 -0.76247517810E-02 -0.10185093607E-02  0.23951118743E-01  0.00000000000E+00 0.  1.
     999901    1    3    3    0    0 -0.80609615478E-01  0.13101203490E-01 -0.11246772450E+00  0.89090882850E+00  0.88000000000E+00 0. -1.
        -11    1    4    4    0    0  0.31979610913E-01 -0.12565244889E-01  0.58259080058E-01  0.67638468518E-01  0.51100000000E-03 0.  1.
         11    1    4    4    0    0  0.25947811373E-01  0.70887931801E-02  0.55227153806E-01  0.61431584241E-01  0.51100000000E-03 0. -1.
</event>
<event>
 8    1  0.1064884E+005  0.1043930E+01  0.7957747E-01            NaN
         13   -1    0    0    0    0  0.00000000000E+00  0.00000000000E+00  0.74505805969E-08  0.10566000000E+00  0.10566000000E+00 0. -1.
     999900   -1    0    0    0    0 -0.00000000000E+00 -0.00000000000E+00 -0.74505805969E-08  0.93827000000E+00  0.93827000000E+00 0. -1.
     999902    2    1    2    0    0 -0.38919193696E-02  0.23038499153E-01  0.38777920160E-03  0.10205618625E+01  0.10202942934E+01 0.  0.
     999903    2    3    3    0    0 -0.47831927746E-01  0.30471678468E-01  0.11725124514E+00  0.13171820570E+00  0.19631982169E-01 0.  0.
         14    1    1    2    0    0  0.38919193696E-02 -0.23038499153E-01 -0.38777920160E-03  0.23368137545E-01  0.00000000000E+00 0. -1.
     999901    1    3    3    0    0  0.43940008376E-01 -0.74331793152E-02 -0.11686346594E+00  0.88884365676E+00  0.88000000000E+00 0. -1.
        -11    1    4    4    0    0 -0.11583262463E-01  0.17617449247E-01  0.49584103356E-01  0.53883122718E-01  0.51100000000E-03 0.  1.
         11    1    4    4    0    0 -0.36248665283E-01  0.12854229221E-01  0.67667141785E-01  0.77835082977E-01  0.51100000000E-03 0. -1.
</event>
<event>
 8    1  0.1064884E+005  0.1043930E+01  0.7957747E-01            NaN
         13   -1    0    0    0    0  0.00000000000E+00  0.00000000000E+00  0.74505805969E-08  0.10566000000E+00  0.10566000000E+00 0.  1.
     999900   -1    0    0    0    0 -0.00000000000E+00 -0.00000000000E+00 -0.74505805969E-08  0.93827000000E+00  0.93827000000E+00 0.  1.
     999902    2    1    2    0    0  0.17004181100E-02 -0.12941291648E-01 -0.19889664692E-01  0.10201399346E+01  0.10198625000E+01 0.  0.
     999903    2    3    3    0    0  0.73209169912E-01  0.84188172643E-01 -0.65049350444E-01  0.13076541749E+00  0.20516955118E-01 0.  0.
         14    1    1    2    0    0 -0.17004181100E-02  0.12941291648E-01  0.19889664692E-01  0.23790065423E-01  0.00000000000E+00 0. -1.
     999901    1    3    3    0    0 -0.71508751802E-01 -0.97129464291E-01  0.45159685752E-01  0.88937451708E+00  0.88000000000E+00 0. -1.
        -11    1    4    4    0    0  0.48058560710E-01  0.39746963733E-01 -0.36275428051E-01  0.72149942375E-01  0.51100000000E-03 0.  1.
         11    1    4    4    0    0  0.25150609202E-01  0.44441208910E-01 -0.28773922393E-01  0.58615475119E-01  0.51100000000E-03 0. -1.
</event>
<event>
 8    1  0.1064884E+005  0.1043930E+01  0.7957747E-01            NaN
         13   -1    0    0    0    0  0.00000000000E+00  0.00000000000E+00  0.74505805969E-08  0.10566000000E+00  0.10566000000E+00 0. -1.
     999900   -1    0    0    0    0 -0.00000000000E+00 -0.00000000000E+00 -0.74505805969E-08  0.93827000000E+00  0.93827000000E+00 0.  1.
     999902    2    1    2    0    0  0.22832272982E-01 -0.54482947293E-02  0.43371723663E-02  0.10200593555E+01  0.10197800160E+01 0.  0.
     999903    2    3    3    0    0 -0.81817004934E-01 -0.87667899891E-01  0.41693462200E-01  0.12926924148E+00  0.24341508461E-01 0.  0.
         14    1    1    2    0    0 -0.22832272982E-01  0.54482947293E-02 -0.43371723663E-02  0.23870644506E-01  0.00000000000E+00 0. -1.
     999901    1    3    3    0    0  0.10464927792E+00  0.82219605161E-01 -0.37356289834E-01  0.89079011402E+00  0.88000000000E+00 0.  1.
        -11    1    4    4    0    0 -0.20901096436E-01 -0.37377201796E-01  0.20501069821E-01  0.47481217667E-01  0.51100000000E-03 0.  1.
         11    1    4    4    0    0 -0.60915908498E-01 -0.50290698095E-01  0.21192392379E-01  0.81788023810E-01  0.51100000000E-03 0. -1.
</event>
<event>
 8    1  0.1064884E+005  0.1043930E+01  0.7957747E-01            NaN
         13   -1    0    0    0    0  0.00000000000E+00  0.00000000000E+00  0.74505805969E-08  0.10566000000E+00  0.10566000000E+00 0. -1.
     999900   -1    0    0    0    0 -0.00000000000E+00 -0.00000000000E+00 -0.74505805969E-08  0.93827000000E+00  0.93827000000E+00 0.  1.
     999902    2    1    2    0    0  0.10797289945E-01  0.18941788555E-01 -0.10050754648E-01  0.10199218661E+01  0.10196392610E+01 0.  0.
     999903    2    3    3    0    0  0.42140693732E-01  0.11968651096E+00  0.33195569640E-01  0.13256503111E+00  0.19257275406E-01 0.  0.
         14    1    1    2    0    0 -0.10797289945E-01 -0.18941788555E-01  0.10050754648E-01  0.24008133888E-01  0.00000000000E+00 0. -1.
     999901    1    3    3    0    0 -0.31343403788E-01 -0.10074472241E+00 -0.43246324288E-01  0.88735683500E+00  0.88000000000E+00 0.  1.
        -11    1    4    4    0    0  0.99695254847E-02  0.56373009918E-01  0.12619790498E-01  0.58624465190E-01  0.51100000000E-03 0.  1.
         11    1    4    4    0    0  0.32171168248E-01  0.63313501043E-01  0.20575779142E-01  0.73940565923E-01  0.51100000000E-03 0. -1.
</event>
<event>
 8    1  0.1064884E+005  0.1043930E+01  0.7957747E-01            NaN
         13   -1    0    0    0    0  0.00000000000E+00  0.00000000000E+00  0.74505805969E-08  0.10566000000E+00  0.10566000000E+00 0.  1.
     999900   -1    0    0    0    0 -0.00000000000E+00 -0.00000000000E+00 -0.74505805969E-08  0.93827000000E+00  0.93827000000E+00 0. -1.
     999902    2    1    2    0    0 -0.18624653216E-01  0.16643007293E-01  0.52487246830E-02  0.10184071375E+01  0.10180872660E+01 0.  0.
     999903    2    3    3    0    0  0.34099247741E-01 -0.28749012825E-01  0.11882022336E+00  0.12838537904E+00  0.19372548553E-01 0.  0.
         14    1    1    2    0    0  0.18624653216E-01 -0.16643007293E-01 -0.52487246830E-02  0.25522862496E-01  0.00000000000E+00 0. -1.
     999901    1    3    3    0    0 -0.52723900957E-01  0.45392020119E-01 -0.11357149868E+00  0.89002175846E+00  0.88000000000E+00 0. -1.
        -11    1    4    4    0    0  0.20982929124E-01 -0.23051962557E-01  0.57396027040E-01  0.65316470613E-01  0.51100000000E-03 0. -1.
         11    1    4    4    0    0  0.13116318617E-01 -0.56970502680E-02  0.61424196321E-01  0.63068908430E-01  0.51100000000E-03 0.  1.
</event>
<event>
 8    1  0.1064884E+005  0.1043930E+01  0.7957747E-01            NaN
         13   -1    0    0    0    0  0.00000000000E+00  0.00000000000E+00  0.74505805969E-08  0.10566000000E+00  0.10566000000E+00 0. -1.
     999900   -1    0    0    0    0 -0.00000000000E+00 -0.00000000000E+00 -0.74505805969E-08  0.93827000000E+00  0.93827000000E+00 0. -1.
     999902    2    1    2    0    0  0.20614127974E-01 -0.78634274125E-02  0.11952702398E-02  0.10218346513E+01  0.10215957372E+01 0.  0.
     999903    2    3    3    0    0 -0.55164513164E-02  0.11527955249E+00 -0.58206197004E-01  0.13089383679E+00  0.20625922544E-01 0.  0.
         14    1    1    2    0    0 -0.20614127974E-01  0.78634274125E-02 -0.11952702398E-02  0.22095348690E-01  0.00000000000E+00 0. -1.
     999901    1    3    3    0    0  0.26130579290E-01 -0.12314297991E+00  0.59401467243E-01  0.89094081452E+00  0.88000000000E+00 0.  1.
        -11    1    4    4    0    0 -0.12840509359E-01  0.77198382275E-01 -0.35315831611E-01  0.85859990623E-01  0.51100000000E-03 0. -1.
         11    1    4    4    0    0  0.73240580425E-02  0.38081170219E-01 -0.22890365392E-01  0.45033846163E-01  0.51100000000E-03 0.  1.
</event>
<event>
 8    1  0.1064884E+005  0.1043930E+01  0.7957747E-01            NaN
         13   -1    0    0    0    0  0.00000000000E+00  0.00000000000E+00  0.74505805969E-08  0.10566000000E+00  0.10566000000E+00 0.  1.
     999900   -1    0    0    0    0 -0.00000000000E+00 -0.00000000000E+00 -0.74505805969E-08  0.93827000000E+00  0.93827000000E+00 0. -1.
     999902    2    1    2    0    0  0.10877185821E-01  0.14226679880E-01  0.14440366208E-01  0.10209248752E+01  0.10206656480E+01 0.  0.
     999903    2    3    3    0    0  0.12061064728E-01 -0.85082335132E-02 -0.12674391626E+00  0.12938055240E+00  0.21388027312E-01 0.  0.
         14    1    1    2    0    0 -0.10877185821E-01 -0.14226679880E-01 -0.14440366208E-01  0.23005124821E-01  0.00000000000E+00 0. -1.
     999901    1    3    3    0    0 -0.11838789072E-02  0.22734913394E-01  0.14118428247E+00  0.89154432277E+00  0.88000000000E+00 0.  1.
        -11    1    4    4    0    0  0.11744929692E-02  0.61825328939E-02 -0.54178391296E-01  0.54545048823E-01  0.51100000000E-03 0. -1.
         11    1    4    4    0    0  0.10886571759E-01 -0.14690766407E-01 -0.72565524962E-01  0.74835503582E-01  0.51100000000E-03 0.  1.
</event>
<event>
 8    1  0.1064884E+005  0.1043930E+01  0.7957747E-01            NaN
         13   -1    0    0    0    0  0.00000000000E+00  0.00000000000E+00  0.74505805969E-08  0.10566000000E+00  0.10566000000E+00 0.  1.
     999900   -1    0    0    0    0 -0.00000000000E+00 -0.00000000000E+00 -0.74505805969E-08  0.93827000000E+00  0.93827000000E+00 0. -1.
     999902    2    1    2    0    0 -0.49839016730E-02  0.59103774494E-02  0.14002534921E-01  0.10279349126E+01  0.10278104600E+01 0.  0.
     999903    2    3    3    0    0 -0.64883107190E-01  0.10885777029E+00 -0.49977574685E-01  0.13760939068E+00  0.19461620712E-01 0.  0.
         14    1    1    2    0    0  0.49839016730E-02 -0.59103774494E-02 -0.14002534921E-01  0.15995087424E-01  0.00000000000E+00 0. -1.
     999901    1    3    3    0    0  0.59899205517E-01 -0.10294739284E+00  0.63980109606E-01  0.89032552190E+00  0.88000000000E+00 0.  1.
        -11    1    4    4    0    0 -0.13365773872E-01  0.32278007203E-01 -0.63152265843E-02  0.35505730073E-01  0.51100000000E-03 0.  1.
         11    1    4    4    0    0 -0.51517333319E-01  0.76579763087E-01 -0.43662348100E-01  0.10210366061E+00  0.51100000000E-03 0. -1.
</event>
<event>
 8    1  0.1156960E+005  0.1043930E+01  0.7957747E-01            NaN
         13   -1    0    0    0    0  0.00000000000E+00  0.00000000000E+00  0.74505805969E-08  0.10566000000E+00  0.10566000000E+00 0. -1.
     999900   -1    0    0    0    0 -0.00000000000E+00 -0.00000000000E+00 -0.74505805969E-08  0.93827000000E+00  0.93827000000E+00 0. -1.
     999902    2    1    2    0    0 -0.14962852553E-01  0.16572808943E-01 -0.74448374522E-02  0.10203934209E+01  0.10201219353E+01 0.  0.
     999903    2    3    3    0    0  0.19654449497E-01 -0.12203742178E+00 -0.29549143583E-01  0.12859761800E+00  0.19615447167E-01 0.  0.
         14    1    1    2    0    0  0.14962852553E-01 -0.16572808943E-01  0.74448374522E-02  0.23536579137E-01  0.00000000000E+00 0. -1.
     999901    1    3    3    0    0 -0.34617302050E-01  0.13861023072E+00  0.22104306131E-01  0.89179580287E+00  0.88000000000E+00 0.  1.
        -11    1    4    4    0    0  0.70854335059E-02 -0.63411161344E-01 -0.56780821480E-02  0.64059975717E-01  0.51100000000E-03 0.  1.
         11    1    4    4    0    0  0.12569015991E-01 -0.58626260437E-01 -0.23871061436E-01  0.64537642279E-01  0.51100000000E-03 0. -1.
</event>
<event>
 8    1  0.1064884E+005  0.1043930E+01  0.7957747E-01            NaN
         13   -1    0    0    0    0  0.00000000000E+00  0.00000000000E+00  0.74505805969E-08  0.10566000000E+00  0.10566000000E+00 0. -1.
     999900   -1    0    0    0    0 -0.00000000000E+00 -0.00000000000E+00 -0.74505805969E-08  0.93827000000E+00  0.93827000000E+00 0.  1.
     999902    2    1    2    0    0  0.15982048736E-02  0.16643064661E-01 -0.16247627722E-01  0.10206162430E+01  0.10203499322E+01 0.  0.
     999903    2    3    3    0    0  0.12256418557E+00  0.38277337766E-01  0.18818964525E-01  0.13138597125E+00  0.20517939601E-01 0.  0.
         14    1    1    2    0    0 -0.15982048736E-02 -0.16643064661E-01  0.16247627722E-01  0.23313757027E-01  0.00000000000E+00 0. -1.
     999901    1    3    3    0    0 -0.12096598069E+00 -0.21634273105E-01 -0.35066592247E-01  0.88923027172E+00  0.88000000000E+00 0.  1.
        -11    1    4    4    0    0  0.48568404755E-01  0.14889744603E-01 -0.26323953582E-02  0.50870276794E-01  0.51100000000E-03 0.  1.
         11    1    4    4    0    0  0.73995780811E-01  0.23387593163E-01  0.21451359883E-01  0.80515694455E-01  0.51100000000E-03 0. -1.
</event>
<event>
 8    1  0.1064884E+005  0.1043930E+01  0.7957747E-01            NaN
         13   -1    0    0    0    0  0.00000000000E+00  0.00000000000E+00  0.74505805969E-08  0.10566000000E+00  0.10566000000E+00 0.  1.
     999900   -1    0    0    0    0 -0.00000000000E+00 -0.00000000000E+00 -0.74505805969E-08  0.93827000000E+00  0.93827000000E+00 0.  1.
     999902    2    1    2    0    0 -0.63492783579E-02 -0.13212418550E-01 -0.21527222332E-01  0.10178857561E+01  0.10175525096E+01 0.  0.
     999903    2    3    3    0    0  0.93572107607E-01 -0.38124150198E-01 -0.79159137524E-01  0.13000833471E+00  0.20659329363E-01 0.  0.
         14    1    1    2    0    0  0.63492783579E-02  0.13212418550E-01  0.21527222332E-01  0.26044243912E-01  0.00000000000E+00 0.  1.
     999901    1    3    3    0    0 -0.99921385965E-01  0.24911731648E-01  0.57631915192E-01  0.88787742138E+00  0.88000000000E+00 0. -1.
        -11    1    4    4    0    0  0.18833058869E-01 -0.15914817842E-01 -0.13757926678E-01  0.28240169985E-01  0.51100000000E-03 0. -1.
         11    1    4    4    0    0  0.74739048738E-01 -0.22209332356E-01 -0.65401210846E-01  0.10176816472E+00  0.51100000000E-03 0.  1.
</event>
<event>
 8    1  0.1064884E+005  0.1043930E+01  0.7957747E-01            NaN
         13   -1    0    0    0    0  0.00000000000E+00  0.00000000000E+00  0.74505805969E-08  0.10566000000E+00  0.10566000000E+00 0.  1.
     999900   -1    0    0    0    0 -0.00000000000E+00 -0.00000000000E+00 -0.74505805969E-08  0.93827000000E+00  0.93827000000E+00 0. -1.
     999902    2    1    2    0    0 -0.14140449345E-01 -0.12920208396E-02 -0.19078889025E-01  0.10201471147E+01  0.10198698496E+01 0.  0.
     999903    2    3    3    0    0  0.79954959971E-01 -0.28961615680E-02 -0.10209394117E+00  0.13124441015E+00  0.20018466354E-01 0.  0.
         14    1    1    2    0    0  0.14140449345E-01  0.12920208396E-02  0.19078889025E-01  0.23782885274E-01  0.00000000000E+00 0.  1.
     999901    1    3    3    0    0 -0.94095409317E-01  0.16041407283E-02  0.83015052149E-01  0.88890270458E+00  0.88000000000E+00 0.  1.
        -11    1    4    4    0    0  0.42027661534E-01  0.66340775198E-02 -0.43972728026E-01  0.61189845968E-01  0.51100000000E-03 0.  1.
         11    1    4    4    0    0  0.37927298437E-01 -0.95302390878E-02 -0.58121213147E-01  0.70054564181E-01  0.51100000000E-03 0. -1.
</event>
<event>
 8    1  0.1064884E+005  0.1043930E+01  0.7957747E-01            NaN
         13   -1    0    0    0    0  0.00000000000E+00  0.00000000000E+00  0.74505805969E-08  0.10566000000E+00  0.10566000000E+00 0. -1.
     999900   -1    0    0    0    0 -0.00000000000E+00 -0.00000000000E+00 -0.74505805969E-08  0.93827000000E+00  0.93827000000E+00 0. -1.
     999902    2    1    2    0    0 -0.20353616463E-01 -0.27721678921E-02  0.11354794274E-01  0.10204590398E+01  0.10201890835E+01 0.  0.
     999903    2    3    3    0    0 -0.11020648929E+00 -0.51526837217E-02 -0.71163678196E-01  0.13203993609E+00  0.14080312369E-01 0.  0.
         14    1    1    2    0    0  0.20353616463E-01  0.27721678921E-02 -0.11354794274E-01  0.23470960162E-01  0.00000000000E+00 0.  1.
     999901    1    3    3    0    0  0.89852872827E-01  0.23805158297E-02  0.82518472470E-01  0.88841910375E+00  0.88000000000E+00 0.  1.
        -11    1    4    4    0    0 -0.53473386605E-01  0.43155111089E-02 -0.36362423793E-01  0.64811370115E-01  0.51100000000E-03 0.  1.
         11    1    4    4    0    0 -0.56733102684E-01 -0.94681948307E-02 -0.34801254403E-01  0.67228565972E-01  0.51100000000E-03 0. -1.
</event>
<event>
 8    1  0.1064884E+005  0.1043930E+01  0.7957747E-01            NaN
         13   -1    0    0    0    0  0.00000000000E+00  0.00000000000E+00  0.74505805969E-08  0.10566000000E+00  0.10566000000E+00 0. -1.
     999900   -1    0    0    0    0 -0.00000000000E+00 -0.00000000000E+00 -0.74505805969E-08  0.93827000000E+00  0.93827000000E+00 0.  1.
     999902    2    1    2    0    0 -0.19063048711E-01 -0.10709183129E-01 -0.10598624789E-01  0.10196314964E+01  0.10193419305E+01 0.  0.
     999903    2    3    3    0    0  0.93837443541E-01  0.37588004427E-01  0.74047821795E-01  0.12708224824E+00  0.21177677379E-01 0.  0.
         14    1    1    2    0    0  0.19063048711E-01  0.10709183129E-01  0.10598624789E-01  0.24298503593E-01  0.00000000000E+00 0.  1.
     999901    1    3    3    0    0 -0.11290049225E+00 -0.48297187556E-01 -0.84646446584E-01  0.89254924816E+00  0.88000000000E+00 0.  1.
        -11    1    4    4    0    0  0.15915231060E-01 -0.15767995013E-02  0.98611976140E-02  0.18795882947E-01  0.51100000000E-03 0.  1.
         11    1    4    4    0    0  0.77922212481E-01  0.39164803928E-01  0.64186624180E-01  0.10828636530E+00  0.51100000000E-03 0. -1.
</event>
<event>
 8    1  0.1064884E+005  0.1043930E+01  0.7957747E-01            NaN
         13   -1    0    0    0    0  0.00000000000E+00  0.00000000000E+00  0.74505805969E-08  0.10566000000E+00  0.10566000000E+00 0. -1.
     999900   -1    0    0    0    0 -0.00000000000E+00 -0.00000000000E+00 -0.74505805969E-08  0.93827000000E+00  0.93827000000E+00 0. -1.
     999902    2    1    2    0    0 -0.25992391703E-02 -0.10541103210E-01  0.20597821999E-01  0.10206460748E+01  0.10203804530E+01 0.  0.
     999903    2    3    3    0    0 -0.18607002320E-01  0.46656337129E-01 -0.11583881146E+00  0.12815363752E+00  0.21947442701E-01 0.  0.
         14    1    1    2    0    0  0.25992391703E-02  0.10541103210E-01 -0.20597821999E-01  0.23283925190E-01  0.00000000000E+00 0.  1.
     999901    1    3    3    0    0  0.16007763149E-01 -0.57197440338E-01  0.13643663346E+00  0.89249243729E+00  0.88000000000E+00 0.  1.
        -11    1    4    4    0    0 -0.82662504537E-02  0.30994947874E-01 -0.47772098567E-01  0.57545218852E-01  0.51100000000E-03 0. -1.
         11    1    4    4    0    0 -0.10340751866E-01  0.15661389255E-01 -0.68066712892E-01  0.70608418672E-01  0.51100000000E-03 0.  1.
</event>
<event>
 8    1  0.1064884E+005  0.1043930E+01  0.7957747E-01            NaN
         13   -1    0    0    0    0  0.00000000000E+00  0.00000000000E+00  0.74505805969E-08  0.10566000000E+00  0.10566000000E+00 0. -1.
     999900   -1    0    0    0    0 -0.00000000000E+00 -0.00000000000E+00 -0.74505805969E-08  0.93827000000E+00  0.93827000000E+00 0. -1.
     999902    2    1    2    0    0  0.15778592567E-01  0.15983921712E-01 -0.70361840352E-02  0.10203936956E+01  0.10201222165E+01 0.  0.
     999903    2    3    3    0    0 -0.19289279920E-02  0.18392659066E-01  0.12718002178E+00  0.13003795315E+00  0.19826765964E-01 0.  0.
         14    1    1    2    0    0 -0.15778592567E-01 -0.15983921712E-01  0.70361840352E-02  0.23536304350E-01  0.00000000000E+00 0. -1.
     999901    1    3    3    0    0  0.17707520559E-01 -0.24087373540E-02 -0.13421620582E+00  0.89035574250E+00  0.88000000000E+00 0. -1.
        -11    1    4    4    0    0 -0.47004228210E-02  0.21985544548E-01  0.10233168004E+00  0.10477352721E+00  0.51100000000E-03 0. -1.
         11    1    4    4    0    0  0.27714948291E-02 -0.35928854824E-02  0.24848341740E-01  0.25264425937E-01  0.51100000000E-03 0.  1.
</event>
<event>
 8    1  0.1064884E+005  0.1043930E+01  0.7957747E-01            NaN
         13   -1    0    0    0    0  0.00000000000E+00  0.00000000000E+00  0.74505805969E-08  0.10566000000E+00  0.10566000000E+00 0. -1.
     999900   -1    0    0    0    0 -0.00000000000E+00 -0.00000000000E+00 -0.74505805969E-08  0.93827000000E+00  0.93827000000E+00 0. -1.
     999902    2    1    2    0    0  0.19929258909E-01 -0.14718213421E-02 -0.12656315866E-01  0.10202757414E+01  0.10200015022E+01 0.  0.
     999903    2    3    3    0    0  0.48566090000E-02 -0.12903545800E+00 -0.16451000849E-02  0.13088217663E+00  0.21300275445E-01 0.  0.
         14    1    1    2    0    0 -0.19929258909E-01  0.14718213421E-02  0.12656315866E-01  0.23654258602E-01  0.00000000000E+00 0. -1.
     999901    1    3    3    0    0  0.15072649909E-01  0.12756363666E+00 -0.11011215781E-01  0.88939356476E+00  0.88000000000E+00 0.  1.
        -11    1    4    4    0    0 -0.70684431906E-02 -0.73939063300E-01  0.28176637521E-02  0.74331341444E-01  0.51100000000E-03 0.  1.
         11    1    4    4    0    0  0.11925052191E-01 -0.55096394699E-01 -0.44627638370E-02  0.56550835190E-01  0.51100000000E-03 0. -1.
</event>
<event>
 8    1  0.1064884E+005  0.1043930E+01  0.7957747E-01            NaN
         13   -1    0    0    0    0  0.00000000000E+00  0.00000000000E+00  0.74505805969E-08  0.10566000000E+00  0.10566000000E+00 0.  1.
     999900   -1    0    0    0    0 -0.00000000000E+00 -0.00000000000E+00 -0.74505805969E-08  0.93827000000E+00  0.93827000000E+00 0.  1.
     999902    2    1    2    0    0  0.50310601033E-02 -0.21393419520E-02 -0.23680498650E-01  0.10196266182E+01  0.10193369346E+01 0.  0.
     999903    2    3    3    0    0  0.86099648631E-03  0.69829392519E-01  0.10455453430E+00  0.12741525769E+00  0.20642477492E-01 0.  0.
         14    1    1    2    0    0 -0.50310601033E-02  0.21393419520E-02  0.23680498650E-01  0.24303381783E-01  0.00000000000E+00 0.  1.
     999901    1    3    3    0    0  0.41700636170E-02 -0.71968734471E-01 -0.12823503295E+00  0.89221136052E+00  0.88000000000E+00 0.  1.
        -11    1    4    4    0    0  0.73000409990E-02  0.20425740407E-01  0.21389948992E-01  0.30467893079E-01  0.51100000000E-03 0.  1.
         11    1    4    4    0    0 -0.64390445127E-02  0.49403652112E-01  0.83164585303E-01  0.96947364615E-01  0.51100000000E-03 0. -1.
</event>
<event>
 8    1  0.1064884E+005  0.1043930E+01  0.7957747E-01            NaN
         13   -1    0    0    0    0  0.00000000000E+00  0.00000000000E+00  0.74505805969E-08  0.10566000000E+00  0.10566000000E+00 0.  1.
     999900   -1    0    0    0    0 -0.00000000000E+00 -0.00000000000E+00 -0.74505805969E-08  0.93827000000E+00  0.93827000000E+00 0.  1.
     999902    2    1    2    0    0 -0.83694583549E-02 -0.20361179659E-01  0.16015559654E-02  0.10218576088E+01  0.10216191963E+01 0.  0.
     999903    2    3    3    0    0 -0.12656005299E+00 -0.35393028806E-01 -0.14119214027E-01  0.13368976672E+00  0.20087011219E-01 0.  0.
         14    1    1    2    0    0  0.83694583549E-02  0.20361179659E-01 -0.16015559654E-02  0.22072391166E-01  0.00000000000E+00 0.  1.
     999901    1    3    3    0    0  0.11819059464E+00  0.15031849146E-01  0.15720769992E-01  0.88816784211E+00  0.88000000000E+00 0.  1.
        -11    1    4    4    0    0 -0.32870695834E-01 -0.17437057011E-01 -0.82315332741E-02  0.38112371520E-01  0.51100000000E-03 0.  1.
         11    1    4    4    0    0 -0.93689357161E-01 -0.17955971795E-01 -0.58876807525E-02  0.95577395204E-01  0.51100000000E-03 0. -1.
</event>
<event>
 8    1  0.1064884E+005  0.1043930E+01  0.7957747E-01            NaN
         13   -1    0    0    0    0  0.00000000000E+00  0.00000000000E+00  0.74505805969E-08  0.10566000000E+00  0.10566000000E+00 0. -1.
     999900   -1    0    0    0    0 -0.00000000000E+00 -0.00000000000E+00 -0.74505805969E-08  0.93827000000E+00  0.93827000000E+00 0. -1.
     999902    2    1    2    0    0  0.13780074024E-01 -0.51304673119E-02  0.15370539009E-01  0.10226587611E+01  0.10224375169E+01 0.  0.
     999903    2    3    3    0    0  0.93620385192E-01  0.85971218380E-01 -0.34387136900E-01  0.13296790539E+00  0.18497615147E-01 0.  0.
         14    1    1    2    0    0 -0.13780074024E-01  0.51304673119E-02 -0.15370539009E-01  0.21271238901E-01  0.00000000000E+00 0.  1.
     999901    1    3    3    0    0 -0.79840311168E-01 -0.91101685692E-01  0.49757675909E-01  0.88969085571E+00  0.88000000000E+00 0.  1.
        -11    1    4    4    0    0  0.84254999334E-01  0.72040565972E-01 -0.24678063999E-01  0.11356943260E+00  0.51100000000E-03 0. -1.
         11    1    4    4    0    0  0.93653858579E-02  0.13930652408E-01 -0.97090729008E-02  0.19398472784E-01  0.51100000000E-03 0.  1.
</event>
<event>
 8    1  0.1064884E+005  0.1043930E+01  0.7957747E-01            NaN
         13   -1    0    0    0    0  0.00000000000E+00  0.00000000000E+00  0.74505805969E-08  0.10566000000E+00  0.10566000000E+00 0. -1.
     999900   -1    0    0    0    0 -0.00000000000E+00 -0.00000000000E+00 -0.74505805969E-08  0.93827000000E+00  0.93827000000E+00 0.  1.
     999902    2    1    2    0    0 -0.19274949270E-01 -0.54435626157E-02  0.13643448641E-01  0.10196957322E+01  0.10194077136E+01 0.  0.
     999903    2    3    3    0    0  0.69540291607E-01 -0.81915991835E-01 -0.66804276558E-01  0.12828784808E+00  0.21186758213E-01 0.  0.
         14    1    1    2    0    0  0.19274949270E-01  0.54435626157E-02 -0.13643448641E-01  0.24234267765E-01  0.00000000000E+00 0.  1.
     999901    1    3    3    0    0 -0.88815240877E-01  0.76472429219E-01  0.80447725198E-01  0.89140788415E+00  0.88000000000E+00 0.  1.
        -11    1    4    4    0    0  0.22095809941E-01 -0.41485524724E-01 -0.25103048948E-01  0.53288814643E-01  0.51100000000E-03 0.  1.
         11    1    4    4    0    0  0.47444481666E-01 -0.40430467111E-01 -0.41701227610E-01  0.74999033437E-01  0.51100000000E-03 0. -1.
</event>
<event>
 8    1  0.1064884E+005  0.1043930E+01  0.7957747E-01            NaN
         13   -1    0    0    0    0  0.00000000000E+00  0.00000000000E+00  0.74505805969E-08  0.10566000000E+00  0.10566000000E+00 0.  1.
     999900   -1    0    0    0    0 -0.00000000000E+00 -0.00000000000E+00 -0.74505805969E-08  0.93827000000E+00  0.93827000000E+00 0.  1.
     999902    2    1    2    0    0  0.63487615477E-02 -0.13989670209E-01  0.15428268790E-01  0.10221573308E+01  0.10219254179E+01 0.  0.
     999903    2    3    3    0    0  0.10702247711E-01  0.99464455923E-01  0.84233373776E-01  0.13219950369E+00  0.19332134403E-01 0.  0.
         14    1    1    2    0    0 -0.63487615477E-02  0.13989670209E-01 -0.15428268790E-01  0.21772669189E-01  0.00000000000E+00 0. -1.
     999901    1    3    3    0    0 -0.43534861631E-02 -0.11345412613E+00 -0.68805104986E-01  0.88995782712E+00  0.88000000000E+00 0. -1.
        -11    1    4    4    0    0  0.14530943975E-01  0.48095977819E-01  0.44933186854E-01  0.67406407834E-01  0.51100000000E-03 0. -1.
         11    1    4    4    0    0 -0.38286962645E-02  0.51368478104E-01  0.39300186922E-01  0.64793095859E-01  0.51100000000E-03 0.  1.
</event>
<event>
 8    1  0.1064884E+005  0.1043930E+01  0.7957747E-01            NaN
         13   -1    0    0    0    0  0.00000000000E+00  0.00000000000E+00  0.74505805969E-08  0.10566000000E+00  0.10566000000E+00 0.  1.
     999900   -1    0    0    0    0 -0.00000000000E+00 -0.00000000000E+00 -0.74505805969E-08  0.93827000000E+00  0.93827000000E+00 0. -1.
     999902    2    1    2    0    0  0.94201675693E-02 -0.20026933730E-01  0.56809375326E-02  0.10210806962E+01  0.10208250083E+01 0.  0.
     999903    2    3    3    0    0 -0.81663268033E-01 -0.77446194840E-01 -0.66666416753E-01  0.13157111030E+00  0.14133064113E-01 0.  0.
         14    1    1    2    0    0 -0.94201675693E-02  0.20026933730E-01 -0.56809375326E-02  0.22849303773E-01  0.00000000000E+00 0.  1.
     999901    1    3    3    0    0  0.91083435602E-01  0.57419261110E-01  0.72347354286E-01  0.88950958593E+00  0.88000000000E+00 0. -1.
        -11    1    4    4    0    0 -0.54123952237E-01 -0.59906602260E-01 -0.49027381120E-01  0.94457124774E-01  0.51100000000E-03 0.  1.
         11    1    4    4    0    0 -0.27539315796E-01 -0.17539592581E-01 -0.17639035633E-01  0.37113985524E-01  0.51100000000E-03 0. -1.
</event>
<event>
 8    1  0.1064884E+005  0.1043930E+01  0.7957747E-01            NaN
         13   -1    0    0    0    0  0.00000000000E+00  0.00000000000E+00  0.74505805969E-08  0.10566000000E+00  0.10566000000E+00 0. -1.
     999900   -1    0    0    0    0 -0.00000000000E+00 -0.00000000000E+00 -0.74505805969E-08  0.93827000000E+00  0.93827000000E+00 0.  1.
     999902    2    1    2    0    0 -0.46943171817E-02 -0.17425679899E-01  0.19517682091E-01  0.10173474710E+01  0.10170001209E+01 0.  0.
     999903    2    3    3    0    0  0.65710696277E-01  0.91900867729E-01 -0.49965775139E-01  0.12508231380E+00  0.19630115757E-01 0.  0.
         14    1    1    2    0    0  0.46943171817E-02  0.17425679899E-01 -0.19517682091E-01  0.26582528998E-01  0.00000000000E+00 0.  1.
     999901    1    3    3    0    0 -0.70405013458E-01 -0.10932654763E+00  0.69483457229E-01  0.89226515721E+00  0.88000000000E+00 0. -1.
        -11    1    4    4    0    0  0.16909782819E-01  0.11220820872E-01 -0.10615000920E-01  0.22908228687E-01  0.51100000000E-03 0. -1.
         11    1    4    4    0    0  0.48800913457E-01  0.80680046857E-01 -0.39350774219E-01  0.10217408511E+00  0.51100000000E-03 0.  1.
</event>
<event>
 8    1  0.1064884E+005  0.1043930E+01  0.7957747E-01            NaN
         13   -1    0    0    0    0  0.00000000000E+00  0.00000000000E+00  0.74505805969E-08  0.10566000000E+00  0.10566000000E+00 0. -1.
     999900   -1    0    0    0    0 -0.00000000000E+00 -0.00000000000E+00 -0.74505805969E-08  0.93827000000E+00  0.93827000000E+00 0. -1.
     999902    2    1    2    0    0  0.15078168477E-01 -0.11217329013E-01  0.13591082787E-01  0.10207373898E+01  0.10204738712E+01 0.  0.
     999903    2    3    3    0    0  0.58438233876E-01 -0.70562793723E-01 -0.91992298447E-01  0.13138378758E+00  0.20124155368E-01 0.  0.
         14    1    1    2    0    0 -0.15078168477E-01  0.11217329013E-01 -0.13591082787E-01  0.23192610162E-01  0.00000000000E+00 0.  1.
     999901    1    3    3    0    0 -0.43360065400E-01  0.59345464710E-01  0.10558338123E+00  0.88935360226E+00  0.88000000000E+00 0.  1.
        -11    1    4    4    0    0  0.21033700344E-01 -0.11746969574E-01 -0.24047083795E-01  0.34043078656E-01  0.51100000000E-03 0.  1.
         11    1    4    4    0    0  0.37404533532E-01 -0.58815824149E-01 -0.67945214651E-01  0.97340708926E-01  0.51100000000E-03 0. -1.
</event>
<event>
 8    1  0.1064884E+005  0.1043930E+01  0.7957747E-01            NaN
         13   -1    0    0    0    0  0.00000000000E+00  0.00000000000E+00  0.74505805969E-08  0.10566000000E+00  0.10566000000E+00 0.  1.
     999900   -1    0    0    0    0 -0.00000000000E+00 -0.00000000000E+00 -0.74505805969E-08  0.93827000000E+00  0.93827000000E+00 0. -1.
     999902    2    1    2    0    0  0.20464697397E-01  0.97694681712E-02 -0.60258532063E-02  0.10204660435E+01  0.10201962501E+01 0.  0.
     999903    2    3    3    0    0 -0.12022016936E+00  0.24393750166E-01 -0.33841645694E-01  0.12873748633E+00  0.19497159625E-01 0.  0.
         14    1    1    2    0    0 -0.20464697397E-01 -0.97694681712E-02  0.60258532063E-02  0.23463956503E-01  0.00000000000E+00 0.  1.
     999901    1    3    3    0    0  0.14068486676E+00 -0.14624281995E-01  0.27815792487E-01  0.89172855717E+00  0.88000000000E+00 0. -1.
        -11    1    4    4    0    0 -0.10153188000E+00  0.14071449512E-01 -0.31603146817E-01  0.10726485146E+00  0.51100000000E-03 0.  1.
         11    1    4    4    0    0 -0.18688289360E-01  0.10322300654E-01 -0.22384988762E-02  0.21472634869E-01  0.51100000000E-03 0. -1.
</event>
<event>
 8    1  0.1064884E+005  0.1043930E+01  0.7957747E-01            NaN
         13   -1    0    0    0    0  0.00000000000E+00  0.00000000000E+00  0.74505805969E-08  0.10566000000E+00  0.10566000000E+00 0. -1.
     999900   -1    0    0    0    0 -0.00000000000E+00 -0.00000000000E+00 -0.74505805969E-08  0.93827000000E+00  0.93827000000E+00 0.  1.
     999902    2    1    2    0    0 -0.21029447106E-01 -0.51124936020E-02  0.97388867361E-02  0.10201977192E+01  0.10199216466E+01 0.  0.
     999903    2    3    3    0    0 -0.78838453027E-02 -0.34816807652E-01  0.12547165273E+00  0.13202587422E+00  0.20330536427E-01 0.  0.
         14    1    1    2    0    0  0.21029447106E-01  0.51124936020E-02 -0.97388867361E-02  0.23732280785E-01  0.00000000000E+00 0. -1.
     999901    1    3    3    0    0 -0.13145601803E-01  0.29704314050E-01 -0.11573276600E+00  0.88817184500E+00  0.88000000000E+00 0.  1.
        -11    1    4    4    0    0 -0.87969938309E-02 -0.13148020904E-01  0.81157222794E-01  0.82686235171E-01  0.51100000000E-03 0. -1.
         11    1    4    4    0    0  0.91314852813E-03 -0.21668786748E-01  0.44314429940E-01  0.49339639047E-01  0.51100000000E-03 0.  1.
</event>
<event>
 8    1  0.1064884E+005  0.1043930E+01  0.7957747E-01            NaN
         13   -1    0    0    0    0  0.00000000000E+00  0.00000000000E+00  0.74505805969E-08  0.10566000000E+00  0.10566000000E+00 0. -1.
     999900   -1    0    0    0    0 -0.00000000000E+00 -0.00000000000E+00 -0.74505805969E-08  0.93827000000E+00  0.93827000000E+00 0. -1.
     999902    2    1    2    0    0 -0.21408919934E-01 -0.11017546599E-01  0.19053589972E-02  0.10197771828E+01  0.10194911201E+01 0.  0.
     999903    2    3    3    0    0 -0.11522057665E-01  0.11563298009E+00 -0.52689879144E-01  0.12898049108E+00  0.18867957390E-01 0.  0.
         14    1    1    2    0    0  0.21408919934E-01  0.11017546599E-01 -0.19053589972E-02  0.24152817200E-01  0.00000000000E+00 0.  1.
     999901    1    3    3    0    0 -0.98868622693E-02 -0.12665052669E+00  0.54595238141E-01  0.89079669172E+00  0.88000000000E+00 0.  1.
        -11    1    4    4    0    0 -0.12814027576E-01  0.82445360917E-01 -0.29620118735E-01  0.88538406324E-01  0.51100000000E-03 0.  1.
         11    1    4    4    0    0  0.12919699114E-02  0.33187619176E-01 -0.23069760409E-01  0.40442084753E-01  0.51100000000E-03 0. -1.
</event>
<event>
 8    1  0.1064884E+005  0.1043930E+01  0.7957747E-01            NaN
         13   -1    0    0    0    0  0.00000000000E+00  0.00000000000E+00  0.74505805969E-08  0.10566000000E+00  0.10566000000E+00 0.  1.
     999900   -1    0    0    0    0 -0.00000000000E+00 -0.00000000000E+00 -0.74505805969E-08  0.93827000000E+00  0.93827000000E+00 0. -1.
     999902    2    1    2    0    0  0.11172114787E-02  0.95935718183E-02 -0.21051050108E-01  0.10207690093E+01  0.10205062169E+01 0.  0.
     999903    2    3    3    0    0  0.41617688074E-01  0.21004228254E-01 -0.12340243175E+00  0.13383817936E+00  0.22611690109E-01 0.  0.
         14    1    1    2    0    0 -0.11172114787E-02 -0.95935718183E-02  0.21051050108E-01  0.23160990747E-01  0.00000000000E+00 0.  1.
     999901    1    3    3    0    0 -0.40500476596E-01 -0.11410656436E-01  0.10235138164E+00  0.88693082989E+00  0.88000000000E+00 0.  1.
        -11    1    4    4    0    0  0.61430551615E-02  0.14341967322E-01 -0.33475302609E-01  0.36936244518E-01  0.51100000000E-03 0.  1.
         11    1    4    4    0    0  0.35474632913E-01  0.66622609316E-02 -0.89927129137E-01  0.96901934846E-01  0.51100000000E-03 0. -1.
</event>
<event>
 8    1  0.1064884E+005  0.1043930E+01  0.7957747E-01            NaN
         13   -1    0    0    0    0  0.00000000000E+00  0.00000000000E+00  0.74505805969E-08  0.10566000000E+00  0.10566000000E+00 0. -1.
     999900   -1    0    0    0    0 -0.00000000000E+00 -0.00000000000E+00 -0.74505805969E-08  0.93827000000E+00  0.93827000000E+00 0. -1.
     999902    2    1    2    0    0 -0.20101843834E-01 -0.79901902497E-03  0.12918636571E-01  0.10200215553E+01  0.10197413199E+01 0.  0.
     999903    2    3    3    0    0  0.12129985465E+00  0.31860273981E-01 -0.13500549016E-01  0.12774410791E+00  0.20188127371E-01 0.  0.
         14    1    1    2    0    0  0.20101843834E-01  0.79901902497E-03 -0.12918636571E-01  0.23908444696E-01  0.00000000000E+00 0.  1.
     999901    1    3    3    0    0 -0.14140169848E+00 -0.32659293006E-01  0.26419185587E-01  0.89227744739E+00  0.88000000000E+00 0.  1.
        -11    1    4    4    0    0  0.68913179899E-01  0.96492306169E-02 -0.13266285037E-01  0.70840591859E-01  0.51100000000E-03 0.  1.
         11    1    4    4    0    0  0.52386674751E-01  0.22211043364E-01 -0.23426397970E-03  0.56903516055E-01  0.51100000000E-03 0. -1.
</event>
<event>
 8    1  0.1064884E+005  0.1043930E+01  0.7957747E-01            NaN
         13   -1    0    0    0    0  0.00000000000E+00  0.00000000000E+00  0.74505805969E-08  0.10566000000E+00  0.10566000000E+00 0.  1.
     999900   -1    0    0    0    0 -0.00000000000E+00 -0.00000000000E+00 -0.74505805969E-08  0.93827000000E+00  0.93827000000E+00 0. -1.
     999902    2    1    2    0    0 -0.88210995743E-04  0.18194742005E-01 -0.14329546670E-01  0.10207698548E+01  0.10205070819E+01 0.  0.
     999903    2    3    3    0    0 -0.10841251559E+00 -0.37959642516E-01 -0.60096680296E-01  0.13117326062E+00  0.20015127302E-01 0.  0.
         14    1    1    2    0    0  0.88210995743E-04 -0.18194742005E-01  0.14329546670E-01  0.23160145198E-01  0.00000000000E+00 0.  1.
     999901    1    3    3    0    0  0.10832430460E+00  0.56154384521E-01  0.45767133626E-01  0.88959659419E+00  0.88000000000E+00 0. -1.
        -11    1    4    4    0    0 -0.92504877828E-01 -0.34744131733E-01 -0.43538815926E-01  0.10798239081E+00  0.51100000000E-03 0. -1.
         11    1    4    4    0    0 -0.15907637764E-01 -0.32155107834E-02 -0.16557864370E-01  0.23190869805E-01  0.51100000000E-03 0.  1.
</event>
<event>
 8    1  0.1064884E+005  0.1043930E+01  0.7957747E-01            NaN
         13   -1    0    0    0    0  0.00000000000E+00  0.00000000000E+00  0.74505805969E-08  0.10566000000E+00  0.10566000000E+00 0.  1.
     999900   -1    0    0    0    0 -0.00000000000E+00 -0.00000000000E+00 -0.74505805969E-08  0.93827000000E+00  0.93827000000E+00 0.  1.
     999902    2    1    2    0    0  0.21884207619E-02  0.22044795664E-01  0.89883946737E-02  0.10200228161E+01  0.10197426107E+01 0.  0.
     999903    2    3    3    0    0  0.25704147410E-01 -0.98013083923E-01  0.77334950987E-01  0.12893464115E+00  0.19395340411E-01 0.  0.
         14    1    1    2    0    0 -0.21884207619E-02 -0.22044795664E-01 -0.89883946737E-02  0.23907183859E-01  0.00000000000E+00 0. -1.
     999901    1    3    3    0    0 -0.23515726648E-01  0.12005787959E+00 -0.68346556314E-01  0.89108817499E+00  0.88000000000E+00 0.  1.
        -11    1    4    4    0    0 -0.11997506979E-02 -0.25905111648E-01  0.15585550040E-01  0.30260282587E-01  0.51100000000E-03 0. -1.
         11    1    4    4    0    0  0.26903898108E-01 -0.72107972275E-01  0.61749400948E-01  0.98674358561E-01  0.51100000000E-03 0.  1.
</event>
<event>
 8    1  0.1064884E+005  0.1043930E+01  0.7957747E-01            NaN
         13   -1    0    0    0    0  0.00000000000E+00  0.00000000000E+00  0.74505805969E-08  0.10566000000E+00  0.10566000000E+00 0. -1.
     999900   -1    0    0    0    0 -0.00000000000E+00 -0.00000000000E+00 -0.74505805969E-08  0.93827000000E+00  0.93827000000E+00 0. -1.
     999902    2    1    2    0    0 -0.95914287531E-02 -0.16637210473E-01 -0.13964524211E-01  0.10201855224E+01  0.10199091626E+01 0.  0.
     999903    2    3    3    0    0 -0.10585725122E+00  0.59529663576E-01 -0.45343227654E-01  0.13111121492E+00  0.19611320736E-01 0.  0.
         14    1    1    2    0    0  0.95914287531E-02  0.16637210473E-01  0.13964524211E-01  0.23744477554E-01  0.00000000000E+00 0.  1.
     999901    1    3    3    0    0  0.96265822470E-01 -0.76166874050E-01  0.31378703443E-01  0.88907430753E+00  0.88000000000E+00 0. -1.
        -11    1    4    4    0    0 -0.22037118769E-01  0.40305840840E-02 -0.64279685086E-02  0.23312230950E-01  0.51100000000E-03 0.  1.
         11    1    4    4    0    0 -0.83820132454E-01  0.55499079492E-01 -0.38915259145E-01  0.10779898397E+00  0.51100000000E-03 0. -1.
</event>
<event>
 8    1  0.1064884E+005  0.1043930E+01  0.7957747E-01            NaN
         13   -1    0    0    0    0  0.00000000000E+00  0.00000000000E+00  0.74505805969E-08  0.10566000000E+00  0.10566000000E+00 0.  1.
     999900   -1    0    0    0    0 -0.00000000000E+00 -0.00000000000E+00 -0.74505805969E-08  0.93827000000E+00  0.93827000000E+00 0.  1.
     999902    2    1    2    0    0  0.31820411243E-02 -0.20932688427E-01  0.76271009320E-02  0.10214249895E+01  0.10211770334E+01 0.  0.
     999903    2    3    3    0    0 -0.85819946885E-01  0.72821292157E-01 -0.60605241726E-01  0.12936735942E+00  0.19872455382E-01 0.  0.
         14    1    1    2    0    0 -0.31820411243E-02  0.20932688427E-01 -0.76271009320E-02  0.22505010534E-01  0.00000000000E+00 0.  1.
     999901    1    3    3    0    0  0.89001988009E-01 -0.93753980584E-01  0.68232342658E-01  0.89205763005E+00  0.88000000000E+00 0.  1.
        -11    1    4    4    0    0 -0.16091061321E-01  0.14508054644E-01 -0.21123297990E-01  0.30263191223E-01  0.51100000000E-03 0. -1.
         11    1    4    4    0    0 -0.69728885563E-01  0.58313237513E-01 -0.39481943736E-01  0.99104168193E-01  0.51100000000E-03 0.  1.
</event>
<event>
 8    1  0.1064884E+005  0.1043930E+01  0.7957747E-01            NaN
         13   -1    0    0    0    0  0.00000000000E+00  0.00000000000E+00  0.74505805969E-08  0.10566000000E+00  0.10566000000E+00 0. -1.
     999900   -1    0    0    0    0 -0.00000000000E+00 -0.00000000000E+00 -0.74505805969E-08  0.93827000000E+00  0.93827000000E+00 0. -1.
     999902    2    1    2    0    0 -0.18699069532E-03  0.83274057624E-02  0.22304859854E-01  0.10201206022E+01  0.10198427112E+01 0.  0.
     999903    2    3    3    0    0 -0.70503442863E-01  0.10788521206E+00 -0.12555525318E-01  0.13103601300E+00  0.20070900552E-01 0.  0.
         14    1    1    2    0    0  0.18699069532E-03 -0.83274057624E-02 -0.22304859854E-01  0.23809397837E-01  0.00000000000E+00 0.  1.
     999901    1    3    3    0    0  0.70316452168E-01 -0.99557806298E-01  0.34860385172E-01  0.88908458917E+00  0.88000000000E+00 0.  1.
        -11    1    4    4    0    0 -0.34839924950E-01  0.58037786273E-01 -0.16297882709E-01  0.69628206266E-01  0.51100000000E-03 0. -1.
         11    1    4    4    0    0 -0.35663517913E-01  0.49847425788E-01  0.37423573903E-02  0.61407806730E-01  0.51100000000E-03 0.  1.
</event>
<event>
 8    1  0.1064884E+005  0.1043930E+01  0.7957747E-01            NaN
         13   -1    0    0    0    0  0.00000000000E+00  0.00000000000E+00  0.74505805969E-08  0.10566000000E+00  0.10566000000E+00 0.  1.
     999900   -1    0    0    0    0 -0.00000000000E+00 -0.00000000000E+00 -0.74505805969E-08  0.93827000000E+00  0.93827000000E+00 0.  1.
     999902    2    1    2    0    0 -0.21821527149E-01  0.32496715067E-02 -0.85350537106E-02  0.10202744181E+01  0.10200001479E+01 0.  0.
     999903    2    3    3    0    0 -0.78134851601E-01  0.10160314095E+00  0.27745705099E-01  0.13226490865E+00  0.17202576027E-01 0.  0.
         14    1    1    2    0    0  0.21821527149E-01 -0.32496715067E-02  0.85350537106E-02  0.23655581875E-01  0.00000000000E+00 0. -1.
     999901    1    3    3    0    0  0.56313324453E-01 -0.98353469445E-01 -0.36280758809E-01  0.88800950948E+00  0.88000000000E+00 0.  1.
        -11    1    4    4    0    0 -0.39731453508E-01  0.63120062558E-01  0.11116747105E-01  0.75409375295E-01  0.51100000000E-03 0. -1.
         11    1    4    4    0    0 -0.38403398094E-01  0.38483078394E-01  0.16628957994E-01  0.56855533352E-01  0.51100000000E-03 0.  1.
</event>
<event>
 8    1  0.1167901E+005  0.1043930E+01  0.7957747E-01            NaN
         13   -1    0    0    0    0  0.00000000000E+00  0.00000000000E+00  0.74505805969E-08  0.10566000000E+00  0.10566000000E+00 0. -1.
     999900   -1    0    0    0    0 -0.00000000000E+00 -0.00000000000E+00 -0.74505805969E-08  0.93827000000E+00  0.93827000000E+00 0. -1.
     999902    2    1    2    0    0 -0.26015813446E-02 -0.14974865779E-01  0.18627737940E-01  0.10198882145E+01  0.10196048071E+01 0.  0.
     999903    2    3    3    0    0 -0.75945802619E-01 -0.87524623513E-02 -0.10058561062E+00  0.12880465185E+00  0.25075939525E-01 0.  0.
         14    1    1    2    0    0  0.26015813446E-02  0.14974865779E-01 -0.18627737940E-01  0.24041785528E-01  0.00000000000E+00 0.  1.
     999901    1    3    3    0    0  0.73344221275E-01 -0.62224034280E-02  0.11921334856E+00  0.89108356262E+00  0.88000000000E+00 0.  1.
        -11    1    4    4    0    0 -0.33172275987E-01  0.72797472437E-02 -0.52051157035E-01  0.62152865451E-01  0.51100000000E-03 0. -1.
         11    1    4    4    0    0 -0.42773526632E-01 -0.16032209595E-01 -0.48534453580E-01  0.66651786401E-01  0.51100000000E-03 0.  1.
</event>
<event>
 8    1  0.1064884E+005  0.1043930E+01  0.7957747E-01            NaN
         13   -1    0    0    0    0  0.00000000000E+00  0.00000000000E+00  0.74505805969E-08  0.10566000000E+00  0.10566000000E+00 0. -1.
     999900   -1    0    0    0    0 -0.00000000000E+00 -0.00000000000E+00 -0.74505805969E-08  0.93827000000E+00  0.93827000000E+00 0.  1.
     999902    2    1    2    0    0 -0.11383969233E-01  0.76961208372E-02 -0.19975702685E-01  0.10196843049E+01  0.10193960114E+01 0.  0.
     999903    2    3    3    0    0 -0.49991012672E-01 -0.74310712317E-01 -0.94741840996E-01  0.13187486596E+00  0.19843903972E-01 0.  0.
         14    1    1    2    0    0  0.11383969233E-01 -0.76961208372E-02  0.19975702685E-01  0.24245695065E-01  0.00000000000E+00 0. -1.
     999901    1    3    3    0    0  0.38607043439E-01  0.82006833154E-01  0.74766138311E-01  0.88780943897E+00  0.88000000000E+00 0. -1.
        -11    1    4    4    0    0 -0.24134270199E-01 -0.51937897052E-01 -0.64086079970E-01  0.85949374140E-01  0.51100000000E-03 0.  1.
         11    1    4    4    0    0 -0.25856742473E-01 -0.22372815265E-01 -0.30655761026E-01  0.45925491824E-01  0.51100000000E-03 0. -1.
</event>
<event>
 8    1  0.1064884E+005  0.1043930E+01  0.7957747E-01            NaN
         13   -1    0    0    0    0  0.00000000000E+00  0.00000000000E+00  0.74505805969E-08  0.10566000000E+00  0.10566000000E+00 0.  1.
     999900   -1    0    0    0    0 -0.00000000000E+00 -0.00000000000E+00 -0.74505805969E-08  0.93827000000E+00  0.93827000000E+00 0. -1.
     999902    2    1    2    0    0  0.11639908944E-01  0.81192899859E-02  0.20017799357E-01  0.10193918126E+01  0.10190964355E+01 0.  0.
     999903    2    3    3    0    0  0.46273033801E-01 -0.40160024976E-02  0.12235599673E+00  0.13270143523E+00  0.21939896205E-01 0.  0.
         14    1    1    2    0    0 -0.11639908944E-01 -0.81192899859E-02 -0.20017799357E-01  0.24538187406E-01  0.00000000000E+00 0. -1.
     999901    1    3    3    0    0 -0.34633124857E-01  0.12135292483E-01 -0.10233819737E+00  0.88669037736E+00  0.88000000000E+00 0. -1.
        -11    1    4    4    0    0  0.17637785535E-02 -0.23355389001E-03  0.30524701707E-01  0.30580778236E-01  0.51100000000E-03 0. -1.
         11    1    4    4    0    0  0.44509255247E-01 -0.37824486076E-02  0.91831295018E-01  0.10212065700E+00  0.51100000000E-03 0.  1.
</event>
<event>
 8    1  0.1064884E+005  0.1043930E+01  0.7957747E-01            NaN
         13   -1    0    0    0    0  0.00000000000E+00  0.00000000000E+00  0.74505805969E-08  0.10566000000E+00  0.10566000000E+00 0. -1.
     999900   -1    0    0    0    0 -0.00000000000E+00 -0.00000000000E+00 -0.74505805969E-08  0.93827000000E+00  0.93827000000E+00 0.  1.
     999902    2    1    2    0    0 -0.70057675526E-02  0.10953560001E-01 -0.18773104471E-01  0.10210938290E+01  0.10208384382E+01 0.  0.
     999903    2    3    3    0    0 -0.32249292019E-02 -0.12637075782E+00  0.19755510081E-01  0.12960254066E+00  0.20653565462E-01 0.  0.
         14    1    1    2    0    0  0.70057675526E-02 -0.10953560001E-01  0.18773104471E-01  0.22836171027E-01  0.00000000000E+00 0. -1.
     999901    1    3    3    0    0 -0.37808383507E-02  0.13732431782E+00 -0.38528614551E-01  0.89149128832E+00  0.88000000000E+00 0.  1.
        -11    1    4    4    0    0 -0.43674239765E-02 -0.19281260456E-01  0.97219204991E-02  0.22036747858E-01  0.51100000000E-03 0.  1.
         11    1    4    4    0    0  0.11424947746E-02 -0.10708949736E+00  0.10033589582E-01  0.10756579280E+00  0.51100000000E-03 0. -1.
</event>
<event>
 8    1  0.1064884E+005  0.1043930E+01  0.7957747E-01            NaN
         13   -1    0    0    0    0  0.00000000000E+00  0.00000000000E+00  0.74505805969E-08  0.10566000000E+00  0.10566000000E+00 0. -1.
     999900   -1    0    0    0    0 -0.00000000000E+00 -0.00000000000E+00 -0.74505805969E-08  0.93827000000E+00  0.93827000000E+00 0. -1.
     999902    2    1    2    0    0  0.71781095185E-02  0.14616101087E-01 -0.15185363208E-01  0.10216645352E+01  0.10214218872E+01 0.  0.
     999903    2    3    3    0    0  0.57930665488E-01  0.10809740292E+00  0.47511766549E-01  0.13304453440E+00  0.20061646292E-01 0.  0.
         14    1    1    2    0    0 -0.71781095185E-02 -0.14616101087E-01  0.15185363208E-01  0.22265464806E-01  0.00000000000E+00 0. -1.
     999901    1    3    3    0    0 -0.50752555969E-01 -0.93481301831E-01 -0.62697129757E-01  0.88862000079E+00  0.88000000000E+00 0. -1.
        -11    1    4    4    0    0  0.34227283825E-01  0.82234914841E-01  0.31529604583E-01  0.94490556476E-01  0.51100000000E-03 0.  1.
         11    1    4    4    0    0  0.23703381662E-01  0.25862488077E-01  0.15982161966E-01  0.38553977926E-01  0.51100000000E-03 0. -1.
</event>
<event>
 8    1  0.1064884E+005  0.1043930E+01  0.7957747E-01            NaN
         13   -1    0    0    0    0  0.00000000000E+00  0.00000000000E+00  0.74505805969E-08  0.10566000000E+00  0.10566000000E+00 0. -1.
     999900   -1    0    0    0    0 -0.00000000000E+00 -0.00000000000E+00 -0.74505805969E-08  0.93827000000E+00  0.93827000000E+00 0. -1.
     999902    2    1    2    0    0  0.80699436284E-03  0.28620920717E-02 -0.23975379874E-01  0.10197709096E+01  0.10194846965E+01 0.  0.
     999903    2    3    3    0    0  0.10612805218E+00  0.58205657584E-01 -0.47545806737E-01  0.13145170990E+00  0.19180361390E-01 0.  0.
         14    1    1    2    0    0 -0.80699436284E-03 -0.28620920717E-02  0.23975379874E-01  0.24159090443E-01  0.00000000000E+00 0. -1.
     999901    1    3    3    0    0 -0.10532105781E+00 -0.55343565513E-01  0.23570426863E-01  0.88831919966E+00  0.88000000000E+00 0. -1.
        -11    1    4    4    0    0  0.75968956056E-02  0.79445603399E-02 -0.93233574765E-02  0.14422724343E-01  0.51100000000E-03 0. -1.
         11    1    4    4    0    0  0.98531156570E-01  0.50261097244E-01 -0.38222449260E-01  0.11702898555E+00  0.51100000000E-03 0.  1.
</event>
<event>
 8    1  0.1064884E+005  0.1043930E+01  0.7957747E-01            NaN
         13   -1    0    0    0    0  0.00000000000E+00  0.00000000000E+00  0.74505805969E-08  0.10566000000E+00  0.10566000000E+00 0. -1.
     999900   -1    0    0    0    0 -0.00000000000E+00 -0.00000000000E+00 -0.74505805969E-08  0.93827000000E+00  0.93827000000E+00 0.  1.
     999902    2    1    2    0    0 -0.21607541081E-01  0.95436805251E-02 -0.42354599291E-02  0.10199319419E+01  0.10196495768E+01 0.  0.
     999903    2    3    3    0    0 -0.20728414213E-01  0.89427423983E-01 -0.92859397730E-01  0.13187992338E+00  0.18507164222E-01 0.  0.
         14    1    1    2    0    0  0.21607541081E-01 -0.95436805251E-02  0.42354599291E-02  0.23998058053E-01  0.00000000000E+00 0. -1.
     999901    1    3    3    0    0 -0.87912686792E-03 -0.79883743457E-01  0.88623937801E-01  0.88805201857E+00  0.88000000000E+00 0. -1.
        -11    1    4    4    0    0 -0.54831182602E-02  0.19140161803E-01 -0.31857045923E-01  0.37570505395E-01  0.51100000000E-03 0.  1.
         11    1    4    4    0    0 -0.15245295952E-01  0.70287262179E-01 -0.61002351807E-01  0.94309417983E-01  0.51100000000E-03 0. -1.
</event>
<event>
 8    1  0.1064884E+005  0.1043930E+01  0.7957747E-01            NaN
         13   -1    0    0    0    0  0.00000000000E+00  0.00000000000E+00  0.74505805969E-08  0.10566000000E+00  0.10566000000E+00 0.  1.
     999900   -1    0    0    0    0 -0.00000000000E+00 -0.00000000000E+00 -0.74505805969E-08  0.93827000000E+00  0.93827000000E+00 0. -1.
     999902    2    1    2    0    0  0.20786295067E-01  0.38939631274E-02  0.57502443956E-02  0.10220142905E+01  0.10217792872E+01 0.  0.
     999903    2    3    3    0    0  0.83801842851E-01 -0.47741994032E-01  0.90956471630E-01  0.13415319074E+00  0.20541470153E-01 0.  0.
         14    1    1    2    0    0 -0.20786295067E-01 -0.38939631274E-02 -0.57502443956E-02  0.21915709481E-01  0.00000000000E+00 0. -1.
     999901    1    3    3    0    0 -0.63015547784E-01  0.51635957159E-01 -0.85206227235E-01  0.88786109978E+00  0.88000000000E+00 0. -1.
        -11    1    4    4    0    0  0.67170527965E-01 -0.40377642719E-01  0.61904293904E-01  0.99873102402E-01  0.51100000000E-03 0.  1.
         11    1    4    4    0    0  0.16631314886E-01 -0.73643513129E-02  0.29052177727E-01  0.34280088342E-01  0.51100000000E-03 0. -1.
</event>
<event>
 8    1  0.1064884E+005  0.1043930E+01  0.7957747E-01            NaN
         13   -1    0    0    0    0  0.00000000000E+00  0.00000000000E+00  0.74505805969E-08  0.10566000000E+00  0.10566000000E+00 0.  1.
     999900   -1    0    0    0    0 -0.00000000000E+00 -0.00000000000E+00 -0.74505805969E-08  0.93827000000E+00  0.93827000000E+00 0. -1.
     999902    2    1    2    0    0  0.25897977966E-01 -0.62222058774E-02  0.87626157882E-03  0.10172806296E+01  0.10169315072E+01 0.  0.
     999903    2    3    3    0    0  0.78561408364E-01 -0.96819759535E-01 -0.32619331862E-01  0.13043041202E+00  0.20052701764E-01 0.  0.
         14    1    1    2    0    0 -0.25897977966E-01  0.62222058774E-02 -0.87626157882E-03  0.26649370407E-01  0.00000000000E+00 0. -1.
     999901    1    3    3    0    0 -0.52663430397E-01  0.90597553658E-01  0.33495593441E-01  0.88685021757E+00  0.88000000000E+00 0.  1.
        -11    1    4    4    0    0  0.67827496259E-01 -0.71123865785E-01 -0.22749852679E-01  0.10088107082E+00  0.51100000000E-03 0. -1.
         11    1    4    4    0    0  0.10733912105E-01 -0.25695893750E-01 -0.98694791827E-02  0.29549341195E-01  0.51100000000E-03 0.  1.
</event>
<event>
 8    1  0.1064884E+005  0.1043930E+01  0.7957747E-01            NaN
         13   -1    0    0    0    0  0.00000000000E+00  0.00000000000E+00  0.74505805969E-08  0.10566000000E+00  0.10566000000E+00 0. -1.
     999900   -1    0    0    0    0 -0.00000000000E+00 -0.00000000000E+00 -0.74505805969E-08  0.93827000000E+00  0.93827000000E+00 0. -1.
     999902    2    1    2    0    0  0.14715988116E-01  0.17118385221E-01 -0.59153018619E-02  0.10205935432E+01  0.10203267076E+01 0.  0.
     999903    2    3    3    0    0  0.58083964427E-01 -0.11183700460E+00 -0.24584785873E-01  0.12994275668E+00  0.19986140117E-01 0.  0.
         14    1    1    2    0    0 -0.14715988116E-01 -0.17118385221E-01  0.59153018619E-02  0.23336456777E-01  0.00000000000E+00 0. -1.
     999901    1    3    3    0    0 -0.43367976310E-01  0.12895538982E+00  0.18669484011E-01  0.89065078654E+00  0.88000000000E+00 0. -1.
        -11    1    4    4    0    0  0.46678434302E-01 -0.70459437497E-01 -0.19290894022E-01  0.86693761451E-01  0.51100000000E-03 0. -1.
         11    1    4    4    0    0  0.11405530125E-01 -0.41377567101E-01 -0.52938918502E-02  0.43248995231E-01  0.51100000000E-03 0.  1.
</event>
<event>
 8    1  0.1064884E+005  0.1043930E+01  0.7957747E-01            NaN
         13   -1    0    0    0    0  0.00000000000E+00  0.00000000000E+00  0.74505805969E-08  0.10566000000E+00  0.10566000000E+00 0.  1.
     999900   -1    0    0    0    0 -0.00000000000E+00 -0.00000000000E+00 -0.74505805969E-08  0.93827000000E+00  0.93827000000E+00 0.  1.
     999902    2    1    2    0    0  0.18878955288E-01  0.13660029775E-01  0.71114897225E-02  0.10195664072E+01  0.10192752691E+01 0.  0.
     999903    2    3    3    0    0  0.11038351655E+00  0.68669638188E-01  0.19304768207E-01  0.13302942674E+00  0.20594037227E-01 0.  0.
         14    1    1    2    0    0 -0.18878955288E-01 -0.13660029775E-01 -0.71114897225E-02  0.24363592762E-01  0.00000000000E+00 0. -1.
     999901    1    3    3    0    0 -0.91504561259E-01 -0.55009608413E-01 -0.12193278484E-01  0.88653698050E+00  0.88000000000E+00 0.  1.
        -11    1    4    4    0    0  0.99757348813E-01  0.57269399941E-01  0.22249931372E-01  0.11716071602E+00  0.51100000000E-03 0. -1.
         11    1    4    4    0    0  0.10626167734E-01  0.11400238247E-01 -0.29451631652E-02  0.15868710719E-01  0.51100000000E-03 0.  1.
</event>
<event>
 8    1  0.1064884E+005  0.1043930E+01  0.7957747E-01            NaN
         13   -1    0    0    0    0  0.00000000000E+00  0.00000000000E+00  0.74505805969E-08  0.10566000000E+00  0.10566000000E+00 0.  1.
     999900   -1    0    0    0    0 -0.00000000000E+00 -0.00000000000E+00 -0.74505805969E-08  0.93827000000E+00  0.93827000000E+00 0. -1.
     999902    2    1    2    0    0  0.19353138082E-01 -0.15237385294E-01 -0.22861513641E-02  0.10191924101E+01  0.10188921535E+01 0.  0.
     999903    2    3    3    0    0  0.38012520250E-01  0.10601509529E+00  0.58880643932E-01  0.12857929916E+00  0.19533402628E-01 0.  0.
         14    1    1    2    0    0 -0.19353138082E-01  0.15237385294E-01  0.22861513641E-02  0.24737589865E-01  0.00000000000E+00 0.  1.
     999901    1    3    3    0    0 -0.18659382168E-01 -0.12125248058E+00 -0.61166795296E-01  0.89061311097E+00  0.88000000000E+00 0. -1.
        -11    1    4    4    0    0  0.17197038831E-01  0.31044308801E-01  0.26534998729E-01  0.44315398363E-01  0.51100000000E-03 0.  1.
         11    1    4    4    0    0  0.20815481420E-01  0.74970786488E-01  0.32345645202E-01  0.84263900799E-01  0.51100000000E-03 0. -1.
</event>
<event>
 8    1  0.1064884E+005  0.1043930E+01  0.7957747E-01            NaN
         13   -1    0    0    0    0  0.00000000000E+00  0.00000000000E+00  0.74505805969E-08  0.10566000000E+00  0.10566000000E+00 0. -1.
     999900   -1    0    0    0    0 -0.00000000000E+00 -0.00000000000E+00 -0.74505805969E-08  0.93827000000E+00  0.93827000000E+00 0. -1.
     999902    2    1    2    0    0  0.82178499463E-03  0.22665018510E-01  0.74535888680E-02  0.10200567015E+01  0.10197772992E+01 0.  0.
     999903    2    3    3    0    0 -0.67062033032E-03  0.73214035446E-01  0.10890752767E+00  0.13278541711E+00  0.20257657704E-01 0.  0.
         14    1    1    2    0    0 -0.82178499463E-03 -0.22665018510E-01 -0.74535888680E-02  0.23873298508E-01  0.00000000000E+00 0.  1.
     999901    1    3    3    0    0  0.14924053249E-02 -0.50549016936E-01 -0.10145393881E+00  0.88727128438E+00  0.88000000000E+00 0. -1.
        -11    1    4    4    0    0 -0.34015245756E-03  0.47647392165E-01  0.52791917464E-01  0.71117067954E-01  0.51100000000E-03 0.  1.
         11    1    4    4    0    0 -0.33046787276E-03  0.25566643281E-01  0.56115610209E-01  0.61668349157E-01  0.51100000000E-03 0. -1.
</event>
<event>
 8    1  0.1064884E+005  0.1043930E+01  0.7957747E-01            NaN
         13   -1    0    0    0    0  0.00000000000E+00  0.00000000000E+00  0.74505805969E-08  0.10566000000E+00  0.10566000000E+00 0.  1.
     999900   -1    0    0    0    0 -0.00000000000E+00 -0.00000000000E+00 -0.74505805969E-08  0.93827000000E+00  0.93827000000E+00 0.  1.
     999902    2    1    2    0    0 -0.24793931748E-02 -0.22627200514E-01  0.31798758070E-02  0.10209463275E+01  0.10206875890E+01 0.  0.
     999903    2    3    3    0    0 -0.10538418851E+00  0.17419849270E-01 -0.72458080107E-01  0.13082596285E+00  0.21353708040E-01 0.  0.
         14    1    1    2    0    0  0.24793931748E-02  0.22627200514E-01 -0.31798758070E-02  0.22983672547E-01  0.00000000000E+00 0. -1.
     999901    1    3    3    0    0  0.10290479534E+00 -0.40047049784E-01  0.75637955914E-01  0.89012036460E+00  0.88000000000E+00 0. -1.
        -11    1    4    4    0    0 -0.69715884533E-01  0.13758364420E-01 -0.35896407319E-01  0.79614133966E-01  0.51100000000E-03 0. -1.
         11    1    4    4    0    0 -0.35668303978E-01  0.36614848498E-02 -0.36561672788E-01  0.51211828888E-01  0.51100000000E-03 0.  1.
</event>
<event>
 8    1  0.1158188E+005  0.1043930E+01  0.7957747E-01            NaN
         13   -1    0    0    0    0  0.00000000000E+00  0.00000000000E+00  0.74505805969E-08  0.10566000000E+00  0.10566000000E+00 0.  1.
     999900   -1    0    0    0    0 -0.00000000000E+00 -0.00000000000E+00 -0.74505805969E-08  0.93827000000E+00  0.93827000000E+00 0.  1.
     999902    2    1    2    0    0  0.11356297092E-01  0.21694372703E-01 -0.17573397921E-04  0.10194430320E+01  0.10191489018E+01 0.  0.
     999903    2    3    3    0    0 -0.84771795603E-01 -0.57460671189E-01 -0.73506977273E-01  0.12764326548E+00  0.20038499199E-01 0.  0.
         14    1    1    2    0    0 -0.11356297092E-01 -0.21694372703E-01  0.17573397921E-04  0.24486967951E-01  0.00000000000E+00 0.  1.
     999901    1    3    3    0    0  0.96128092695E-01  0.79155043892E-01  0.73489403875E-01  0.89179976657E+00  0.88000000000E+00 0.  1.
        -11    1    4    4    0    0 -0.51035289834E-01 -0.24779728218E-01 -0.33118670363E-01  0.65694316243E-01  0.51100000000E-03 0.  1.
         11    1    4    4    0    0 -0.33736505769E-01 -0.32680942971E-01 -0.40388306910E-01  0.61948949232E-01  0.51100000000E-03 0. -1.
</event>
<event>
 8    1  0.1064884E+005  0.1043930E+01  0.7957747E-01            NaN
         13   -1    0    0    0    0  0.00000000000E+00  0.00000000000E+00  0.74505805969E-08  0.10566000000E+00  0.10566000000E+00 0. -1.
     999900   -1    0    0    0    0 -0.00000000000E+00 -0.00000000000E+00 -0.74505805969E-08  0.93827000000E+00  0.93827000000E+00 0. -1.
     999902    2    1    2    0    0  0.16985599724E-02  0.17616369663E-01 -0.17124876182E-01  0.10193031250E+01  0.10190055828E+01 0.  0.
     999903    2    3    3    0    0 -0.76380880077E-01  0.95932100449E-01  0.41840382460E-01  0.13042368756E+00  0.14923603260E-01 0.  0.
         14    1    1    2    0    0 -0.16985599724E-02 -0.17616369663E-01  0.17124876182E-01  0.24626874961E-01  0.00000000000E+00 0. -1.
     999901    1    3    3    0    0  0.78079440050E-01 -0.78315730786E-01 -0.58965258642E-01  0.88887943748E+00  0.88000000000E+00 0. -1.
        -11    1    4    4    0    0 -0.22997218041E-01  0.27819614871E-01  0.53023349692E-02  0.36485324259E-01  0.51100000000E-03 0.  1.
         11    1    4    4    0    0 -0.53383662037E-01  0.68112485578E-01  0.36538047491E-01  0.93938363300E-01  0.51100000000E-03 0. -1.
</event>
<event>
 8    1  0.1064884E+005  0.1043930E+01  0.7957747E-01            NaN
         13   -1    0    0    0    0  0.00000000000E+00  0.00000000000E+00  0.74505805969E-08  0.10566000000E+00  0.10566000000E+00 0. -1.
     999900   -1    0    0    0    0 -0.00000000000E+00 -0.00000000000E+00 -0.74505805969E-08  0.93827000000E+00  0.93827000000E+00 0.  1.
     999902    2    1    2    0    0 -0.97594917509E-02  0.89971242572E-02  0.18332337670E-01  0.10212966059E+01  0.10210457809E+01 0.  0.
     999903    2    3    3    0    0  0.46434025089E-01 -0.10693885888E+00  0.55963291570E-01  0.13111968404E+00  0.21643551334E-01 0.  0.
         14    1    1    2    0    0  0.97594917509E-02 -0.89971242572E-02 -0.18332337670E-01  0.22633394102E-01  0.00000000000E+00 0.  1.
     999901    1    3    3    0    0 -0.56193516840E-01  0.11593598314E+00 -0.37630953899E-01  0.89017692186E+00  0.88000000000E+00 0. -1.
        -11    1    4    4    0    0  0.32025384722E-01 -0.77018865381E-01  0.28903310913E-01  0.88279065434E-01  0.51100000000E-03 0.  1.
         11    1    4    4    0    0  0.14408640367E-01 -0.29919993498E-01  0.27059980657E-01  0.42840618604E-01  0.51100000000E-03 0. -1.
</event>
<event>
 8    1  0.1064884E+005  0.1043930E+01  0.7957747E-01            NaN
         13   -1    0    0    0    0  0.00000000000E+00  0.00000000000E+00  0.74505805969E-08  0.10566000000E+00  0.10566000000E+00 0. -1.
     999900   -1    0    0    0    0 -0.00000000000E+00 -0.00000000000E+00 -0.74505805969E-08  0.93827000000E+00  0.93827000000E+00 0.  1.
     999902    2    1    2    0    0  0.98246909845E-02 -0.21871035471E-01 -0.42661129497E-03  0.10199498260E+01  0.10196678866E+01 0.  0.
     999903    2    3    3    0    0  0.60228662115E-01  0.51169645867E-01 -0.10090081477E+00  0.12979783509E+00  0.20510465034E-01 0.  0.
         14    1    1    2    0    0 -0.98246909845E-02  0.21871035471E-01  0.42661129497E-03  0.23980173951E-01  0.00000000000E+00 0.  1.
     999901    1    3    3    0    0 -0.50403971130E-01 -0.73040681338E-01  0.10047420347E+00  0.89015199095E+00  0.88000000000E+00 0. -1.
        -11    1    4    4    0    0  0.32693794823E-01  0.27095493273E-01 -0.70190959824E-01  0.82037076603E-01  0.51100000000E-03 0. -1.
         11    1    4    4    0    0  0.27534867292E-01  0.24074152595E-01 -0.30709854945E-01  0.47760758492E-01  0.51100000000E-03 0.  1.
</event>
<event>
 8    1  0.1064884E+005  0.1043930E+01  0.7957747E-01            NaN
         13   -1    0    0    0    0  0.00000000000E+00  0.00000000000E+00  0.74505805969E-08  0.10566000000E+00  0.10566000000E+00 0. -1.
     999900   -1    0    0    0    0 -0.00000000000E+00 -0.00000000000E+00 -0.74505805969E-08  0.93827000000E+00  0.93827000000E+00 0.  1.
     999902    2    1    2    0    0 -0.17606287671E-01  0.46567638288E-02 -0.14981784062E-01  0.10203477891E+01  0.10200752375E+01 0.  0.
     999903    2    3    3    0    0 -0.23203847976E-01 -0.93888573647E-01  0.83463872273E-01  0.12937412878E+00  0.20444177673E-01 0.  0.
         14    1    1    2    0    0  0.17606287671E-01 -0.46567638288E-02  0.14981784062E-01  0.23582210851E-01  0.00000000000E+00 0. -1.
     999901    1    3    3    0    0  0.55975603044E-02  0.98545337475E-01 -0.98445656335E-01  0.89097366037E+00  0.88000000000E+00 0.  1.
        -11    1    4    4    0    0 -0.24292385822E-01 -0.74411510440E-01  0.73866236607E-01  0.10762748221E+00  0.51100000000E-03 0.  1.
         11    1    4    4    0    0  0.10885378458E-02 -0.19477063207E-01  0.95976356655E-02  0.21746646573E-01  0.51100000000E-03 0. -1.
</event>
<event>
 8    1  0.1064987E+005  0.1043930E+01  0.7957747E-01            NaN
         13   -1    0    0    0    0  0.00000000000E+00  0.00000000000E+00  0.74505805969E-08  0.10566000000E+00  0.10566000000E+00 0. -1.
     999900   -1    0    0    0    0 -0.00000000000E+00 -0.00000000000E+00 -0.74505805969E-08  0.93827000000E+00  0.93827000000E+00 0. -1.
     999902    2    1    2    0    0  0.20905888648E-01 -0.80668544284E-02  0.66008394946E-02  0.10205697474E+01  0.10203023610E+01 0.  0.
     999903    2    3    3    0    0  0.54246509396E-01  0.11526686929E+00  0.18431683822E-01  0.13126509020E+00  0.25722791453E-01 0.  0.
         14    1    1    2    0    0 -0.20905888648E-01  0.80668544284E-02 -0.66008394946E-02  0.23360252622E-01  0.00000000000E+00 0. -1.
     999901    1    3    3    0    0 -0.33340620747E-01 -0.12333372372E+00 -0.11830844328E-01  0.88930465718E+00  0.88000000000E+00 0. -1.
        -11    1    4    4    0    0  0.17414429257E-01  0.63716288468E-01  0.15440500960E-01  0.67835816155E-01  0.51100000000E-03 0. -1.
         11    1    4    4    0    0  0.36832080139E-01  0.51550580820E-01  0.29911828621E-02  0.63429274047E-01  0.51100000000E-03 0.  1.
</event>
<event>
 8    1  0.1064884E+005  0.1043930E+01  0.7957747E-01            NaN
         13   -1    0    0    0    0  0.00000000000E+00  0.00000000000E+00  0.74505805969E-08  0.10566000000E+00  0.10566000000E+00 0.  1.
     999900   -1    0    0    0    0 -0.00000000000E+00 -0.00000000000E+00 -0.74505805969E-08  0.93827000000E+00  0.93827000000E+00 0. -1.
     999902    2    1    2    0    0 -0.67792911285E-02 -0.18627756163E-01  0.12651329890E-01  0.10204138729E+01  0.10201428643E+01 0.  0.
     999903    2    3    3    0    0  0.58462282835E-01 -0.11677659504E+00  0.10641719512E-01  0.13255482093E+00  0.20072934404E-01 0.  0.
         14    1    1    2    0    0  0.67792911285E-02  0.18627756163E-01 -0.12651329890E-01  0.23516127144E-01  0.00000000000E+00 0. -1.
     999901    1    3    3    0    0 -0.65241573964E-01  0.98148838875E-01  0.20096103786E-02  0.88785905192E+00  0.88000000000E+00 0.  1.
        -11    1    4    4    0    0  0.54581559289E-01 -0.96605947979E-01  0.13621529955E-01  0.11179294700E+00  0.51100000000E-03 0.  1.
         11    1    4    4    0    0  0.38807235469E-02 -0.20170647059E-01 -0.29798104432E-02  0.20761873935E-01  0.51100000000E-03 0. -1.
</event>
<event>
 8    1  0.1064884E+005  0.1043930E+01  0.7957747E-01            NaN
         13   -1    0    0    0    0  0.00000000000E+00  0.00000000000E+00  0.74505805969E-08  0.10566000000E+00  0.10566000000E+00 0.  1.
     999900   -1    0    0    0    0 -0.00000000000E+00 -0.00000000000E+00 -0.74505805969E-08  0.93827000000E+00  0.93827000000E+00 0. -1.
     999902    2    1    2    0    0 -0.56757617163E-02 -0.13014896446E-01 -0.19637135292E-01  0.10196974004E+01  0.10194094219E+01 0.  0.
     999903    2    3    3    0    0 -0.90128163941E-02 -0.47431188957E-01  0.11740412484E+00  0.12841970849E+00  0.19415057405E-01 0.  0.
         14    1    1    2    0    0  0.56757617163E-02  0.13014896446E-01  0.19637135292E-01  0.24232599593E-01  0.00000000000E+00 0.  1.
     999901    1    3    3    0    0  0.33370546778E-02  0.34416292511E-01 -0.13704126013E+00  0.89127769191E+00  0.88000000000E+00 0. -1.
        -11    1    4    4    0    0  0.27294400270E-02 -0.26563203145E-01  0.76395001331E-01  0.80929048886E-01  0.51100000000E-03 0.  1.
         11    1    4    4    0    0 -0.11742256421E-01 -0.20867985813E-01  0.41009123512E-01  0.47490659607E-01  0.51100000000E-03 0. -1.
</event>
<event>
 8    1  0.1064884E+005  0.1043930E+01  0.7957747E-01            NaN
         13   -1    0    0    0    0  0.00000000000E+00  0.00000000000E+00  0.74505805969E-08  0.10566000000E+00  0.10566000000E+00 0.  1.
     999900   -1    0    0    0    0 -0.00000000000E+00 -0.00000000000E+00 -0.74505805969E-08  0.93827000000E+00  0.93827000000E+00 0.  1.
     999902    2    1    2    0    0  0.68305626132E-02  0.17117691458E-01 -0.19004933753E-01  0.10174562497E+01  0.10171117739E+01 0.  0.
     999903    2    3    3    0    0  0.44976561412E-02  0.12605656640E+00  0.23158555906E-01  0.12973395037E+00  0.19598273471E-01 0.  0.
         14    1    1    2    0    0 -0.68305626132E-02 -0.17117691458E-01  0.19004933753E-01  0.26473750271E-01  0.00000000000E+00 0.  1.
     999901    1    3    3    0    0  0.23329064720E-02 -0.10893887494E+00 -0.42163489659E-01  0.88772229936E+00  0.88000000000E+00 0.  1.
        -11    1    4    4    0    0  0.72050176284E-02  0.48197229403E-01  0.10385717340E-02  0.48746537860E-01  0.51100000000E-03 0.  1.
         11    1    4    4    0    0 -0.27073614872E-02  0.77859336995E-01  0.22119984172E-01  0.80987412506E-01  0.51100000000E-03 0. -1.
</event>
<event>
 8    1  0.1064884E+005  0.1043930E+01  0.7957747E-01            NaN
         13   -1    0    0    0    0  0.00000000000E+00  0.00000000000E+00  0.74505805969E-08  0.10566000000E+00  0.10566000000E+00 0.  1.
     999900   -1    0    0    0    0 -0.00000000000E+00 -0.00000000000E+00 -0.74505805969E-08  0.93827000000E+00  0.93827000000E+00 0. -1.
     999902    2    1    2    0    0  0.78672369460E-02 -0.20792027297E-01 -0.44799244360E-02  0.10212524442E+01  0.10210006284E+01 0.  0.
     999903    2    3    3    0    0 -0.12227611794E+00 -0.17934977522E-02 -0.40498859579E-01  0.13074943987E+00  0.22373930062E-01 0.  0.
         14    1    1    2    0    0 -0.78672369460E-02  0.20792027297E-01  0.44799244360E-02  0.22677555848E-01  0.00000000000E+00 0.  1.
     999901    1    3    3    0    0  0.13014335489E+00 -0.18998529544E-01  0.36018935143E-01  0.89050300428E+00  0.88000000000E+00 0.  1.
        -11    1    4    4    0    0 -0.71123525802E-01 -0.48277817834E-02 -0.34361765049E-01  0.79138204540E-01  0.51100000000E-03 0.  1.
         11    1    4    4    0    0 -0.51152592139E-01  0.30342840312E-02 -0.61370945291E-02  0.51611235331E-01  0.51100000000E-03 0. -1.
</event>
<event>
 8    1  0.1064884E+005  0.1043930E+01  0.7957747E-01            NaN
         13   -1    0    0    0    0  0.00000000000E+00  0.00000000000E+00  0.74505805969E-08  0.10566000000E+00  0.10566000000E+00 0. -1.
     999900   -1    0    0    0    0 -0.00000000000E+00 -0.00000000000E+00 -0.74505805969E-08  0.93827000000E+00  0.93827000000E+00 0. -1.
     999902    2    1    2    0    0  0.16464158660E-01 -0.15245406510E-01 -0.73687891245E-02  0.10203124219E+01  0.10200390426E+01 0.  0.
     999903    2    3    3    0    0 -0.72091977974E-01  0.54129185996E-01 -0.90778221175E-01  0.12923882410E+00  0.18296615812E-01 0.  0.
         14    1    1    2    0    0 -0.16464158660E-01  0.15245406510E-01  0.73687891245E-02  0.23617578055E-01  0.00000000000E+00 0.  1.
     999901    1    3    3    0    0  0.88556136634E-01 -0.69374592506E-01  0.83409432051E-01  0.89107359784E+00  0.88000000000E+00 0.  1.
        -11    1    4    4    0    0 -0.61869499548E-01  0.42641095511E-01 -0.83125590220E-01  0.11205455310E+00  0.51100000000E-03 0.  1.
         11    1    4    4    0    0 -0.10222478426E-01  0.11488090485E-01 -0.76526309556E-02  0.17184270997E-01  0.51100000000E-03 0. -1.
</event>
<event>
 8    1  0.1064884E+005  0.1043930E+01  0.7957747E-01            NaN
         13   -1    0    0    0    0  0.00000000000E+00  0.00000000000E+00  0.74505805969E-08  0.10566000000E+00  0.10566000000E+00 0. -1.
     999900   -1    0    0    0    0 -0.00000000000E+00 -0.00000000000E+00 -0.74505805969E-08  0.93827000000E+00  0.93827000000E+00 0.  1.
     999902    2    1    2    0    0  0.15689352229E-01 -0.13950330662E-01 -0.12990571162E-01  0.10192414918E+01  0.10189424400E+01 0.  0.
     999903    2    3    3    0    0  0.41945246250E-01  0.25441785859E-01  0.11701288141E+00  0.12843174302E+00  0.19900001224E-01 0.  0.
         14    1    1    2    0    0 -0.15689352229E-01  0.13950330662E-01  0.12990571162E-01  0.24688508219E-01  0.00000000000E+00 0. -1.
     999901    1    3    3    0    0 -0.26255894021E-01 -0.39392116521E-01 -0.13000345257E+00  0.89080974876E+00  0.88000000000E+00 0.  1.
        -11    1    4    4    0    0 -0.91573680369E-03  0.20666695692E-02  0.16790657626E-01  0.16949837802E-01  0.51100000000E-03 0.  1.
         11    1    4    4    0    0  0.42860983054E-01  0.23375116290E-01  0.10022222378E+00  0.11148190521E+00  0.51100000000E-03 0. -1.
</event>
<event>
 8    1  0.1064884E+005  0.1043930E+01  0.7957747E-01            NaN
         13   -1    0    0    0    0  0.00000000000E+00  0.00000000000E+00  0.74505805969E-08  0.10566000000E+00  0.10566000000E+00 0. -1.
     999900   -1    0    0    0    0 -0.00000000000E+00 -0.00000000000E+00 -0.74505805969E-08  0.93827000000E+00  0.93827000000E+00 0.  1.
     999902    2    1    2    0    0 -0.18688034272E-01  0.11104471478E-01  0.84597202948E-02  0.10206036463E+01  0.10203370443E+01 0.  0.
     999903    2    3    3    0    0 -0.12687529971E+00  0.20182465384E-01 -0.19752035427E-01  0.13348313722E+00  0.30379786594E-01 0.  0.
         14    1    1    2    0    0  0.18688034272E-01 -0.11104471478E-01 -0.84597202948E-02  0.23326353749E-01  0.00000000000E+00 0.  1.
     999901    1    3    3    0    0  0.10818726544E+00 -0.90779939059E-02  0.28211755722E-01  0.88712050903E+00  0.88000000000E+00 0. -1.
        -11    1    4    4    0    0 -0.74788649721E-01  0.67771201281E-03 -0.10463444253E-02  0.74800784611E-01  0.51100000000E-03 0. -1.
         11    1    4    4    0    0 -0.52086649991E-01  0.19504753371E-01 -0.18705691002E-01  0.58682352613E-01  0.51100000000E-03 0.  1.
</event>
<event>
 8    1  0.1064884E+005  0.1043930E+01  0.7957747E-01            NaN
         13   -1    0    0    0    0  0.00000000000E+00  0.00000000000E+00  0.74505805969E-08  0.10566000000E+00  0.10566000000E+00 0. -1.
     999900   -1    0    0    0    0 -0.00000000000E+00 -0.00000000000E+00 -0.74505805969E-08  0.93827000000E+00  0.93827000000E+00 0.  1.
     999902    2    1    2    0    0 -0.93801559627E-02  0.28056783801E-02 -0.21336102634E-01  0.10204547272E+01  0.10201846705E+01 0.  0.
     999903    2    3    3    0    0  0.91479602389E-02 -0.65535923642E-01  0.10808748124E+00  0.12817431740E+00  0.19160103766E-01 0.  0.
         14    1    1    2    0    0  0.93801559627E-02 -0.28056783801E-02  0.21336102634E-01  0.23475272792E-01  0.00000000000E+00 0.  1.
     999901    1    3    3    0    0 -0.18528116202E-01  0.68341602022E-01 -0.12942358388E+00  0.89228040980E+00  0.88000000000E+00 0.  1.
        -11    1    4    4    0    0 -0.11285893762E-02 -0.70708508298E-02  0.25327603041E-01  0.26325258635E-01  0.51100000000E-03 0.  1.
         11    1    4    4    0    0  0.10276549615E-01 -0.58465072813E-01  0.82759878202E-01  0.10184905877E+00  0.51100000000E-03 0. -1.
</event>
<event>
 8    1  0.1064884E+005  0.1043930E+01  0.7957747E-01            NaN
         13   -1    0    0    0    0  0.00000000000E+00  0.00000000000E+00  0.74505805969E-08  0.10566000000E+00  0.10566000000E+00 0. -1.
     999900   -1    0    0    0    0 -0.00000000000E+00 -0.00000000000E+00 -0.74505805969E-08  0.93827000000E+00  0.93827000000E+00 0.  1.
     999902    2    1    2    0    0 -0.23567302956E-02 -0.20911335326E-01  0.11811476559E-01  0.10197980896E+01  0.10195125278E+01 0.  0.
     999903    2    3    3    0    0  0.11353829655E-01  0.11903801234E+00 -0.38224677783E-01  0.12723021197E+00  0.20674695083E-01 0.  0.
         14    1    1    2    0    0  0.23567302956E-02  0.20911335326E-01 -0.11811476559E-01  0.24131910436E-01  0.00000000000E+00 0.  1.
     999901    1    3    3    0    0 -0.13710559951E-01 -0.13994934767E+00  0.50036154341E-01  0.89256787759E+00  0.88000000000E+00 0.  1.
        -11    1    4    4    0    0  0.94009600766E-02  0.10213364357E+00 -0.40048902977E-01  0.11010828738E+00  0.51100000000E-03 0.  1.
         11    1    4    4    0    0  0.19528695786E-02  0.16904368768E-01  0.18242251943E-02  0.17121924588E-01  0.51100000000E-03 0. -1.
</event>
<event>
 8    1  0.1064884E+005  0.1043930E+01  0.7957747E-01            NaN
         13   -1    0    0    0    0  0.00000000000E+00  0.00000000000E+00  0.74505805969E-08  0.10566000000E+00  0.10566000000E+00 0. -1.
     999900   -1    0    0    0    0 -0.00000000000E+00 -0.00000000000E+00 -0.74505805969E-08  0.93827000000E+00  0.93827000000E+00 0.  1.
     999902    2    1    2    0    0 -0.15205257817E-01 -0.17984739334E-01 -0.29927323507E-02  0.10201895880E+01  0.10199133239E+01 0.  0.
     999903    2    3    3    0    0  0.76979013675E-01 -0.89490528825E-01 -0.54433287593E-01  0.13100054818E+00  0.16243076360E-01 0.  0.
         14    1    1    2    0    0  0.15205257817E-01  0.17984739334E-01  0.29927323507E-02  0.23740411983E-01  0.00000000000E+00 0. -1.
     999901    1    3    3    0    0 -0.92184271493E-01  0.71505789491E-01  0.51440555242E-01  0.88918903984E+00  0.88000000000E+00 0. -1.
        -11    1    4    4    0    0  0.69972914035E-01 -0.78864697323E-01 -0.42932799528E-01  0.11383907756E+00  0.51100000000E-03 0. -1.
         11    1    4    4    0    0  0.70060996402E-02 -0.10625831502E-01 -0.11500488065E-01  0.17161470625E-01  0.51100000000E-03 0.  1.
</event>
<event>
 8    1  0.1064884E+005  0.1043930E+01  0.7957747E-01            NaN
         13   -1    0    0    0    0  0.00000000000E+00  0.00000000000E+00  0.74505805969E-08  0.10566000000E+00  0.10566000000E+00 0. -1.
     999900   -1    0    0    0    0 -0.00000000000E+00 -0.00000000000E+00 -0.74505805969E-08  0.93827000000E+00  0.93827000000E+00 0.  1.
     999902    2    1    2    0    0 -0.18723981217E-01  0.12029519737E-01  0.12214148097E-01  0.10185433454E+01  0.10182269218E+01 0.  0.
     999903    2    3    3    0    0  0.72151406378E-02  0.81642875337E-01  0.99835312791E-01  0.13107710615E+00  0.22282296302E-01 0.  0.
         14    1    1    2    0    0  0.18723981217E-01 -0.12029519737E-01 -0.12214148097E-01  0.25386654594E-01  0.00000000000E+00 0.  1.
     999901    1    3    3    0    0 -0.25939121855E-01 -0.69613355599E-01 -0.87621164694E-01  0.88746623926E+00  0.88000000000E+00 0.  1.
        -11    1    4    4    0    0 -0.22074169402E-02  0.68277167085E-01  0.84411839409E-01  0.10859219119E+00  0.51100000000E-03 0. -1.
         11    1    4    4    0    0  0.94225575781E-02  0.13365708252E-01  0.15423473382E-01  0.22484914955E-01  0.51100000000E-03 0.  1.
</event>
<event>
 8    1  0.1064884E+005  0.1043930E+01  0.7957747E-01            NaN
         13   -1    0    0    0    0  0.00000000000E+00  0.00000000000E+00  0.74505805969E-08  0.10566000000E+00  0.10566000000E+00 0.  1.
     999900   -1    0    0    0    0 -0.00000000000E+00 -0.00000000000E+00 -0.74505805969E-08  0.93827000000E+00  0.93827000000E+00 0. -1.
     999902    2    1    2    0    0  0.19690619096E-01  0.75644017981E-02 -0.10706558998E-01  0.10202747456E+01  0.10200004831E+01 0.  0.
     999903    2    3    3    0    0  0.89665155780E-02 -0.98307426218E-01 -0.83640969870E-01  0.13086860741E+00  0.19647699966E-01 0.  0.
         14    1    1    2    0    0 -0.19690619096E-01 -0.75644017981E-02  0.10706558998E-01  0.23655254396E-01  0.00000000000E+00 0.  1.
     999901    1    3    3    0    0  0.10724103518E-01  0.10587182802E+00  0.72934410872E-01  0.88940613819E+00  0.88000000000E+00 0.  1.
        -11    1    4    4    0    0 -0.30583628069E-02 -0.26546102767E-01 -0.31727661881E-01  0.41484392302E-01  0.51100000000E-03 0. -1.
         11    1    4    4    0    0  0.12024878385E-01 -0.71761323451E-01 -0.51913307989E-01  0.89384215111E-01  0.51100000000E-03 0.  1.
</event>
<event>
 8    1  0.1064884E+005  0.1043930E+01  0.7957747E-01            NaN
         13   -1    0    0    0    0  0.00000000000E+00  0.00000000000E+00  0.74505805969E-08  0.10566000000E+00  0.10566000000E+00 0.  1.
     999900   -1    0    0    0    0 -0.00000000000E+00 -0.00000000000E+00 -0.74505805969E-08  0.93827000000E+00  0.93827000000E+00 0. -1.
     999902    2    1    2    0    0 -0.23331043445E-01 -0.96641737751E-02 -0.13013896366E-02  0.10186430971E+01  0.10183291864E+01 0.  0.
     999903    2    3    3    0    0 -0.50125331179E-01 -0.10376876475E+00  0.59299759645E-01  0.13114881138E+00  0.20075952543E-01 0.  0.
         14    1    1    2    0    0  0.23331043445E-01  0.96641737751E-02  0.13013896366E-02  0.25286902894E-01  0.00000000000E+00 0. -1.
     999901    1    3    3    0    0  0.26794287734E-01  0.94104590970E-01 -0.60601149282E-01  0.88749428572E+00  0.88000000000E+00 0. -1.
        -11    1    4    4    0    0 -0.27386399155E-01 -0.77058369110E-01  0.38837955363E-01  0.90535379859E-01  0.51100000000E-03 0. -1.
         11    1    4    4    0    0 -0.22738932023E-01 -0.26710395636E-01  0.20461804282E-01  0.40613431523E-01  0.51100000000E-03 0.  1.
</event>
<event>
 8    1  0.1064884E+005  0.1043930E+01  0.7957747E-01            NaN
         13   -1    0    0    0    0  0.00000000000E+00  0.00000000000E+00  0.74505805969E-08  0.10566000000E+00  0.10566000000E+00 0. -1.
     999900   -1    0    0    0    0 -0.00000000000E+00 -0.00000000000E+00 -0.74505805969E-08  0.93827000000E+00  0.93827000000E+00 0.  1.
     999902    2    1    2    0    0 -0.14157394920E-01  0.13744963160E-01 -0.12469901579E-01  0.10205878859E+01  0.10203209194E+01 0.  0.
     999903    2    3    3    0    0  0.11147452846E+00 -0.42758406750E-01 -0.46668443466E-01  0.12921503957E+00  0.16239796564E-01 0.  0.
         14    1    1    2    0    0  0.14157394920E-01 -0.13744963160E-01  0.12469901579E-01  0.23342114056E-01  0.00000000000E+00 0. -1.
     999901    1    3    3    0    0 -0.12563192338E+00  0.56503369910E-01  0.34198541887E-01  0.89137284637E+00  0.88000000000E+00 0.  1.
        -11    1    4    4    0    0  0.54570494540E-01 -0.18239717983E-01 -0.14228983627E-01  0.59273529357E-01  0.51100000000E-03 0.  1.
         11    1    4    4    0    0  0.56904033921E-01 -0.24518688767E-01 -0.32439459839E-01  0.69941510214E-01  0.51100000000E-03 0. -1.
</event>
<event>
 8    1  0.1064884E+005  0.1043930E+01  0.7957747E-01            NaN
         13   -1    0    0    0    0  0.00000000000E+00  0.00000000000E+00  0.74505805969E-08  0.10566000000E+00  0.10566000000E+00 0. -1.
     999900   -1    0    0    0    0 -0.00000000000E+00 -0.00000000000E+00 -0.74505805969E-08  0.93827000000E+00  0.93827000000E+00 0.  1.
     999902    2    1    2    0    0  0.64005548995E-02  0.36971182652E-02 -0.22159522481E-01  0.10205702007E+01  0.10203028248E+01 0.  0.
     999903    2    3    3    0    0 -0.80471698694E-01 -0.59610667383E-01  0.77712864282E-01  0.12842158203E+00  0.20583670700E-01 0.  0.
         14    1    1    2    0    0 -0.64005548995E-02 -0.36971182652E-02  0.22159522481E-01  0.23359799294E-01  0.00000000000E+00 0. -1.
     999901    1    3    3    0    0  0.86872253593E-01  0.63307785648E-01 -0.99872386763E-01  0.89214861868E+00  0.88000000000E+00 0.  1.
        -11    1    4    4    0    0 -0.31446804911E-01 -0.11352343336E-01  0.26186129485E-01  0.42470598497E-01  0.51100000000E-03 0.  1.
         11    1    4    4    0    0 -0.49024893783E-01 -0.48258324047E-01  0.51526734798E-01  0.85950983532E-01  0.51100000000E-03 0. -1.
</event>
<event>
 8    1  0.1064884E+005  0.1043930E+01  0.7957747E-01            NaN
         13   -1    0    0    0    0  0.00000000000E+00  0.00000000000E+00  0.74505805969E-08  0.10566000000E+00  0.10566000000E+00 0. -1.
     999900   -1    0    0    0    0 -0.00000000000E+00 -0.00000000000E+00 -0.74505805969E-08  0.93827000000E+00  0.93827000000E+00 0. -1.
     999902    2    1    2    0    0 -0.49850029089E-02 -0.22201007592E-01 -0.11660449510E-02  0.10211463512E+01  0.10208921470E+01 0.  0.
     999903    2    3    3    0    0 -0.88227146605E-01 -0.58695173725E-01  0.77961960738E-01  0.13293335876E+00  0.19080296947E-01 0.  0.
         14    1    1    2    0    0  0.49850029089E-02  0.22201007592E-01  0.11660449510E-02  0.22783648806E-01  0.00000000000E+00 0. -1.
     999901    1    3    3    0    0  0.83242143696E-01  0.36494166133E-01 -0.79128005690E-01  0.88821299244E+00  0.88000000000E+00 0. -1.
        -11    1    4    4    0    0 -0.52394568830E-01 -0.36306430414E-01  0.58068165092E-01  0.86229465094E-01  0.51100000000E-03 0.  1.
         11    1    4    4    0    0 -0.35832577776E-01 -0.22388743311E-01  0.19893795647E-01  0.46703893663E-01  0.51100000000E-03 0. -1.
</event>
<event>
 8    1  0.1064884E+005  0.1043930E+01  0.7957747E-01            NaN
         13   -1    0    0    0    0  0.00000000000E+00  0.00000000000E+00  0.74505805969E-08  0.10566000000E+00  0.10566000000E+00 0. -1.
     999900   -1    0    0    0    0 -0.00000000000E+00 -0.00000000000E+00 -0.74505805969E-08  0.93827000000E+00  0.93827000000E+00 0.  1.
     999902    2    1    2    0    0  0.18852131017E-01 -0.76735131615E-02  0.12470008854E-01  0.10200597933E+01  0.10197804642E+01 0.  0.
     999903    2    3    3    0    0  0.78300570976E-01  0.58610485648E-01  0.87172865991E-01  0.13241785963E+00  0.19214904117E-01 0.  0.
         14    1    1    2    0    0 -0.18852131017E-01  0.76735131615E-02 -0.12470008854E-01  0.23870206721E-01  0.00000000000E+00 0.  1.
     999901    1    3    3    0    0 -0.59448439959E-01 -0.66283998809E-01 -0.74702857137E-01  0.88764193365E+00  0.88000000000E+00 0.  1.
        -11    1    4    4    0    0  0.33034241783E-01  0.36654235077E-01  0.41930594757E-01  0.64755154056E-01  0.51100000000E-03 0. -1.
         11    1    4    4    0    0  0.45266329193E-01  0.21956250571E-01  0.45242271235E-01  0.67662705571E-01  0.51100000000E-03 0.  1.
</event>
<event>
 8    1  0.1064884E+005  0.1043930E+01  0.7957747E-01            NaN
         13   -1    0    0    0    0  0.00000000000E+00  0.00000000000E+00  0.74505805969E-08  0.10566000000E+00  0.10566000000E+00 0.  1.
     999900   -1    0    0    0    0 -0.00000000000E+00 -0.00000000000E+00 -0.74505805969E-08  0.93827000000E+00  0.93827000000E+00 0. -1.
     999902    2    1    2    0    0 -0.23166310055E-01  0.46321262687E-02 -0.77429236679E-03  0.10202924442E+01  0.10200185967E+01 0.  0.
     999903    2    3    3    0    0 -0.28067411449E-01 -0.11258358230E+00 -0.56992619967E-01  0.13072848164E+00  0.19466242409E-01 0.  0.
         14    1    1    2    0    0  0.23166310055E-01 -0.46321262687E-02  0.77429236679E-03  0.23637555796E-01  0.00000000000E+00 0.  1.
     999901    1    3    3    0    0  0.49011013936E-02  0.11721570857E+00  0.56218327600E-01  0.88956396256E+00  0.88000000000E+00 0.  1.
        -11    1    4    4    0    0 -0.76543702720E-02 -0.56178372515E-01 -0.36052889232E-01  0.67191300520E-01  0.51100000000E-03 0.  1.
         11    1    4    4    0    0 -0.20413041177E-01 -0.56405209783E-01 -0.20939730736E-01  0.63537181123E-01  0.51100000000E-03 0. -1.
</event>
<event>
 7    1  0.1064884E+005  0.1043930E+01  0.7957747E-01            NaN
         13   -1    0    0    0    0  0.00000000000E+00  0.00000000000E+00  0.74505805969E-08  0.10566000000E+00  0.10566000000E+00 0. -1.
     999900   -1    0    0    0    0 -0.00000000000E+00 -0.00000000000E+00 -0.74505805969E-08  0.93827000000E+00  0.93827000000E+00 0. -1.
     999903    2    1    2    0    0 -0.16177246786E-01  0.11042376353E+00 -0.26857265080E-01  0.11656286170E+00  0.20260236319E-01 0.  0.
         14    1    1    2    0    0  0.34514154555E-01 -0.54929150825E-02 -0.18959970164E-01  0.39760274765E-01  0.00000000000E+00 0.  1.
     999901    1    1    2    0    0 -0.18336907769E-01 -0.10493084845E+00  0.45817235244E-01  0.88760686353E+00  0.88000000000E+00 0.  1.
        -11    1    3    3    0    0 -0.16248065568E-01  0.10617181092E+00 -0.29678622256E-01  0.11143399306E+00  0.51100000000E-03 0. -1.
         11    1    3    3    0    0  0.70818781497E-04  0.42519526109E-02  0.28213571757E-02  0.51288686489E-02  0.51100000000E-03 0.  1.
</event>
<event>
 8    1  0.1064884E+005  0.1043930E+01  0.7957747E-01            NaN
         13   -1    0    0    0    0  0.00000000000E+00  0.00000000000E+00  0.74505805969E-08  0.10566000000E+00  0.10566000000E+00 0. -1.
     999900   -1    0    0    0    0 -0.00000000000E+00 -0.00000000000E+00 -0.74505805969E-08  0.93827000000E+00  0.93827000000E+00 0. -1.
     999902    2    1    2    0    0 -0.16296243930E-01  0.17760536897E-01 -0.10195611947E-02  0.10198044173E+01  0.10195190071E+01 0.  0.
     999903    2    3    3    0    0 -0.96569663414E-01 -0.52977868515E-01 -0.67776217272E-01  0.13081386895E+00  0.19654471163E-01 0.  0.
         14    1    1    2    0    0  0.16296243930E-01 -0.17760536897E-01  0.10195611947E-02  0.24125582731E-01  0.00000000000E+00 0. -1.
     999901    1    3    3    0    0  0.80273419484E-01  0.70738405412E-01  0.66756656077E-01  0.88899054832E+00  0.88000000000E+00 0. -1.
        -11    1    4    4    0    0 -0.59200190379E-01 -0.39287729489E-01 -0.51779841938E-01  0.87918151604E-01  0.51100000000E-03 0. -1.
         11    1    4    4    0    0 -0.37369473036E-01 -0.13690139025E-01 -0.15996375334E-01  0.42895717342E-01  0.51100000000E-03 0.  1.
</event>
<event>
 8    1  0.1064884E+005  0.1043930E+01  0.7957747E-01            NaN
         13   -1    0    0    0    0  0.00000000000E+00  0.00000000000E+00  0.74505805969E-08  0.10566000000E+00  0.10566000000E+00 0. -1.
     999900   -1    0    0    0    0 -0.00000000000E+00 -0.00000000000E+00 -0.74505805969E-08  0.93827000000E+00  0.93827000000E+00 0.  1.
     999902    2    1    2    0    0  0.65559080514E-02 -0.21769527458E-01 -0.69408294670E-02  0.10201588543E+01  0.10198818660E+01 0.  0.
     999903    2    3    3    0    0 -0.97454683017E-01 -0.51896695704E-01 -0.68012212008E-01  0.13142066835E+00  0.21331873369E-01 0.  0.
         14    1    1    2    0    0 -0.65559080514E-02  0.21769527458E-01  0.69408294670E-02  0.23771145741E-01  0.00000000000E+00 0. -1.
     999901    1    3    3    0    0  0.10401059107E+00  0.30127168246E-01  0.61071382541E-01  0.88873818591E+00  0.88000000000E+00 0. -1.
        -11    1    4    4    0    0 -0.13402372308E-01  0.46669015526E-03 -0.78156483677E-02  0.15530192001E-01  0.51100000000E-03 0.  1.
         11    1    4    4    0    0 -0.84052310709E-01 -0.52363385859E-01 -0.60196563640E-01  0.11589047635E+00  0.51100000000E-03 0. -1.
</event>
<event>
 8    1  0.1064884E+005  0.1043930E+01  0.7957747E-01            NaN
         13   -1    0    0    0    0  0.00000000000E+00  0.00000000000E+00  0.74505805969E-08  0.10566000000E+00  0.10566000000E+00 0.  1.
     999900   -1    0    0    0    0 -0.00000000000E+00 -0.00000000000E+00 -0.74505805969E-08  0.93827000000E+00  0.93827000000E+00 0.  1.
     999902    2    1    2    0    0 -0.17251461750E-01 -0.15544123265E-01 -0.57808203436E-02  0.10199998812E+01  0.10197191315E+01 0.  0.
     999903    2    3    3    0    0 -0.17164553652E-02 -0.95966341123E-02  0.12787356357E+00  0.12975261030E+00  0.19724350827E-01 0.  0.
         14    1    1    2    0    0  0.17251461750E-01  0.15544123265E-01  0.57808203436E-02  0.23930118771E-01  0.00000000000E+00 0. -1.
     999901    1    3    3    0    0 -0.15535006384E-01 -0.59474891525E-02 -0.13365438391E+00  0.89024727093E+00  0.88000000000E+00 0.  1.
        -11    1    4    4    0    0  0.72225804703E-03  0.47512605030E-02  0.66484147736E-01  0.66659576613E-01  0.51100000000E-03 0. -1.
         11    1    4    4    0    0 -0.24387134123E-02 -0.14347894615E-01  0.61389415832E-01  0.63093033690E-01  0.51100000000E-03 0.  1.
</event>
<event>
 8    1  0.1064884E+005  0.1043930E+01  0.7957747E-01            NaN
         13   -1    0    0    0    0  0.00000000000E+00  0.00000000000E+00  0.74505805969E-08  0.10566000000E+00  0.10566000000E+00 0. -1.
     999900   -1    0    0    0    0 -0.00000000000E+00 -0.00000000000E+00 -0.74505805969E-08  0.93827000000E+00  0.93827000000E+00 0.  1.
     999902    2    1    2    0    0 -0.34841235594E-02 -0.15528889389E-01 -0.12958779689E-01  0.10234064649E+01  0.10232006533E+01 0.  0.
     999903    2    3    3    0    0 -0.11571651921E+00 -0.30518781632E-01 -0.59116139797E-01  0.13495201507E+00  0.19890186960E-01 0.  0.
         14    1    1    2    0    0  0.34841235594E-02  0.15528889389E-01  0.12958779689E-01  0.20523535116E-01  0.00000000000E+00 0. -1.
     999901    1    3    3    0    0  0.11223239565E+00  0.14989892243E-01  0.46157360108E-01  0.88845444981E+00  0.88000000000E+00 0.  1.
        -11    1    4    4    0    0 -0.21574761881E-01  0.17106263108E-03 -0.16429977837E-01  0.27123880721E-01  0.51100000000E-03 0.  1.
         11    1    4    4    0    0 -0.94141757326E-01 -0.30689844263E-01 -0.42686161960E-01  0.10782813435E+00  0.51100000000E-03 0. -1.
</event>
<event>
 8    1  0.1064884E+005  0.1043930E+01  0.7957747E-01            NaN
         13   -1    0    0    0    0  0.00000000000E+00  0.00000000000E+00  0.74505805969E-08  0.10566000000E+00  0.10566000000E+00 0. -1.
     999900   -1    0    0    0    0 -0.00000000000E+00 -0.00000000000E+00 -0.74505805969E-08  0.93827000000E+00  0.93827000000E+00 0. -1.
     999902    2    1    2    0    0 -0.13652326828E-01 -0.19702864542E-01 -0.81737497503E-02  0.10186041420E+01  0.10182892511E+01 0.  0.
     999903    2    3    3    0    0  0.10325004841E+00  0.65582952059E-01 -0.24500249455E-01  0.12663643493E+00  0.21790556009E-01 0.  0.
         14    1    1    2    0    0  0.13652326828E-01  0.19702864542E-01  0.81737497503E-02  0.25325858011E-01  0.00000000000E+00 0. -1.
     999901    1    3    3    0    0 -0.11690237523E+00 -0.85285816601E-01  0.16326499705E-01  0.89196770706E+00  0.88000000000E+00 0.  1.
        -11    1    4    4    0    0  0.23032303665E-01  0.17302340385E-01 -0.15124749345E-01  0.32540392724E-01  0.51100000000E-03 0. -1.
         11    1    4    4    0    0  0.80217744741E-01  0.48280611674E-01 -0.93755001102E-02  0.94096042203E-01  0.51100000000E-03 0.  1.
</event>
<event>
 8    1  0.1064884E+005  0.1043930E+01  0.7957747E-01            NaN
         13   -1    0    0    0    0  0.00000000000E+00  0.00000000000E+00  0.74505805969E-08  0.10566000000E+00  0.10566000000E+00 0. -1.
     999900   -1    0    0    0    0 -0.00000000000E+00 -0.00000000000E+00 -0.74505805969E-08  0.93827000000E+00  0.93827000000E+00 0.  1.
     999902    2    1    2    0    0  0.21514212527E-01 -0.10268740035E-01  0.27044781557E-03  0.10200892470E+01  0.10198106149E+01 0.  0.
     999903    2    3    3    0    0 -0.51796967685E-01  0.49545671171E-01  0.10508997700E+00  0.12883203011E+00  0.20398267647E-01 0.  0.
         14    1    1    2    0    0 -0.21514212527E-01  0.10268740035E-01 -0.27044781557E-03  0.23840753020E-01  0.00000000000E+00 0.  1.
     999901    1    3    3    0    0  0.73311180212E-01 -0.59814411206E-01 -0.10481952918E+00  0.89125721687E+00  0.88000000000E+00 0.  1.
        -11    1    4    4    0    0 -0.11293088340E-01  0.71434373851E-02  0.34871068169E-01  0.37347222898E-01  0.51100000000E-03 0.  1.
         11    1    4    4    0    0 -0.40503879344E-01  0.42402233786E-01  0.70218908827E-01  0.91484807208E-01  0.51100000000E-03 0. -1.
</event>
<event>
 8    1  0.1064884E+005  0.1043930E+01  0.7957747E-01            NaN
         13   -1    0    0    0    0  0.00000000000E+00  0.00000000000E+00  0.74505805969E-08  0.10566000000E+00  0.10566000000E+00 0. -1.
     999900   -1    0    0    0    0 -0.00000000000E+00 -0.00000000000E+00 -0.74505805969E-08  0.93827000000E+00  0.93827000000E+00 0.  1.
     999902    2    1    2    0    0 -0.64551866094E-02 -0.22241191069E-01  0.88363876133E-02  0.10191424676E+01  0.10188409825E+01 0.  0.
     999903    2    3    3    0    0 -0.67865722987E-01  0.96449167483E-01  0.46090689083E-01  0.12827404965E+00  0.20534895412E-01 0.  0.
         14    1    1    2    0    0  0.64551866094E-02  0.22241191069E-01 -0.88363876133E-02  0.24787532358E-01  0.00000000000E+00 0. -1.
     999901    1    3    3    0    0  0.61410536378E-01 -0.11869035855E+00 -0.37254301470E-01  0.89086841799E+00  0.88000000000E+00 0.  1.
        -11    1    4    4    0    0 -0.35172051250E-01  0.35039679638E-01  0.13535120436E-01  0.51461761964E-01  0.51100000000E-03 0.  1.
         11    1    4    4    0    0 -0.32693671737E-01  0.61409487845E-01  0.32555568648E-01  0.76812287689E-01  0.51100000000E-03 0. -1.
</event>
<event>
 8    1  0.1064884E+005  0.1043930E+01  0.7957747E-01            NaN
         13   -1    0    0    0    0  0.00000000000E+00  0.00000000000E+00  0.74505805969E-08  0.10566000000E+00  0.10566000000E+00 0.  1.
     999900   -1    0    0    0    0 -0.00000000000E+00 -0.00000000000E+00 -0.74505805969E-08  0.93827000000E+00  0.93827000000E+00 0. -1.
     999902    2    1    2    0    0  0.15028386784E-01 -0.69831027539E-02 -0.16572339873E-01  0.10204937336E+01  0.10202245840E+01 0.  0.
     999903    2    3    3    0    0  0.93539644300E-01 -0.90267635358E-01 -0.20915888989E-01  0.13307094973E+00  0.19300057033E-01 0.  0.
         14    1    1    2    0    0 -0.15028386784E-01  0.69831027539E-02  0.16572339873E-01  0.23436266389E-01  0.00000000000E+00 0.  1.
     999901    1    3    3    0    0 -0.78511257517E-01  0.83284532604E-01  0.43435491156E-02  0.88742278388E+00  0.88000000000E+00 0. -1.
        -11    1    4    4    0    0  0.51694277616E-01 -0.45686556394E-01 -0.18290600530E-02  0.69015696440E-01  0.51100000000E-03 0. -1.
         11    1    4    4    0    0  0.41845366684E-01 -0.44581078964E-01 -0.19086828936E-01  0.64055253293E-01  0.51100000000E-03 0.  1.
</event>
<event>
 8    1  0.1064884E+005  0.1043930E+01  0.7957747E-01            NaN
         13   -1    0    0    0    0  0.00000000000E+00  0.00000000000E+00  0.74505805969E-08  0.10566000000E+00  0.10566000000E+00 0.  1.
     999900   -1    0    0    0    0 -0.00000000000E+00 -0.00000000000E+00 -0.74505805969E-08  0.93827000000E+00  0.93827000000E+00 0.  1.
     999902    2    1    2    0    0 -0.16567558351E-01 -0.88976648257E-02 -0.11866518106E-01  0.10216933932E+01  0.10214513807E+01 0.  0.
     999903    2    3    3    0    0 -0.76782521858E-01 -0.22724885498E-01 -0.10618980592E+00  0.13449898584E+00  0.20043109229E-01 0.  0.
         14    1    1    2    0    0  0.16567558351E-01  0.88976648257E-02  0.11866518106E-01  0.22236606778E-01  0.00000000000E+00 0.  1.
     999901    1    3    3    0    0  0.60214963507E-01  0.13827220673E-01  0.94323287813E-01  0.88719440738E+00  0.88000000000E+00 0. -1.
        -11    1    4    4    0    0 -0.66822857808E-01 -0.19052606037E-01 -0.78485104364E-01  0.10482589780E+00  0.51100000000E-03 0.  1.
         11    1    4    4    0    0 -0.99596640497E-02 -0.36722794617E-02 -0.27704701555E-01  0.29673088038E-01  0.51100000000E-03 0. -1.
</event>
<event>
 8    1  0.1064884E+005  0.1043930E+01  0.7957747E-01            NaN
         13   -1    0    0    0    0  0.00000000000E+00  0.00000000000E+00  0.74505805969E-08  0.10566000000E+00  0.10566000000E+00 0.  1.
     999900   -1    0    0    0    0 -0.00000000000E+00 -0.00000000000E+00 -0.74505805969E-08  0.93827000000E+00  0.93827000000E+00 0.  1.
     999902    2    1    2    0    0 -0.35551977126E-02  0.21614542983E-01  0.45365044057E-02  0.10215602040E+01  0.10213152514E+01 0.  0.
     999903    2    3    3    0    0  0.20943282107E-01 -0.11533514279E-01  0.12836916180E+00  0.13193472315E+00  0.18880848840E-01 0.  0.
         14    1    1    2    0    0  0.35551977126E-02 -0.21614542983E-01 -0.45365044057E-02  0.22369795961E-01  0.00000000000E+00 0.  1.
     999901    1    3    3    0    0 -0.24498479820E-01  0.33148057262E-01 -0.12383265740E+00  0.88962548089E+00  0.88000000000E+00 0.  1.
        -11    1    4    4    0    0  0.17381460822E-01 -0.11937359528E-01  0.62440378159E-01  0.65906582967E-01  0.51100000000E-03 0.  1.
         11    1    4    4    0    0  0.35618212857E-02  0.40384524870E-03  0.65928783644E-01  0.66028140180E-01  0.51100000000E-03 0. -1.
</event>
<event>
 8    1  0.1064884E+005  0.1043930E+01  0.7957747E-01            NaN
         13   -1    0    0    0    0  0.00000000000E+00  0.00000000000E+00  0.74505805969E-08  0.10566000000E+00  0.10566000000E+00 0. -1.
     999900   -1    0    0    0    0 -0.00000000000E+00 -0.00000000000E+00 -0.74505805969E-08  0.93827000000E+00  0.93827000000E+00 0. -1.
     999902    2    1    2    0    0 -0.16168426176E-01 -0.17126513858E-01  0.41556977218E-02  0.10200133676E+01  0.10197329380E+01 0.  0.
     999903    2    3    3    0    0 -0.12660421159E+00 -0.33989521623E-01 -0.26598534185E-03  0.13293954034E+00  0.22111912259E-01 0.  0.
         14    1    1    2    0    0  0.16168426176E-01  0.17126513858E-01 -0.41556977218E-02  0.23916632403E-01  0.00000000000E+00 0.  1.
     999901    1    3    3    0    0  0.11043578542E+00  0.16863007766E-01  0.44216830636E-02  0.88707382726E+00  0.88000000000E+00 0. -1.
        -11    1    4    4    0    0 -0.27343433181E-01 -0.16449475631E-01  0.32441206058E-02  0.32078560225E-01  0.51100000000E-03 0. -1.
         11    1    4    4    0    0 -0.99260778411E-01 -0.17540045992E-01 -0.35101059476E-02  0.10086098011E+00  0.51100000000E-03 0.  1.
</event>
<event>
 8    1  0.1064884E+005  0.1043930E+01  0.7957747E-01            NaN
         13   -1    0    0    0    0  0.00000000000E+00  0.00000000000E+00  0.74505805969E-08  0.10566000000E+00  0.10566000000E+00 0.  1.
     999900   -1    0    0    0    0 -0.00000000000E+00 -0.00000000000E+00 -0.74505805969E-08  0.93827000000E+00  0.93827000000E+00 0. -1.
     999902    2    1    2    0    0 -0.12462745465E-01 -0.84762542836E-02  0.18191168541E-01  0.10203061662E+01  0.10200326403E+01 0.  0.
     999903    2    3    3    0    0  0.55249937421E-01  0.79505596270E-01  0.85349486150E-01  0.13079166205E+00  0.21171411187E-01 0.  0.
         14    1    1    2    0    0  0.12462745465E-01  0.84762542836E-02 -0.18191168541E-01  0.23623833814E-01  0.00000000000E+00 0. -1.
     999901    1    3    3    0    0 -0.67712682885E-01 -0.87981850553E-01 -0.67158317609E-01  0.88951450414E+00  0.88000000000E+00 0. -1.
        -11    1    4    4    0    0  0.13010503214E-01  0.36128996624E-01  0.36716181973E-01  0.53131127699E-01  0.51100000000E-03 0. -1.
         11    1    4    4    0    0  0.42239434206E-01  0.43376599645E-01  0.48633304177E-01  0.77660534347E-01  0.51100000000E-03 0.  1.
</event>
<event>
 8    1  0.1064884E+005  0.1043930E+01  0.7957747E-01            NaN
         13   -1    0    0    0    0  0.00000000000E+00  0.00000000000E+00  0.74505805969E-08  0.10566000000E+00  0.10566000000E+00 0. -1.
     999900   -1    0    0    0    0 -0.00000000000E+00 -0.00000000000E+00 -0.74505805969E-08  0.93827000000E+00  0.93827000000E+00 0.  1.
     999902    2    1    2    0    0  0.16607449587E-01 -0.32479128554E-01 -0.35549524793E-02  0.10072784126E+01  0.10066113756E+01 0.  0.
     999903    2    3    3    0    0 -0.10255652342E+00 -0.15580622514E-01 -0.52233983382E-01  0.11775311220E+00  0.19411597529E-01 0.  0.
         14    1    1    2    0    0 -0.16607449587E-01  0.32479128554E-01  0.35549524793E-02  0.36651587422E-01  0.00000000000E+00 0. -1.
     999901    1    3    3    0    0  0.11916397300E+00 -0.16898506039E-01  0.48679030903E-01  0.88952530038E+00  0.88000000000E+00 0. -1.
        -11    1    4    4    0    0 -0.64445249743E-01 -0.17910255322E-01 -0.38464663723E-01  0.77160604821E-01  0.51100000000E-03 0.  1.
         11    1    4    4    0    0 -0.38111273676E-01  0.23296328074E-02 -0.13769319659E-01  0.40592507376E-01  0.51100000000E-03 0. -1.
</event>
<event>
 8    1  0.1064884E+005  0.1043930E+01  0.7957747E-01            NaN
         13   -1    0    0    0    0  0.00000000000E+00  0.00000000000E+00  0.74505805969E-08  0.10566000000E+00  0.10566000000E+00 0. -1.
     999900   -1    0    0    0    0 -0.00000000000E+00 -0.00000000000E+00 -0.74505805969E-08  0.93827000000E+00  0.93827000000E+00 0. -1.
     999902    2    1    2    0    0 -0.49800652364E-04  0.10930579933E-01  0.21129287606E-01  0.10201407829E+01  0.10198633683E+01 0.  0.
     999903    2    3    3    0    0 -0.57125348720E-01 -0.69792338212E-01  0.92832006435E-01  0.13170671800E+00  0.24384466533E-01 0.  0.
         14    1    1    2    0    0  0.49800652364E-04 -0.10930579933E-01 -0.21129287606E-01  0.23789217149E-01  0.00000000000E+00 0.  1.
     999901    1    3    3    0    0  0.57075548067E-01  0.80722918145E-01 -0.71702718829E-01  0.88843406485E+00  0.88000000000E+00 0. -1.
        -11    1    4    4    0    0 -0.19518696713E-01 -0.89807569944E-02  0.16327607999E-01  0.26990469087E-01  0.51100000000E-03 0. -1.
         11    1    4    4    0    0 -0.37606652007E-01 -0.60811581217E-01  0.76504398436E-01  0.10471624891E+00  0.51100000000E-03 0.  1.
</event>
<event>
 8    1  0.1064884E+005  0.1043930E+01  0.7957747E-01            NaN
         13   -1    0    0    0    0  0.00000000000E+00  0.00000000000E+00  0.74505805969E-08  0.10566000000E+00  0.10566000000E+00 0. -1.
     999900   -1    0    0    0    0 -0.00000000000E+00 -0.00000000000E+00 -0.74505805969E-08  0.93827000000E+00  0.93827000000E+00 0. -1.
     999902    2    1    2    0    0 -0.14480940744E-01  0.10488616277E-01 -0.16496087435E-01  0.10196024515E+01  0.10193121845E+01 0.  0.
     999903    2    3    3    0    0  0.44263984510E-02 -0.93063946448E-01 -0.88910532064E-01  0.13037555551E+00  0.20302995635E-01 0.  0.
         14    1    1    2    0    0  0.14480940744E-01 -0.10488616277E-01  0.16496087435E-01  0.24327548518E-01  0.00000000000E+00 0. -1.
     999901    1    3    3    0    0 -0.18907339195E-01  0.10355256272E+00  0.72414444630E-01  0.88922689597E+00  0.88000000000E+00 0.  1.
        -11    1    4    4    0    0  0.11211496452E-01 -0.31961236808E-01 -0.31330242111E-01  0.46141776112E-01  0.51100000000E-03 0.  1.
         11    1    4    4    0    0 -0.67850980011E-02 -0.61102709640E-01 -0.57580289954E-01  0.84233779402E-01  0.51100000000E-03 0. -1.
</event>
<event>
 8    1  0.1064884E+005  0.1043930E+01  0.7957747E-01            NaN
         13   -1    0    0    0    0  0.00000000000E+00  0.00000000000E+00  0.74505805969E-08  0.10566000000E+00  0.10566000000E+00 0.  1.
     999900   -1    0    0    0    0 -0.00000000000E+00 -0.00000000000E+00 -0.74505805969E-08  0.93827000000E+00  0.93827000000E+00 0.  1.
     999902    2    1    2    0    0 -0.33997558505E-02 -0.64868925023E-02  0.23384828081E-01  0.10194251372E+01  0.10191305717E+01 0.  0.
     999903    2    3    3    0    0  0.12506285494E+00  0.11984118295E-01  0.27824800510E-01  0.12989518611E+00  0.17725774327E-01 0.  0.
         14    1    1    2    0    0  0.33997558505E-02  0.64868925023E-02 -0.23384828081E-01  0.24504862754E-01  0.00000000000E+00 0. -1.
     999901    1    3    3    0    0 -0.12846261079E+00 -0.18471010797E-01 -0.44399724282E-02  0.88952995113E+00  0.88000000000E+00 0. -1.
        -11    1    4    4    0    0  0.37267462043E-01 -0.44403515192E-02  0.94244652266E-02  0.38699639721E-01  0.51100000000E-03 0.  1.
         11    1    4    4    0    0  0.87795392894E-01  0.16424469814E-01  0.18400335283E-01  0.91195546391E-01  0.51100000000E-03 0. -1.
</event>
<event>
 8    1  0.1064884E+005  0.1043930E+01  0.7957747E-01            NaN
         13   -1    0    0    0    0  0.00000000000E+00  0.00000000000E+00  0.74505805969E-08  0.10566000000E+00  0.10566000000E+00 0.  1.
     999900   -1    0    0    0    0 -0.00000000000E+00 -0.00000000000E+00 -0.74505805969E-08  0.93827000000E+00  0.93827000000E+00 0.  1.
     999902    2    1    2    0    0 -0.22057385782E-01 -0.67003232604E-03 -0.71178322447E-02  0.10207429185E+01  0.10204795270E+01 0.  0.
     999903    2    3    3    0    0 -0.12087853178E-01  0.15476384276E-01 -0.12908565774E+00  0.13212812640E+00  0.20226222792E-01 0.  0.
         14    1    1    2    0    0  0.22057385782E-01  0.67003232604E-03  0.71178322447E-02  0.23187081462E-01  0.00000000000E+00 0. -1.
     999901    1    3    3    0    0 -0.99695326040E-02 -0.16146416602E-01  0.12196782549E+00  0.88861479214E+00  0.88000000000E+00 0. -1.
        -11    1    4    4    0    0 -0.14607704321E-01  0.24796469646E-02 -0.62136284959E-01  0.63880456355E-01  0.51100000000E-03 0.  1.
         11    1    4    4    0    0  0.25198511430E-02  0.12996737311E-01 -0.66949372778E-01  0.68247670047E-01  0.51100000000E-03 0. -1.
</event>
<event>
 8    1  0.1064884E+005  0.1043930E+01  0.7957747E-01            NaN
         13   -1    0    0    0    0  0.00000000000E+00  0.00000000000E+00  0.74505805969E-08  0.10566000000E+00  0.10566000000E+00 0.  1.
     999900   -1    0    0    0    0 -0.00000000000E+00 -0.00000000000E+00 -0.74505805969E-08  0.93827000000E+00  0.93827000000E+00 0. -1.
     999902    2    1    2    0    0 -0.17840170854E-01  0.22295328181E-02 -0.49857233378E-02  0.10252725631E+01  0.10251027894E+01 0.  0.
     999903    2    3    3    0    0 -0.76708717855E-01 -0.33781865115E-01 -0.10591798793E+00  0.13681904796E+00  0.21803438120E-01 0.  0.
         14    1    1    2    0    0  0.17840170854E-01 -0.22295328181E-02  0.49857233378E-02  0.18657436852E-01  0.00000000000E+00 0.  1.
     999901    1    3    3    0    0  0.58868547001E-01  0.36011397933E-01  0.10093226459E+00  0.88845351518E+00  0.88000000000E+00 0.  1.
        -11    1    4    4    0    0 -0.67214925937E-01 -0.21005784364E-01 -0.82073080057E-01  0.10814499913E+00  0.51100000000E-03 0.  1.
         11    1    4    4    0    0 -0.94937919178E-02 -0.12776080750E-01 -0.23844907869E-01  0.28674048835E-01  0.51100000000E-03 0. -1.
</event>
<event>
 8    1  0.1064884E+005  0.1043930E+01  0.7957747E-01            NaN
         13   -1    0    0    0    0  0.00000000000E+00  0.00000000000E+00  0.74505805969E-08  0.10566000000E+00  0.10566000000E+00 0.  1.
     999900   -1    0    0    0    0 -0.00000000000E+00 -0.00000000000E+00 -0.74505805969E-08  0.93827000000E+00  0.93827000000E+00 0.  1.
     999902    2    1    2    0    0  0.10087722686E-01 -0.81491717993E-02  0.20608660612E-01  0.10195807076E+01  0.10192899152E+01 0.  0.
     999903    2    3    3    0    0  0.70610630130E-02 -0.85616433407E-01  0.98971840941E-01  0.13270353156E+00  0.20851132053E-01 0.  0.
         14    1    1    2    0    0 -0.10087722686E-01  0.81491717993E-02 -0.20608660612E-01  0.24349292438E-01  0.00000000000E+00 0. -1.
     999901    1    3    3    0    0  0.30266596735E-02  0.77467261608E-01 -0.78363180329E-01  0.88687717601E+00  0.88000000000E+00 0.  1.
        -11    1    4    4    0    0  0.24149006966E-02 -0.68689528491E-02  0.19079457281E-01  0.20427948251E-01  0.51100000000E-03 0.  1.
         11    1    4    4    0    0  0.46461623164E-02 -0.78747480558E-01  0.79892383660E-01  0.11227558330E+00  0.51100000000E-03 0. -1.
</event>
<event>
 8    1  0.1064884E+005  0.1043930E+01  0.7957747E-01            NaN
         13   -1    0    0    0    0  0.00000000000E+00  0.00000000000E+00  0.74505805969E-08  0.10566000000E+00  0.10566000000E+00 0.  1.
     999900   -1    0    0    0    0 -0.00000000000E+00 -0.00000000000E+00 -0.74505805969E-08  0.93827000000E+00  0.93827000000E+00 0.  1.
     999902    2    1    2    0    0  0.17388346308E-01 -0.11236121433E-01  0.11500879472E-01  0.10202471952E+01  0.10199722860E+01 0.  0.
     999903    2    3    3    0    0  0.13118604678E+00  0.23666204167E-02  0.36461659557E-03  0.13274566423E+00  0.20146926890E-01 0.  0.
         14    1    1    2    0    0 -0.17388346308E-01  0.11236121433E-01 -0.11500879472E-01  0.23682804750E-01  0.00000000000E+00 0. -1.
     999901    1    3    3    0    0 -0.11379770047E+00 -0.13602741850E-01  0.11136262876E-01  0.88750153102E+00  0.88000000000E+00 0. -1.
        -11    1    4    4    0    0  0.10169852981E+00 -0.45490958332E-02  0.58143036447E-02  0.10196740894E+00  0.51100000000E-03 0.  1.
         11    1    4    4    0    0  0.29487516971E-01  0.69157162499E-02 -0.54496870491E-02  0.30778255284E-01  0.51100000000E-03 0. -1.
</event>
<event>
 8    1  0.1064884E+005  0.1043930E+01  0.7957747E-01            NaN
         13   -1    0    0    0    0  0.00000000000E+00  0.00000000000E+00  0.74505805969E-08  0.10566000000E+00  0.10566000000E+00 0. -1.
     999900   -1    0    0    0    0 -0.00000000000E+00 -0.00000000000E+00 -0.74505805969E-08  0.93827000000E+00  0.93827000000E+00 0.  1.
     999902    2    1    2    0    0  0.57363119890E-02  0.38459223795E-03 -0.22912146216E-01  0.10203075609E+01  0.10200340676E+01 0.  0.
     999903    2    3    3    0    0  0.97743811454E-01  0.49672840452E-02 -0.87950206895E-01  0.13311179309E+00  0.20124213736E-01 0.  0.
         14    1    1    2    0    0 -0.57363119890E-02 -0.38459223795E-03  0.22912146216E-01  0.23622439135E-01  0.00000000000E+00 0. -1.
     999901    1    3    3    0    0 -0.92007499465E-01 -0.45826918073E-02  0.65038060678E-01  0.88719576778E+00  0.88000000000E+00 0. -1.
        -11    1    4    4    0    0  0.19036901087E-01 -0.66931237973E-02 -0.14815746193E-01  0.25039348342E-01  0.51100000000E-03 0. -1.
         11    1    4    4    0    0  0.78706910367E-01  0.11660407843E-01 -0.73134460702E-01  0.10807244475E+00  0.51100000000E-03 0.  1.
</event>
<event>
 8    1  0.1064884E+005  0.1043930E+01  0.7957747E-01            NaN
         13   -1    0    0    0    0  0.00000000000E+00  0.00000000000E+00  0.74505805969E-08  0.10566000000E+00  0.10566000000E+00 0. -1.
     999900   -1    0    0    0    0 -0.00000000000E+00 -0.00000000000E+00 -0.74505805969E-08  0.93827000000E+00  0.93827000000E+00 0.  1.
     999902    2    1    2    0    0 -0.23517641341E-01 -0.31238066276E-02 -0.28561147581E-02  0.10200344980E+01  0.10197545696E+01 0.  0.
     999903    2    3    3    0    0  0.91148930939E-01 -0.33756485190E-01  0.80846886143E-01  0.12813036858E+00  0.20821730245E-01 0.  0.
         14    1    1    2    0    0  0.23517641341E-01  0.31238066276E-02  0.28561147581E-02  0.23895501954E-01  0.00000000000E+00 0. -1.
     999901    1    3    3    0    0 -0.11466657228E+00  0.30632678562E-01 -0.83703000901E-01  0.89190412946E+00  0.88000000000E+00 0. -1.
        -11    1    4    4    0    0  0.59217000309E-01 -0.11573085235E-01  0.45369381665E-01  0.75493253614E-01  0.51100000000E-03 0.  1.
         11    1    4    4    0    0  0.31931930630E-01 -0.22183399955E-01  0.35477504478E-01  0.52637114969E-01  0.51100000000E-03 0. -1.
</event>
<event>
 8    1  0.1064884E+005  0.1043930E+01  0.7957747E-01            NaN
         13   -1    0    0    0    0  0.00000000000E+00  0.00000000000E+00  0.74505805969E-08  0.10566000000E+00  0.10566000000E+00 0.  1.
     999900   -1    0    0    0    0 -0.00000000000E+00 -0.00000000000E+00 -0.74505805969E-08  0.93827000000E+00  0.93827000000E+00 0.  1.
     999902    2    1    2    0    0 -0.18153820548E-01 -0.11768189080E-01  0.70661707237E-02  0.10211707767E+01  0.10209171235E+01 0.  0.
     999903    2    3    3    0    0 -0.79114061890E-01 -0.36916694442E-01  0.99373173696E-01  0.13388887050E+00  0.20720156262E-01 0.  0.
         14    1    1    2    0    0  0.18153820548E-01  0.11768189080E-01 -0.70661707237E-02  0.22759223261E-01  0.00000000000E+00 0. -1.
     999901    1    3    3    0    0  0.60960241342E-01  0.25148505362E-01 -0.92307002972E-01  0.88728190624E+00  0.88000000000E+00 0. -1.
        -11    1    4    4    0    0 -0.44453577110E-01 -0.10308717928E-01  0.44493312272E-01  0.63736223147E-01  0.51100000000E-03 0.  1.
         11    1    4    4    0    0 -0.34660484781E-01 -0.26607976513E-01  0.54879861424E-01  0.70152647350E-01  0.51100000000E-03 0. -1.
</event>
<event>
 8    1  0.1064884E+005  0.1043930E+01  0.7957747E-01            NaN
         13   -1    0    0    0    0  0.00000000000E+00  0.00000000000E+00  0.74505805969E-08  0.10566000000E+00  0.10566000000E+00 0.  1.
     999900   -1    0    0    0    0 -0.00000000000E+00 -0.00000000000E+00 -0.74505805969E-08  0.93827000000E+00  0.93827000000E+00 0.  1.
     999902    2    1    2    0    0  0.22829864653E-01  0.14788032935E-01 -0.18509330901E-01  0.10110288759E+01  0.10104933963E+01 0.  0.
     999903    2    3    3    0    0 -0.22478275159E-01  0.40891330520E-01 -0.11345153497E+00  0.12437887064E+00  0.20529951469E-01 0.  0.
         14    1    1    2    0    0 -0.22829864653E-01 -0.14788032935E-01  0.18509330901E-01  0.32901124123E-01  0.00000000000E+00 0.  1.
     999901    1    3    3    0    0  0.45308139812E-01 -0.26103297585E-01  0.94942204072E-01  0.88665000524E+00  0.88000000000E+00 0. -1.
        -11    1    4    4    0    0 -0.46552204326E-03  0.21558357652E-01 -0.44143524542E-01  0.49131368548E-01  0.51100000000E-03 0.  1.
         11    1    4    4    0    0 -0.22012753116E-01  0.19332972868E-01 -0.69308010432E-01  0.75247502089E-01  0.51100000000E-03 0. -1.
</event>
<event>
 8    1  0.1064884E+005  0.1043930E+01  0.7957747E-01            NaN
         13   -1    0    0    0    0  0.00000000000E+00  0.00000000000E+00  0.74505805969E-08  0.10566000000E+00  0.10566000000E+00 0.  1.
     999900   -1    0    0    0    0 -0.00000000000E+00 -0.00000000000E+00 -0.74505805969E-08  0.93827000000E+00  0.93827000000E+00 0. -1.
     999902    2    1    2    0    0  0.75353344301E-02 -0.22044879002E-01  0.14038491655E-02  0.10205905752E+01  0.10203236710E+01 0.  0.
     999903    2    3    3    0    0 -0.40679862394E-01 -0.79990838507E-01 -0.94810594322E-01  0.13214268226E+00  0.20475698492E-01 0.  0.
         14    1    1    2    0    0 -0.75353344301E-02  0.22044879002E-01 -0.14038491655E-02  0.23339424750E-01  0.00000000000E+00 0. -1.
     999901    1    3    3    0    0  0.48215196824E-01  0.57945959505E-01  0.96214443488E-01  0.88844789299E+00  0.88000000000E+00 0.  1.
        -11    1    4    4    0    0 -0.95945319923E-02 -0.58546556189E-02 -0.16038298699E-01  0.19591329274E-01  0.51100000000E-03 0. -1.
         11    1    4    4    0    0 -0.31085330402E-01 -0.74136182888E-01 -0.78772295623E-01  0.11255135298E+00  0.51100000000E-03 0.  1.
</event>
<event>
 8    1  0.1064884E+005  0.1043930E+01  0.7957747E-01            NaN
         13   -1    0    0    0    0  0.00000000000E+00  0.00000000000E+00  0.74505805969E-08  0.10566000000E+00  0.10566000000E+00 0.  1.
     999900   -1    0    0    0    0 -0.00000000000E+00 -0.00000000000E+00 -0.74505805969E-08  0.93827000000E+00  0.93827000000E+00 0.  1.
     999902    2    1    2    0    0  0.19132877656E-01  0.99956160212E-02 -0.10455036399E-01  0.10199448560E+01  0.10196627982E+01 0.  0.
     999903    2    3    3    0    0  0.10186094520E-01 -0.62185101003E-01  0.11042911998E+00  0.12870802994E+00  0.20010575318E-01 0.  0.
         14    1    1    2    0    0 -0.19132877656E-01 -0.99956160212E-02  0.10455036399E-01  0.23985144009E-01  0.00000000000E+00 0.  1.
     999901    1    3    3    0    0  0.89467831357E-02  0.72180717025E-01 -0.12088415638E+00  0.89123682605E+00  0.88000000000E+00 0.  1.
        -11    1    4    4    0    0  0.10725872323E-01 -0.42128543265E-01  0.90615855429E-01  0.10050548677E+00  0.51100000000E-03 0. -1.
         11    1    4    4    0    0 -0.53977780259E-03 -0.20056557739E-01  0.19813264549E-01  0.28202543174E-01  0.51100000000E-03 0.  1.
</event>
<event>
 8    1  0.1064884E+005  0.1043930E+01  0.7957747E-01            NaN
         13   -1    0    0    0    0  0.00000000000E+00  0.00000000000E+00  0.74505805969E-08  0.10566000000E+00  0.10566000000E+00 0. -1.
     999900   -1    0    0    0    0 -0.00000000000E+00 -0.00000000000E+00 -0.74505805969E-08  0.93827000000E+00  0.93827000000E+00 0.  1.
     999902    2    1    2    0    0  0.54173092175E-02 -0.82127751302E-02 -0.21406009828E-01  0.10203712613E+01  0.10200992582E+01 0.  0.
     999903    2    3    3    0    0  0.12019170817E+00  0.38654422968E-01  0.24539819192E-01  0.13049446297E+00  0.22054274251E-01 0.  0.
         14    1    1    2    0    0 -0.54173092175E-02  0.82127751302E-02  0.21406009828E-01  0.23558738745E-01  0.00000000000E+00 0. -1.
     999901    1    3    3    0    0 -0.11477439895E+00 -0.46867198098E-01 -0.45945829020E-01  0.88987679828E+00  0.88000000000E+00 0. -1.
        -11    1    4    4    0    0  0.10134813140E+00  0.40079549897E-01  0.23916450584E-01  0.11157988971E+00  0.51100000000E-03 0.  1.
         11    1    4    4    0    0  0.18843576777E-01 -0.14251269292E-02  0.62336860780E-03  0.18914573269E-01  0.51100000000E-03 0. -1.
</event>
<event>
 8    1  0.1064884E+005  0.1043930E+01  0.7957747E-01            NaN
         13   -1    0    0    0    0  0.00000000000E+00  0.00000000000E+00  0.74505805969E-08  0.10566000000E+00  0.10566000000E+00 0. -1.
     999900   -1    0    0    0    0 -0.00000000000E+00 -0.00000000000E+00 -0.74505805969E-08  0.93827000000E+00  0.93827000000E+00 0.  1.
     999902    2    1    2    0    0 -0.20779734351E-01 -0.72692268541E-02 -0.66018853605E-02  0.10209468777E+01  0.10206881518E+01 0.  0.
     999903    2    3    3    0    0  0.39754957813E-01 -0.60050292146E-01 -0.10787694683E+00  0.13150495839E+00  0.21670813706E-01 0.  0.
         14    1    1    2    0    0  0.20779734351E-01  0.72692268541E-02  0.66018853605E-02  0.22983122265E-01  0.00000000000E+00 0. -1.
     999901    1    3    3    0    0 -0.60534692164E-01  0.52781065292E-01  0.10127506147E+00  0.88944191934E+00  0.88000000000E+00 0. -1.
        -11    1    4    4    0    0  0.16957806986E-01 -0.25824048958E-01 -0.65661122229E-01  0.72567849739E-01  0.51100000000E-03 0.  1.
         11    1    4    4    0    0  0.22797150828E-01 -0.34226243188E-01 -0.42215824601E-01  0.58937108653E-01  0.51100000000E-03 0. -1.
</event>
<event>
 8    1  0.1064884E+005  0.1043930E+01  0.7957747E-01            NaN
         13   -1    0    0    0    0  0.00000000000E+00  0.00000000000E+00  0.74505805969E-08  0.10566000000E+00  0.10566000000E+00 0. -1.
     999900   -1    0    0    0    0 -0.00000000000E+00 -0.00000000000E+00 -0.74505805969E-08  0.93827000000E+00  0.93827000000E+00 0.  1.
     999902    2    1    2    0    0  0.91934202899E-02  0.19350818125E-01  0.10854784608E-01  0.10199133498E+01  0.10196305417E+01 0.  0.
     999903    2    3    3    0    0 -0.19557471332E-01  0.47833964699E-01  0.12005512211E+00  0.13224076537E+00  0.20094895303E-01 0.  0.
         14    1    1    2    0    0 -0.91934202899E-02 -0.19350818125E-01 -0.10854784608E-01  0.24016650216E-01  0.00000000000E+00 0.  1.
     999901    1    3    3    0    0  0.28750891622E-01 -0.28483146574E-01 -0.10920033750E+00  0.88767258441E+00  0.88000000000E+00 0.  1.
        -11    1    4    4    0    0 -0.10812338267E-01  0.11042487160E-01  0.53508163585E-01  0.55697646923E-01  0.51100000000E-03 0. -1.
         11    1    4    4    0    0 -0.87451330658E-02  0.36791477539E-01  0.66546958525E-01  0.76543118448E-01  0.51100000000E-03 0.  1.
</event>
<event>
 8    1  0.1064884E+005  0.1043930E+01  0.7957747E-01            NaN
         13   -1    0    0    0    0  0.00000000000E+00  0.00000000000E+00  0.74505805969E-08  0.10566000000E+00  0.10566000000E+00 0.  1.
     999900   -1    0    0    0    0 -0.00000000000E+00 -0.00000000000E+00 -0.74505805969E-08  0.93827000000E+00  0.93827000000E+00 0. -1.
     999902    2    1    2    0    0 -0.16744253867E-01  0.40410684721E-02 -0.17028824047E-01  0.10197084988E+01  0.10194207872E+01 0.  0.
     999903    2    3    3    0    0 -0.56727550936E-01 -0.11598298192E+00 -0.26760111079E-02  0.13054572408E+00  0.19103871559E-01 0.  0.
         14    1    1    2    0    0  0.16744253867E-01 -0.40410684721E-02  0.17028824047E-01  0.24221501200E-01  0.00000000000E+00 0.  1.
     999901    1    3    3    0    0  0.39983297069E-01  0.12002405039E+00 -0.14352812939E-01  0.88916277472E+00  0.88000000000E+00 0. -1.
        -11    1    4    4    0    0 -0.32827173396E-01 -0.49899828400E-01 -0.69891740838E-02  0.60139220671E-01  0.51100000000E-03 0.  1.
         11    1    4    4    0    0 -0.23900377539E-01 -0.66083153521E-01  0.43131629759E-02  0.70406503405E-01  0.51100000000E-03 0. -1.
</event>
<event>
 8    1  0.1064884E+005  0.1043930E+01  0.7957747E-01            NaN
         13   -1    0    0    0    0  0.00000000000E+00  0.00000000000E+00  0.74505805969E-08  0.10566000000E+00  0.10566000000E+00 0.  1.
     999900   -1    0    0    0    0 -0.00000000000E+00 -0.00000000000E+00 -0.74505805969E-08  0.93827000000E+00  0.93827000000E+00 0. -1.
     999902    2    1    2    0    0  0.26614767088E-02  0.21936122287E-01 -0.88723302726E-02  0.10201183398E+01  0.10198403953E+01 0.  0.
     999903    2    3    3    0    0  0.42543825860E-01 -0.78647494550E-01  0.89479021115E-01  0.12805295310E+00  0.19891155304E-01 0.  0.
         14    1    1    2    0    0 -0.26614767088E-02 -0.21936122287E-01  0.88723302726E-02  0.23811660247E-01  0.00000000000E+00 0. -1.
     999901    1    3    3    0    0 -0.39882349152E-01  0.10058361684E+00 -0.98351351388E-01  0.89206538666E+00  0.88000000000E+00 0. -1.
        -11    1    4    4    0    0 -0.53677962010E-03 -0.12635524910E-01  0.14709395592E-01  0.19405464740E-01  0.51100000000E-03 0.  1.
         11    1    4    4    0    0  0.43080605481E-01 -0.66011969640E-01  0.74769625524E-01  0.10864748836E+00  0.51100000000E-03 0. -1.
</event>
<event>
 8    1  0.1064884E+005  0.1043930E+01  0.7957747E-01            NaN
         13   -1    0    0    0    0  0.00000000000E+00  0.00000000000E+00  0.74505805969E-08  0.10566000000E+00  0.10566000000E+00 0. -1.
     999900   -1    0    0    0    0 -0.00000000000E+00 -0.00000000000E+00 -0.74505805969E-08  0.93827000000E+00  0.93827000000E+00 0.  1.
     999902    2    1    2    0    0 -0.71252421560E-02 -0.12411577885E-01 -0.18646717335E-01  0.10204243324E+01  0.10201535677E+01 0.  0.
     999903    2    3    3    0    0  0.98949204157E-01 -0.34082434274E-01  0.71697919646E-01  0.12919845330E+00  0.24476342107E-01 0.  0.
         14    1    1    2    0    0  0.71252421560E-02  0.12411577885E-01  0.18646717335E-01  0.23505667588E-01  0.00000000000E+00 0. -1.
     999901    1    3    3    0    0 -0.10607444631E+00  0.21670856390E-01 -0.90344636981E-01  0.89122587912E+00  0.88000000000E+00 0.  1.
        -11    1    4    4    0    0  0.76110759200E-01 -0.22896453655E-01  0.65562787797E-01  0.10303317680E+00  0.51100000000E-03 0. -1.
         11    1    4    4    0    0  0.22838444958E-01 -0.11185980619E-01  0.61351318489E-02  0.26165276499E-01  0.51100000000E-03 0.  1.
</event>
<event>
 8    1  0.1064884E+005  0.1043930E+01  0.7957747E-01            NaN
         13   -1    0    0    0    0  0.00000000000E+00  0.00000000000E+00  0.74505805969E-08  0.10566000000E+00  0.10566000000E+00 0.  1.
     999900   -1    0    0    0    0 -0.00000000000E+00 -0.00000000000E+00 -0.74505805969E-08  0.93827000000E+00  0.93827000000E+00 0.  1.
     999902    2    1    2    0    0  0.49762672596E-02  0.13616360364E-01 -0.18787686381E-01  0.10201993096E+01  0.10199232744E+01 0.  0.
     999903    2    3    3    0    0  0.28089381507E-01  0.10199022630E+00 -0.78827432491E-01  0.13343613531E+00  0.20010459252E-01 0.  0.
         14    1    1    2    0    0 -0.49762672596E-02 -0.13616360364E-01  0.18787686381E-01  0.23730690359E-01  0.00000000000E+00 0.  1.
     999901    1    3    3    0    0 -0.23113114247E-01 -0.88373865938E-01  0.60039746110E-01  0.88676317433E+00  0.88000000000E+00 0.  1.
        -11    1    4    4    0    0  0.19954052356E-01  0.83983880852E-01 -0.54486442368E-01  0.10208080119E+00  0.51100000000E-03 0. -1.
         11    1    4    4    0    0  0.81353291506E-02  0.18006345450E-01 -0.24340990123E-01  0.31355334124E-01  0.51100000000E-03 0.  1.
</event>
<event>
 8    1  0.1064884E+005  0.1043930E+01  0.7957747E-01            NaN
         13   -1    0    0    0    0  0.00000000000E+00  0.00000000000E+00  0.74505805969E-08  0.10566000000E+00  0.10566000000E+00 0.  1.
     999900   -1    0    0    0    0 -0.00000000000E+00 -0.00000000000E+00 -0.74505805969E-08  0.93827000000E+00  0.93827000000E+00 0.  1.
     999902    2    1    2    0    0  0.75406086742E-02 -0.22061627515E-01 -0.30795507680E-02  0.10204127761E+01  0.10201417420E+01 0.  0.
     999903    2    3    3    0    0 -0.33642694137E-01 -0.86506778881E-01 -0.92641523260E-01  0.13256673713E+00  0.19396760060E-01 0.  0.
         14    1    1    2    0    0 -0.75406086742E-02  0.22061627515E-01  0.30795507680E-02  0.23517223916E-01  0.00000000000E+00 0.  1.
     999901    1    3    3    0    0  0.41183302812E-01  0.64445151366E-01  0.89561972492E-01  0.88784603895E+00  0.88000000000E+00 0. -1.
        -11    1    4    4    0    0 -0.49121293095E-02 -0.16190548276E-01 -0.28498107891E-01  0.33146133142E-01  0.51100000000E-03 0. -1.
         11    1    4    4    0    0 -0.28730564828E-01 -0.70316230605E-01 -0.64143415369E-01  0.99420603991E-01  0.51100000000E-03 0.  1.
</event>
<event>
 8    1  0.1064884E+005  0.1043930E+01  0.7957747E-01            NaN
         13   -1    0    0    0    0  0.00000000000E+00  0.00000000000E+00  0.74505805969E-08  0.10566000000E+00  0.10566000000E+00 0.  1.
     999900   -1    0    0    0    0 -0.00000000000E+00 -0.00000000000E+00 -0.74505805969E-08  0.93827000000E+00  0.93827000000E+00 0. -1.
     999902    2    1    2    0    0  0.93557891017E-03 -0.22545933453E-01  0.17129695169E-02  0.10212997396E+01  0.10210489848E+01 0.  0.
     999903    2    3    3    0    0 -0.10621918193E+00  0.71251826163E-01  0.93447769618E-02  0.12981872071E+00  0.20155347890E-01 0.  0.
         14    1    1    2    0    0 -0.93557891017E-03  0.22545933453E-01 -0.17129695169E-02  0.22630260444E-01  0.00000000000E+00 0.  1.
     999901    1    3    3    0    0  0.10715476084E+00 -0.93797759616E-01 -0.76318074448E-02  0.89148101885E+00  0.88000000000E+00 0.  1.
        -11    1    4    4    0    0 -0.52800290735E-01  0.47317592634E-01  0.67658114812E-02  0.71224031060E-01  0.51100000000E-03 0. -1.
         11    1    4    4    0    0 -0.53418891196E-01  0.23934233528E-01  0.25789654805E-02  0.58594689649E-01  0.51100000000E-03 0.  1.
</event>
<event>
 8    1  0.1064884E+005  0.1043930E+01  0.7957747E-01            NaN
         13   -1    0    0    0    0  0.00000000000E+00  0.00000000000E+00  0.74505805969E-08  0.10566000000E+00  0.10566000000E+00 0.  1.
     999900   -1    0    0    0    0 -0.00000000000E+00 -0.00000000000E+00 -0.74505805969E-08  0.93827000000E+00  0.93827000000E+00 0.  1.
     999902    2    1    2    0    0  0.85636465629E-02 -0.16576321615E-02 -0.76452009308E-02  0.10323311688E+01  0.10322660070E+01 0.  0.
     999903    2    3    3    0    0  0.76000442042E-01  0.10315897246E+00 -0.58098273313E-01  0.14211784919E+00  0.20105544145E-01 0.  0.
         14    1    1    2    0    0 -0.85636465629E-02  0.16576321615E-02  0.76452009308E-02  0.11598831153E-01  0.00000000000E+00 0.  1.
     999901    1    3    3    0    0 -0.67436795479E-01 -0.10481660462E+00  0.50453072382E-01  0.89021331966E+00  0.88000000000E+00 0. -1.
        -11    1    4    4    0    0  0.97721708337E-02  0.13296878035E-01 -0.53396952845E-03  0.16518127398E-01  0.51100000000E-03 0. -1.
         11    1    4    4    0    0  0.66228271209E-01  0.89862094426E-01 -0.57564303784E-01  0.12559972179E+00  0.51100000000E-03 0.  1.
</event>
<event>
 7    1  0.1064884E+005  0.1043930E+01  0.7957747E-01            NaN
         13   -1    0    0    0    0  0.00000000000E+00  0.00000000000E+00  0.74505805969E-08  0.10566000000E+00  0.10566000000E+00 0. -1.
     999900   -1    0    0    0    0 -0.00000000000E+00 -0.00000000000E+00 -0.74505805969E-08  0.93827000000E+00  0.93827000000E+00 0.  1.
     999903    2    1    2    0    0  0.21490825999E-02  0.80727813185E-02  0.94573352533E-01  0.97071654006E-01  0.20223714986E-01 0.  0.
         14    1    1    2    0    0  0.43479028466E-03  0.46308610183E-01  0.31782596010E-01  0.56167693818E-01  0.00000000000E+00 0. -1.
     999901    1    1    2    0    0 -0.25838728846E-02 -0.54381391502E-01 -0.12635594854E+00  0.89069065218E+00  0.88000000000E+00 0.  1.
        -11    1    3    3    0    0 -0.23214571924E-03  0.93013395183E-02  0.93764647344E-01  0.94226530346E-01  0.51100000000E-03 0. -1.
         11    1    3    3    0    0  0.23812283192E-02 -0.12285581998E-02  0.80870518923E-03  0.28451236601E-02  0.51100000000E-03 0.  1.
</event>
<event>
 8    1  0.1064884E+005  0.1043930E+01  0.7957747E-01            NaN
         13   -1    0    0    0    0  0.00000000000E+00  0.00000000000E+00  0.74505805969E-08  0.10566000000E+00  0.10566000000E+00 0. -1.
     999900   -1    0    0    0    0 -0.00000000000E+00 -0.00000000000E+00 -0.74505805969E-08  0.93827000000E+00  0.93827000000E+00 0.  1.
     999902    2    1    2    0    0  0.94840986990E-02  0.15647057995E-01  0.15346027013E-01  0.10200494829E+01  0.10197699096E+01 0.  0.
     999903    2    3    3    0    0  0.69105823319E-01  0.10840229619E+00  0.30159419121E-01  0.13304456699E+00  0.16266333594E-01 0.  0.
         14    1    1    2    0    0 -0.94840986990E-02 -0.15647057995E-01 -0.15346027013E-01  0.23880517103E-01  0.00000000000E+00 0.  1.
     999901    1    3    3    0    0 -0.59621724620E-01 -0.92755238192E-01 -0.14813392108E-01  0.88700491591E+00  0.88000000000E+00 0. -1.
        -11    1    4    4    0    0  0.16459662888E-01  0.32104318695E-01  0.15169642154E-01  0.39140604815E-01  0.51100000000E-03 0.  1.
         11    1    4    4    0    0  0.52646160431E-01  0.76297977492E-01  0.14989776967E-01  0.93903962174E-01  0.51100000000E-03 0. -1.
</event>
<event>
 8    1  0.1064884E+005  0.1043930E+01  0.7957747E-01            NaN
         13   -1    0    0    0    0  0.00000000000E+00  0.00000000000E+00  0.74505805969E-08  0.10566000000E+00  0.10566000000E+00 0. -1.
     999900   -1    0    0    0    0 -0.00000000000E+00 -0.00000000000E+00 -0.74505805969E-08  0.93827000000E+00  0.93827000000E+00 0. -1.
     999902    2    1    2    0    0 -0.16270785691E-01  0.12316424939E-01  0.13206994193E-01  0.10196224397E+01  0.10193326553E+01 0.  0.
     999903    2    3    3    0    0 -0.36301717245E-01 -0.11630651411E+00 -0.36199444579E-01  0.12867569898E+00  0.20050332222E-01 0.  0.
         14    1    1    2    0    0  0.16270785691E-01 -0.12316424939E-01 -0.13206994193E-01  0.24307560262E-01  0.00000000000E+00 0. -1.
     999901    1    3    3    0    0  0.20030931554E-01  0.12862293905E+00  0.49406438772E-01  0.89094674075E+00  0.88000000000E+00 0.  1.
        -11    1    4    4    0    0 -0.27100506775E-01 -0.62686963319E-01 -0.27284063627E-01  0.73544368150E-01  0.51100000000E-03 0. -1.
         11    1    4    4    0    0 -0.92012104694E-02 -0.53619550790E-01 -0.89153809518E-02  0.55131330834E-01  0.51100000000E-03 0.  1.
</event>
<event>
 8    1  0.1064884E+005  0.1043930E+01  0.7957747E-01            NaN
         13   -1    0    0    0    0  0.00000000000E+00  0.00000000000E+00  0.74505805969E-08  0.10566000000E+00  0.10566000000E+00 0. -1.
     999900   -1    0    0    0    0 -0.00000000000E+00 -0.00000000000E+00 -0.74505805969E-08  0.93827000000E+00  0.93827000000E+00 0.  1.
     999902    2    1    2    0    0  0.71269687894E-02  0.19898588714E-01 -0.15153944950E-01  0.10179225095E+01  0.10175902150E+01 0.  0.
     999903    2    3    3    0    0 -0.55991182055E-01  0.92354141583E-01 -0.71189482031E-01  0.13091986598E+00  0.20193291516E-01 0.  0.
         14    1    1    2    0    0 -0.71269687894E-02 -0.19898588714E-01  0.15153944950E-01  0.26007490545E-01  0.00000000000E+00 0. -1.
     999901    1    3    3    0    0  0.63118150844E-01 -0.72455552869E-01  0.56035537081E-01  0.88700264347E+00  0.88000000000E+00 0.  1.
        -11    1    4    4    0    0 -0.30677200905E-01  0.38319953554E-01 -0.22956673463E-01  0.54192060979E-01  0.51100000000E-03 0.  1.
         11    1    4    4    0    0 -0.25313981150E-01  0.54034188029E-01 -0.48232808567E-01  0.76727805005E-01  0.51100000000E-03 0. -1.
</event>
<event>
 8    1  0.1064884E+005  0.1043930E+01  0.7957747E-01            NaN
         13   -1    0    0    0    0  0.00000000000E+00  0.00000000000E+00  0.74505805969E-08  0.10566000000E+00  0.10566000000E+00 0. -1.
     999900   -1    0    0    0    0 -0.00000000000E+00 -0.00000000000E+00 -0.74505805969E-08  0.93827000000E+00  0.93827000000E+00 0. -1.
     999902    2    1    2    0    0  0.17435165991E-01 -0.11892125951E-01 -0.90724480033E-02  0.10209579086E+01  0.10206994337E+01 0.  0.
     999903    2    3    3    0    0 -0.10487310706E+00  0.41052326719E-01  0.58360114023E-01  0.12837201400E+00  0.19743580165E-01 0.  0.
         14    1    1    2    0    0 -0.17435165991E-01  0.11892125951E-01  0.90724480033E-02  0.22972091449E-01  0.00000000000E+00 0.  1.
     999901    1    3    3    0    0  0.12230827305E+00 -0.52944452671E-01 -0.67432562026E-01  0.89258589455E+00  0.88000000000E+00 0.  1.
        -11    1    4    4    0    0 -0.51672232050E-01  0.29615009142E-01  0.35579232561E-01  0.69377310715E-01  0.51100000000E-03 0. -1.
         11    1    4    4    0    0 -0.53200875006E-01  0.11437317578E-01  0.22780881462E-01  0.58994703288E-01  0.51100000000E-03 0.  1.
</event>
<event>
 8    1  0.1064884E+005  0.1043930E+01  0.7957747E-01            NaN
         13   -1    0    0    0    0  0.00000000000E+00  0.00000000000E+00  0.74505805969E-08  0.10566000000E+00  0.10566000000E+00 0.  1.
     999900   -1    0    0    0    0 -0.00000000000E+00 -0.00000000000E+00 -0.74505805969E-08  0.93827000000E+00  0.93827000000E+00 0.  1.
     999902    2    1    2    0    0  0.16567975072E-01 -0.14596234056E-01  0.14117779011E-01  0.10177219949E+01  0.10173844895E+01 0.  0.
     999903    2    3    3    0    0 -0.52999747494E-01 -0.45418203318E-01  0.10721414642E+00  0.12954600141E+00  0.20383985418E-01 0.  0.
         14    1    1    2    0    0 -0.16567975072E-01  0.14596234056E-01 -0.14117779011E-01  0.26208005090E-01  0.00000000000E+00 0. -1.
     999901    1    3    3    0    0  0.69567722566E-01  0.30821969262E-01 -0.93096367405E-01  0.88817599350E+00  0.88000000000E+00 0.  1.
        -11    1    4    4    0    0 -0.35987016994E-01 -0.21723468835E-01  0.50008573360E-01  0.65330643812E-01  0.51100000000E-03 0.  1.
         11    1    4    4    0    0 -0.17012730499E-01 -0.23694734484E-01  0.57205573056E-01  0.64215357594E-01  0.51100000000E-03 0. -1.
</event>
<event>
 8    1  0.1064884E+005  0.1043930E+01  0.7957747E-01            NaN
         13   -1    0    0    0    0  0.00000000000E+00  0.00000000000E+00  0.74505805969E-08  0.10566000000E+00  0.10566000000E+00 0. -1.
     999900   -1    0    0    0    0 -0.00000000000E+00 -0.00000000000E+00 -0.74505805969E-08  0.93827000000E+00  0.93827000000E+00 0.  1.
     999902    2    1    2    0    0  0.46283889507E-02 -0.59172034835E-02  0.21707544364E-01  0.10209593064E+01  0.10207008634E+01 0.  0.
     999903    2    3    3    0    0  0.12209347509E+00 -0.58054156348E-02 -0.42220520098E-01  0.13085546058E+00  0.20001493342E-01 0.  0.
         14    1    1    2    0    0 -0.46283889507E-02  0.59172034835E-02 -0.21707544364E-01  0.22970693583E-01  0.00000000000E+00 0.  1.
     999901    1    3    3    0    0 -0.11746508613E+00 -0.11178784863E-03  0.63928064462E-01  0.89010384584E+00  0.88000000000E+00 0. -1.
        -11    1    4    4    0    0  0.12027300900E-01 -0.83195920877E-04 -0.10989362903E-01  0.16300003267E-01  0.51100000000E-03 0. -1.
         11    1    4    4    0    0  0.11006617419E+00 -0.57222197140E-02 -0.31231157194E-01  0.11455545731E+00  0.51100000000E-03 0.  1.
</event>
<event>
 8    1  0.1064884E+005  0.1043930E+01  0.7957747E-01            NaN
         13   -1    0    0    0    0  0.00000000000E+00  0.00000000000E+00  0.74505805969E-08  0.10566000000E+00  0.10566000000E+00 0. -1.
     999900   -1    0    0    0    0 -0.00000000000E+00 -0.00000000000E+00 -0.74505805969E-08  0.93827000000E+00  0.93827000000E+00 0. -1.
     999902    2    1    2    0    0 -0.16517240214E-01  0.15014454946E-01  0.28583603112E-02  0.10214261491E+01  0.10211782189E+01 0.  0.
     999903    2    3    3    0    0  0.27201627085E-01 -0.21199281641E-01  0.12498529603E+00  0.13118024908E+00  0.19939796078E-01 0.  0.
         14    1    1    2    0    0  0.16517240214E-01 -0.15014454946E-01 -0.28583603112E-02  0.22503850899E-01  0.00000000000E+00 0. -1.
     999901    1    3    3    0    0 -0.43718867299E-01  0.36213736587E-01 -0.12212693572E+00  0.89024590002E+00  0.88000000000E+00 0. -1.
        -11    1    4    4    0    0  0.19732650581E-01 -0.84414544085E-02  0.45250715349E-01  0.50085167586E-01  0.51100000000E-03 0.  1.
         11    1    4    4    0    0  0.74689765042E-02 -0.12757827233E-01  0.79734580678E-01  0.81095081495E-01  0.51100000000E-03 0. -1.
</event>
<event>
 8    1  0.1064884E+005  0.1043930E+01  0.7957747E-01            NaN
         13   -1    0    0    0    0  0.00000000000E+00  0.00000000000E+00  0.74505805969E-08  0.10566000000E+00  0.10566000000E+00 0.  1.
     999900   -1    0    0    0    0 -0.00000000000E+00 -0.00000000000E+00 -0.74505805969E-08  0.93827000000E+00  0.93827000000E+00 0. -1.
     999902    2    1    2    0    0  0.13855212811E-01  0.19309907016E-01 -0.15794030642E-02  0.10201112270E+01  0.10198331146E+01 0.  0.
     999903    2    3    3    0    0  0.54582218967E-01  0.98095530868E-02  0.11586448708E+00  0.13132440610E+00  0.27314360891E-01 0.  0.
         14    1    1    2    0    0 -0.13855212811E-01 -0.19309907016E-01  0.15794030642E-02  0.23818772954E-01  0.00000000000E+00 0. -1.
     999901    1    3    3    0    0 -0.40727006156E-01  0.95003539294E-02 -0.11744389015E+00  0.88878682095E+00  0.88000000000E+00 0. -1.
        -11    1    4    4    0    0  0.38546955306E-01 -0.46459760569E-02  0.87034391264E-01  0.95303196382E-01  0.51100000000E-03 0. -1.
         11    1    4    4    0    0  0.16035263661E-01  0.14455529144E-01  0.28830095820E-01  0.36021209717E-01  0.51100000000E-03 0.  1.
</event>
<event>
 8    1  0.1064884E+005  0.1043930E+01  0.7957747E-01            NaN
         13   -1    0    0    0    0  0.00000000000E+00  0.00000000000E+00  0.74505805969E-08  0.10566000000E+00  0.10566000000E+00 0. -1.
     999900   -1    0    0    0    0 -0.00000000000E+00 -0.00000000000E+00 -0.74505805969E-08  0.93827000000E+00  0.93827000000E+00 0.  1.
     999902    2    1    2    0    0  0.21900669509E-01 -0.53990107719E-02 -0.64333256032E-02  0.10204741623E+01  0.10202045578E+01 0.  0.
     999903    2    3    3    0    0 -0.12145056428E+00 -0.32053254494E-01 -0.17636785192E-01  0.12840603576E+00  0.19985072929E-01 0.  0.
         14    1    1    2    0    0 -0.21900669509E-01  0.53990107719E-02  0.64333256032E-02  0.23455837665E-01  0.00000000000E+00 0. -1.
     999901    1    3    3    0    0  0.14335123379E+00  0.26654243723E-01  0.11203459589E-01  0.89206812657E+00  0.88000000000E+00 0.  1.
        -11    1    4    4    0    0 -0.51113227410E-01 -0.12313325185E-01  0.24606547434E-02  0.52635500721E-01  0.51100000000E-03 0. -1.
         11    1    4    4    0    0 -0.70337336874E-01 -0.19739929309E-01 -0.20097439935E-01  0.75770535043E-01  0.51100000000E-03 0.  1.
</event>
<event>
 8    1  0.1064884E+005  0.1043930E+01  0.7957747E-01            NaN
         13   -1    0    0    0    0  0.00000000000E+00  0.00000000000E+00  0.74505805969E-08  0.10566000000E+00  0.10566000000E+00 0.  1.
     999900   -1    0    0    0    0 -0.00000000000E+00 -0.00000000000E+00 -0.74505805969E-08  0.93827000000E+00  0.93827000000E+00 0.  1.
     999902    2    1    2    0    0 -0.16331510750E-01  0.49088038651E-02  0.17133833427E-01  0.10197559882E+01  0.10194694172E+01 0.  0.
     999903    2    3    3    0    0  0.79113377099E-01 -0.69872860276E-01  0.72564004476E-01  0.12971411965E+00  0.20471322655E-01 0.  0.
         14    1    1    2    0    0  0.16331510750E-01 -0.49088038651E-02 -0.17133833427E-01  0.24174011803E-01  0.00000000000E+00 0. -1.
     999901    1    3    3    0    0 -0.95444887849E-01  0.74781664141E-01 -0.55430171048E-01  0.89004186855E+00  0.88000000000E+00 0. -1.
        -11    1    4    4    0    0  0.70661752303E-01 -0.52584873394E-01  0.56540194948E-01  0.10466760203E+00  0.51100000000E-03 0.  1.
         11    1    4    4    0    0  0.84516247961E-02 -0.17287986882E-01  0.16023809528E-01  0.25046517620E-01  0.51100000000E-03 0. -1.
</event>
<event>
 8    1  0.1064884E+005  0.1043930E+01  0.7957747E-01            NaN
         13   -1    0    0    0    0  0.00000000000E+00  0.00000000000E+00  0.74505805969E-08  0.10566000000E+00  0.10566000000E+00 0.  1.
     999900   -1    0    0    0    0 -0.00000000000E+00 -0.00000000000E+00 -0.74505805969E-08  0.93827000000E+00  0.93827000000E+00 0.  1.
     999902    2    1    2    0    0 -0.18255749663E-01  0.11869552883E-01 -0.81628418563E-02  0.10206750937E+01  0.10204101412E+01 0.  0.
     999903    2    3    3    0    0  0.58915036030E-01  0.10581215196E+00 -0.48508212915E-01  0.13140106894E+00  0.15684426243E-01 0.  0.
         14    1    1    2    0    0  0.18255749663E-01 -0.11869552883E-01  0.81628418563E-02  0.23254906333E-01  0.00000000000E+00 0.  1.
     999901    1    3    3    0    0 -0.77170785692E-01 -0.93942599074E-01  0.40345371059E-01  0.88927402473E+00  0.88000000000E+00 0. -1.
        -11    1    4    4    0    0  0.18629173713E-01  0.23162583770E-01 -0.16758977089E-01  0.34127347307E-01  0.51100000000E-03 0. -1.
         11    1    4    4    0    0  0.40285862316E-01  0.82649568187E-01 -0.31749235827E-01  0.97273721635E-01  0.51100000000E-03 0.  1.
</event>
<event>
 8    1  0.1064884E+005  0.1043930E+01  0.7957747E-01            NaN
         13   -1    0    0    0    0  0.00000000000E+00  0.00000000000E+00  0.74505805969E-08  0.10566000000E+00  0.10566000000E+00 0.  1.
     999900   -1    0    0    0    0 -0.00000000000E+00 -0.00000000000E+00 -0.74505805969E-08  0.93827000000E+00  0.93827000000E+00 0. -1.
     999902    2    1    2    0    0 -0.79705177550E-02  0.14881208209E-01  0.16437253012E-01  0.10203681071E+01  0.10200960304E+01 0.  0.
     999903    2    3    3    0    0 -0.26956435261E-01  0.10701140197E+00 -0.68185377052E-01  0.13131837440E+00  0.20424991046E-01 0.  0.
         14    1    1    2    0    0  0.79705177550E-02 -0.14881208209E-01 -0.16437253012E-01  0.23561892913E-01  0.00000000000E+00 0. -1.
     999901    1    3    3    0    0  0.18985917506E-01 -0.92130193759E-01  0.84622630065E-01  0.88904973268E+00  0.88000000000E+00 0.  1.
        -11    1    4    4    0    0 -0.17482742227E-02  0.24183000213E-01 -0.68078083631E-02  0.25188912993E-01  0.51100000000E-03 0.  1.
         11    1    4    4    0    0 -0.25208161038E-01  0.82828401755E-01 -0.61377568689E-01  0.10612946141E+00  0.51100000000E-03 0. -1.
</event>
<event>
 8    1  0.1064884E+005  0.1043930E+01  0.7957747E-01            NaN
         13   -1    0    0    0    0  0.00000000000E+00  0.00000000000E+00  0.74505805969E-08  0.10566000000E+00  0.10566000000E+00 0. -1.
     999900   -1    0    0    0    0 -0.00000000000E+00 -0.00000000000E+00 -0.74505805969E-08  0.93827000000E+00  0.93827000000E+00 0.  1.
     999902    2    1    2    0    0 -0.15748701023E-02  0.23519269355E-01  0.20881692770E-02  0.10202657506E+01  0.10199912770E+01 0.  0.
     999903    2    3    3    0    0 -0.10925766990E+00  0.28614703068E-01 -0.63861835489E-01  0.13123765663E+00  0.19721785423E-01 0.  0.
         14    1    1    2    0    0  0.15748701023E-02 -0.23519269355E-01 -0.20881692770E-02  0.23664249360E-01  0.00000000000E+00 0.  1.
     999901    1    3    3    0    0  0.10768279980E+00 -0.50954337127E-02  0.65950004766E-01  0.88902809401E+00  0.88000000000E+00 0. -1.
        -11    1    4    4    0    0 -0.75333419642E-01  0.13843791739E-01 -0.51175836952E-01  0.92119498986E-01  0.51100000000E-03 0. -1.
         11    1    4    4    0    0 -0.33924250262E-01  0.14770911328E-01 -0.12685998537E-01  0.39118157640E-01  0.51100000000E-03 0.  1.
</event>
<event>
 8    1  0.1064884E+005  0.1043930E+01  0.7957747E-01            NaN
         13   -1    0    0    0    0  0.00000000000E+00  0.00000000000E+00  0.74505805969E-08  0.10566000000E+00  0.10566000000E+00 0. -1.
     999900   -1    0    0    0    0 -0.00000000000E+00 -0.00000000000E+00 -0.74505805969E-08  0.93827000000E+00  0.93827000000E+00 0.  1.
     999902    2    1    2    0    0 -0.20003536705E-01  0.11944502870E-03  0.12535446732E-01  0.10203229423E+01  0.10200498093E+01 0.  0.
     999903    2    3    3    0    0  0.10935945756E+00  0.63537063850E-01  0.11588449132E-01  0.12860691382E+00  0.20223666581E-01 0.  0.
         14    1    1    2    0    0  0.20003536705E-01 -0.11944502870E-03 -0.12535446732E-01  0.23607057686E-01  0.00000000000E+00 0. -1.
     999901    1    3    3    0    0 -0.12936299426E+00 -0.63417618822E-01  0.94699760039E-03  0.89171602849E+00  0.88000000000E+00 0.  1.
        -11    1    4    4    0    0  0.72028605191E-01  0.37150018960E-01 -0.14732309431E-02  0.81059702718E-01  0.51100000000E-03 0.  1.
         11    1    4    4    0    0  0.37330852368E-01  0.26387044891E-01  0.13061680075E-01  0.47547211106E-01  0.51100000000E-03 0. -1.
</event>
<event>
 7    1  0.1064884E+005  0.1043930E+01  0.7957747E-01            NaN
         13   -1    0    0    0    0  0.00000000000E+00  0.00000000000E+00  0.74505805969E-08  0.10566000000E+00  0.10566000000E+00 0. -1.
     999900   -1    0    0    0    0 -0.00000000000E+00 -0.00000000000E+00 -0.74505805969E-08  0.93827000000E+00  0.93827000000E+00 0. -1.
     999903    2    1    2    0    0 -0.94119718871E-02 -0.74346198288E-01  0.36941920637E-01  0.85986292143E-01  0.20322266640E-01 0.  0.
         14    1    1    2    0    0 -0.58209159900E-01 -0.33967437422E-01  0.62177514757E-02  0.67681264281E-01  0.00000000000E+00 0.  1.
     999901    1    1    2    0    0  0.67621131787E-01  0.10831363571E+00 -0.43159672113E-01  0.89026244358E+00  0.88000000000E+00 0. -1.
        -11    1    3    3    0    0  0.36571591723E-02 -0.33463528007E-01  0.92835238368E-02  0.34923165030E-01  0.51100000000E-03 0.  1.
         11    1    3    3    0    0 -0.13069131059E-01 -0.40882670281E-01  0.27658396801E-01  0.51063127113E-01  0.51100000000E-03 0. -1.
</event>
<event>
 8    1  0.1064884E+005  0.1043930E+01  0.7957747E-01            NaN
         13   -1    0    0    0    0  0.00000000000E+00  0.00000000000E+00  0.74505805969E-08  0.10566000000E+00  0.10566000000E+00 0. -1.
     999900   -1    0    0    0    0 -0.00000000000E+00 -0.00000000000E+00 -0.74505805969E-08  0.93827000000E+00  0.93827000000E+00 0. -1.
     999902    2    1    2    0    0 -0.99702150817E-02  0.19990172942E-01  0.72191969585E-02  0.10204538630E+01  0.10201837862E+01 0.  0.
     999903    2    3    3    0    0  0.16277874925E-01  0.87661372557E-01  0.96590251510E-01  0.13295426365E+00  0.19941767332E-01 0.  0.
         14    1    1    2    0    0  0.99702150817E-02 -0.19990172942E-01 -0.72191969585E-02  0.23476136986E-01  0.00000000000E+00 0.  1.
     999901    1    3    3    0    0 -0.26248090007E-01 -0.67671199615E-01 -0.89371054552E-01  0.88749959937E+00  0.88000000000E+00 0. -1.
        -11    1    4    4    0    0  0.65250183128E-02  0.60645414203E-02  0.12681230796E-01  0.15505781571E-01  0.51100000000E-03 0.  1.
         11    1    4    4    0    0  0.97528566125E-02  0.81596831137E-01  0.83909020714E-01  0.11744848208E+00  0.51100000000E-03 0. -1.
</event>
<event>
 8    1  0.1064884E+005  0.1043930E+01  0.7957747E-01            NaN
         13   -1    0    0    0    0  0.00000000000E+00  0.00000000000E+00  0.74505805969E-08  0.10566000000E+00  0.10566000000E+00 0. -1.
     999900   -1    0    0    0    0 -0.00000000000E+00 -0.00000000000E+00 -0.74505805969E-08  0.93827000000E+00  0.93827000000E+00 0. -1.
     999902    2    1    2    0    0 -0.21642962497E-01 -0.26173122112E-02 -0.10891872345E-01  0.10195599152E+01  0.10192686200E+01 0.  0.
     999903    2    3    3    0    0 -0.10328323308E+00  0.68662289959E-01 -0.41976056945E-01  0.13236650790E+00  0.19415631796E-01 0.  0.
         14    1    1    2    0    0  0.21642962497E-01  0.26173122112E-02  0.10891872345E-01  0.24370084777E-01  0.00000000000E+00 0. -1.
     999901    1    3    3    0    0  0.81640270587E-01 -0.71279602170E-01  0.31084184601E-01  0.88719340732E+00  0.88000000000E+00 0.  1.
        -11    1    4    4    0    0 -0.67438594779E-01  0.43312379010E-01 -0.17282891408E-01  0.81993205192E-01  0.51100000000E-03 0.  1.
         11    1    4    4    0    0 -0.35844638305E-01  0.25349910948E-01 -0.24693165538E-01  0.50373302707E-01  0.51100000000E-03 0. -1.
</event>
<event>
 8    1  0.1064884E+005  0.1043930E+01  0.7957747E-01            NaN
         13   -1    0    0    0    0  0.00000000000E+00  0.00000000000E+00  0.74505805969E-08  0.10566000000E+00  0.10566000000E+00 0.  1.
     999900   -1    0    0    0    0 -0.00000000000E+00 -0.00000000000E+00 -0.74505805969E-08  0.93827000000E+00  0.93827000000E+00 0. -1.
     999902    2    1    2    0    0  0.38554139090E-02  0.21089733039E-01  0.75564600339E-02  0.10211980589E+01  0.10209450203E+01 0.  0.
     999903    2    3    3    0    0 -0.10036313652E+00 -0.67986349780E-01  0.41713462846E-01  0.12992775447E+00  0.21125943074E-01 0.  0.
         14    1    1    2    0    0 -0.38554139090E-02 -0.21089733039E-01 -0.75564600339E-02  0.22731941059E-01  0.00000000000E+00 0. -1.
     999901    1    3    3    0    0  0.10421855043E+00  0.89076082819E-01 -0.34157002812E-01  0.89127030447E+00  0.88000000000E+00 0.  1.
        -11    1    4    4    0    0 -0.22456682241E-01 -0.22342494735E-01  0.18537114305E-01  0.36706612157E-01  0.51100000000E-03 0.  1.
         11    1    4    4    0    0 -0.77906454282E-01 -0.45643855045E-01  0.23176348541E-01  0.93221142316E-01  0.51100000000E-03 0. -1.
</event>
<event>
 8    1  0.1064884E+005  0.1043930E+01  0.7957747E-01            NaN
         13   -1    0    0    0    0  0.00000000000E+00  0.00000000000E+00  0.74505805969E-08  0.10566000000E+00  0.10566000000E+00 0.  1.
     999900   -1    0    0    0    0 -0.00000000000E+00 -0.00000000000E+00 -0.74505805969E-08  0.93827000000E+00  0.93827000000E+00 0.  1.
     999902    2    1    2    0    0 -0.96069886236E-03  0.16809137249E-01 -0.16241649265E-01  0.10205363853E+01  0.10202682258E+01 0.  0.
     999903    2    3    3    0    0 -0.62590644612E-01  0.89894433034E-01  0.69481988716E-01  0.13121740273E+00  0.19790455765E-01 0.  0.
         14    1    1    2    0    0  0.96069886236E-03 -0.16809137249E-01  0.16241649265E-01  0.23393614689E-01  0.00000000000E+00 0. -1.
     999901    1    3    3    0    0  0.61629945750E-01 -0.73085295784E-01 -0.85723637981E-01  0.88931898258E+00  0.88000000000E+00 0. -1.
        -11    1    4    4    0    0 -0.36874693983E-01  0.66588895252E-01  0.41938532412E-01  0.86907569573E-01  0.51100000000E-03 0. -1.
         11    1    4    4    0    0 -0.25715950630E-01  0.23305537782E-01  0.27543456304E-01  0.44309833155E-01  0.51100000000E-03 0.  1.
</event>
<event>
 8    1  0.1064884E+005  0.1043930E+01  0.7957747E-01            NaN
         13   -1    0    0    0    0  0.00000000000E+00  0.00000000000E+00  0.74505805969E-08  0.10566000000E+00  0.10566000000E+00 0.  1.
     999900   -1    0    0    0    0 -0.00000000000E+00 -0.00000000000E+00 -0.74505805969E-08  0.93827000000E+00  0.93827000000E+00 0.  1.
     999902    2    1    2    0    0 -0.18403511130E-01 -0.52553275938E-02  0.11544076038E-01  0.10215788617E+01  0.10213343220E+01 0.  0.
     999903    2    3    3    0    0  0.10007416561E+00 -0.44777338337E-01  0.68714126423E-01  0.13092328079E+00  0.19985635586E-01 0.  0.
         14    1    1    2    0    0  0.18403511130E-01  0.52553275938E-02 -0.11544076038E-01  0.22351138262E-01  0.00000000000E+00 0.  1.
     999901    1    3    3    0    0 -0.11847767674E+00  0.39522010743E-01 -0.57170050385E-01  0.89065558095E+00  0.88000000000E+00 0. -1.
        -11    1    4    4    0    0  0.42981764920E-01 -0.20595760807E-01  0.41540547904E-01  0.63225752032E-01  0.51100000000E-03 0. -1.
         11    1    4    4    0    0  0.57092400695E-01 -0.24181577529E-01  0.27173578519E-01  0.67697528754E-01  0.51100000000E-03 0.  1.
</event>
<event>
 8    1  0.1064884E+005  0.1043930E+01  0.7957747E-01            NaN
         13   -1    0    0    0    0  0.00000000000E+00  0.00000000000E+00  0.74505805969E-08  0.10566000000E+00  0.10566000000E+00 0.  1.
     999900   -1    0    0    0    0 -0.00000000000E+00 -0.00000000000E+00 -0.74505805969E-08  0.93827000000E+00  0.93827000000E+00 0.  1.
     999902    2    1    2    0    0 -0.18380963025E-01  0.11481591218E-01 -0.96805260891E-02  0.10201939657E+01  0.10199178047E+01 0.  0.
     999903    2    3    3    0    0  0.20544616034E-01  0.97172111253E-01 -0.84728226202E-01  0.13199904159E+00  0.19503184684E-01 0.  0.
         14    1    1    2    0    0  0.18380963025E-01 -0.11481591218E-01  0.96805260891E-02  0.23736034293E-01  0.00000000000E+00 0.  1.
     999901    1    3    3    0    0 -0.38925579059E-01 -0.85690520035E-01  0.75047700113E-01  0.88819492411E+00  0.88000000000E+00 0. -1.
        -11    1    4    4    0    0  0.71232205754E-02  0.56321605321E-01 -0.59045473645E-01  0.81911492333E-01  0.51100000000E-03 0. -1.
         11    1    4    4    0    0  0.13421395459E-01  0.40850505932E-01 -0.25682752557E-01  0.50087549260E-01  0.51100000000E-03 0.  1.
</event>
<event>
 8    1  0.1064884E+005  0.1043930E+01  0.7957747E-01            NaN
         13   -1    0    0    0    0  0.00000000000E+00  0.00000000000E+00  0.74505805969E-08  0.10566000000E+00  0.10566000000E+00 0.  1.
     999900   -1    0    0    0    0 -0.00000000000E+00 -0.00000000000E+00 -0.74505805969E-08  0.93827000000E+00  0.93827000000E+00 0. -1.
     999902    2    1    2    0    0  0.22269951927E-02 -0.21629388758E-01 -0.12180183855E-01  0.10190071823E+01  0.10187023563E+01 0.  0.
     999903    2    3    3    0    0 -0.36607569290E-01  0.80598223824E-01 -0.91337936975E-01  0.12871253549E+00  0.19700513932E-01 0.  0.
         14    1    1    2    0    0 -0.22269951927E-02  0.21629388758E-01  0.12180183855E-01  0.24922817746E-01  0.00000000000E+00 0. -1.
     999901    1    3    3    0    0  0.38834564483E-01 -0.10222761258E+00  0.79157753120E-01  0.89029464676E+00  0.88000000000E+00 0.  1.
        -11    1    4    4    0    0 -0.21982834790E-01  0.26619516789E-01 -0.30431133725E-01  0.46023458370E-01  0.51100000000E-03 0.  1.
         11    1    4    4    0    0 -0.14624734500E-01  0.53978707035E-01 -0.60906803250E-01  0.82689077123E-01  0.51100000000E-03 0. -1.
</event>
<event>
 8    1  0.1064884E+005  0.1043930E+01  0.7957747E-01            NaN
         13   -1    0    0    0    0  0.00000000000E+00  0.00000000000E+00  0.74505805969E-08  0.10566000000E+00  0.10566000000E+00 0. -1.
     999900   -1    0    0    0    0 -0.00000000000E+00 -0.00000000000E+00 -0.74505805969E-08  0.93827000000E+00  0.93827000000E+00 0.  1.
     999902    2    1    2    0    0  0.82025056449E-02 -0.10146690400E-01  0.19576759499E-01  0.10204037182E+01  0.10201324728E+01 0.  0.
     999903    2    3    3    0    0 -0.48768852284E-01  0.13076733753E-01 -0.11582103213E+00  0.12792535706E+00  0.20024574303E-01 0.  0.
         14    1    1    2    0    0 -0.82025056449E-02  0.10146690400E-01 -0.19576759499E-01  0.23526281844E-01  0.00000000000E+00 0.  1.
     999901    1    3    3    0    0  0.56971357929E-01 -0.23223424153E-01  0.13539779163E+00  0.89247836110E+00  0.88000000000E+00 0. -1.
        -11    1    4    4    0    0 -0.11863337061E-01  0.31829596478E-02 -0.52902674452E-01  0.54312282990E-01  0.51100000000E-03 0. -1.
         11    1    4    4    0    0 -0.36905515223E-01  0.98937741053E-02 -0.62918357676E-01  0.73613074067E-01  0.51100000000E-03 0.  1.
</event>
<event>
 8    1  0.1064884E+005  0.1043930E+01  0.7957747E-01            NaN
         13   -1    0    0    0    0  0.00000000000E+00  0.00000000000E+00  0.74505805969E-08  0.10566000000E+00  0.10566000000E+00 0.  1.
     999900   -1    0    0    0    0 -0.00000000000E+00 -0.00000000000E+00 -0.74505805969E-08  0.93827000000E+00  0.93827000000E+00 0.  1.
     999902    2    1    2    0    0 -0.65181136691E-02  0.21753144916E-01  0.71816619119E-02  0.10201127502E+01  0.10198346737E+01 0.  0.
     999903    2    3    3    0    0 -0.71832997466E-01 -0.19668927899E-02  0.10666116562E+00  0.13178575755E+00  0.28758189261E-01 0.  0.
         14    1    1    2    0    0  0.65181136691E-02 -0.21753144916E-01 -0.71816619119E-02  0.23817249786E-01  0.00000000000E+00 0. -1.
     999901    1    3    3    0    0  0.65314883797E-01  0.23720037706E-01 -0.99479503709E-01  0.88832699266E+00  0.88000000000E+00 0.  1.
        -11    1    4    4    0    0 -0.26665974412E-01  0.44696951119E-02  0.63331155950E-01  0.68863261619E-01  0.51100000000E-03 0.  1.
         11    1    4    4    0    0 -0.45167023054E-01 -0.64365879019E-02  0.43330009671E-01  0.62922495933E-01  0.51100000000E-03 0. -1.
</event>
<event>
 8    1  0.1064884E+005  0.1043930E+01  0.7957747E-01            NaN
         13   -1    0    0    0    0  0.00000000000E+00  0.00000000000E+00  0.74505805969E-08  0.10566000000E+00  0.10566000000E+00 0.  1.
     999900   -1    0    0    0    0 -0.00000000000E+00 -0.00000000000E+00 -0.74505805969E-08  0.93827000000E+00  0.93827000000E+00 0. -1.
     999902    2    1    2    0    0 -0.10405760634E-01 -0.19289891326E-01  0.85109969043E-02  0.10204179429E+01  0.10201470293E+01 0.  0.
     999903    2    3    3    0    0  0.12266055209E+00  0.32860513431E-01 -0.66789192096E-02  0.12875823097E+00  0.20215085885E-01 0.  0.
         14    1    1    2    0    0  0.10405760634E-01  0.19289891326E-01 -0.85109969043E-02  0.23512057121E-01  0.00000000000E+00 0. -1.
     999901    1    3    3    0    0 -0.13306631272E+00 -0.52150404757E-01  0.15189916114E-01  0.89165971191E+00  0.88000000000E+00 0. -1.
        -11    1    4    4    0    0  0.10426477334E+00  0.20123420849E-01 -0.47973672737E-02  0.10629849896E+00  0.51100000000E-03 0.  1.
         11    1    4    4    0    0  0.18395778750E-01  0.12737092582E-01 -0.18815519359E-02  0.22459732010E-01  0.51100000000E-03 0. -1.
</event>
<event>
 8    1  0.1064884E+005  0.1043930E+01  0.7957747E-01            NaN
         13   -1    0    0    0    0  0.00000000000E+00  0.00000000000E+00  0.74505805969E-08  0.10566000000E+00  0.10566000000E+00 0.  1.
     999900   -1    0    0    0    0 -0.00000000000E+00 -0.00000000000E+00 -0.74505805969E-08  0.93827000000E+00  0.93827000000E+00 0.  1.
     999902    2    1    2    0    0 -0.97601140506E-03 -0.10347734207E-01  0.20364633712E-01  0.10210663496E+01  0.10208103369E+01 0.  0.
     999903    2    3    3    0    0  0.33040400533E-01  0.11476257128E+00 -0.45378243916E-01  0.12914043860E+00  0.18866690977E-01 0.  0.
         14    1    1    2    0    0  0.97601140505E-03  0.10347734207E-01 -0.20364633712E-01  0.22863650359E-01  0.00000000000E+00 0. -1.
     999901    1    3    3    0    0 -0.34016411938E-01 -0.12511030549E+00  0.65742877628E-01  0.89192591104E+00  0.88000000000E+00 0. -1.
        -11    1    4    4    0    0  0.30643197422E-01  0.11156834188E+00 -0.46887361118E-01  0.12484064327E+00  0.51100000000E-03 0. -1.
         11    1    4    4    0    0  0.23972031112E-02  0.31942293963E-02  0.15091172019E-02  0.42997953348E-02  0.51100000000E-03 0.  1.
</event>
<event>
 8    1  0.1064884E+005  0.1043930E+01  0.7957747E-01            NaN
         13   -1    0    0    0    0  0.00000000000E+00  0.00000000000E+00  0.74505805969E-08  0.10566000000E+00  0.10566000000E+00 0.  1.
     999900   -1    0    0    0    0 -0.00000000000E+00 -0.00000000000E+00 -0.74505805969E-08  0.93827000000E+00  0.93827000000E+00 0. -1.
     999902    2    1    2    0    0  0.16068359374E-01 -0.13867614982E-01  0.10077180282E-01  0.10204342029E+01  0.10201636682E+01 0.  0.
     999903    2    3    3    0    0 -0.69626013659E-01  0.73847990494E-01 -0.75045329319E-01  0.12786297626E+00  0.20391953487E-01 0.  0.
         14    1    1    2    0    0 -0.16068359374E-01  0.13867614982E-01 -0.10077180282E-01  0.23495797085E-01  0.00000000000E+00 0. -1.
     999901    1    3    3    0    0  0.85694373032E-01 -0.87715605476E-01  0.85122509601E-01  0.89257122666E+00  0.88000000000E+00 0.  1.
        -11    1    4    4    0    0 -0.35953702547E-01  0.40877621044E-01 -0.27794767474E-01  0.61126580544E-01  0.51100000000E-03 0. -1.
         11    1    4    4    0    0 -0.33672311112E-01  0.32970369450E-01 -0.47250561845E-01  0.66736395714E-01  0.51100000000E-03 0.  1.
</event>
<event>
 8    1  0.1064884E+005  0.1043930E+01  0.7957747E-01            NaN
         13   -1    0    0    0    0  0.00000000000E+00  0.00000000000E+00  0.74505805969E-08  0.10566000000E+00  0.10566000000E+00 0.  1.
     999900   -1    0    0    0    0 -0.00000000000E+00 -0.00000000000E+00 -0.74505805969E-08  0.93827000000E+00  0.93827000000E+00 0.  1.
     999902    2    1    2    0    0  0.19613639817E-01 -0.11391478273E-01 -0.76174974260E-02  0.10200033013E+01  0.10197226327E+01 0.  0.
     999903    2    3    3    0    0 -0.21717650499E-01  0.84557529364E-01  0.91263891679E-01  0.12832397735E+00  0.22722524597E-01 0.  0.
         14    1    1    2    0    0 -0.19613639817E-01  0.11391478273E-01  0.76174974260E-02  0.23926698709E-01  0.00000000000E+00 0.  1.
     999901    1    3    3    0    0  0.41331290316E-01 -0.95949007636E-01 -0.98881389105E-01  0.89167932394E+00  0.88000000000E+00 0.  1.
        -11    1    4    4    0    0 -0.46659316008E-02  0.37732342734E-01  0.54241076104E-01  0.66240894195E-01  0.51100000000E-03 0. -1.
         11    1    4    4    0    0 -0.17051718898E-01  0.46825186629E-01  0.37022815576E-01  0.62083083158E-01  0.51100000000E-03 0.  1.
</event>
<event>
 8    1  0.1064884E+005  0.1043930E+01  0.7957747E-01            NaN
         13   -1    0    0    0    0  0.00000000000E+00  0.00000000000E+00  0.74505805969E-08  0.10566000000E+00  0.10566000000E+00 0. -1.
     999900   -1    0    0    0    0 -0.00000000000E+00 -0.00000000000E+00 -0.74505805969E-08  0.93827000000E+00  0.93827000000E+00 0.  1.
     999902    2    1    2    0    0  0.82066210435E-02  0.51048421323E-02 -0.21598949461E-01  0.10202673150E+01  0.10199928781E+01 0.  0.
     999903    2    3    3    0    0 -0.59761929392E-01  0.11367790544E+00  0.94504990531E-02  0.13045165874E+00  0.20836721097E-01 0.  0.
         14    1    1    2    0    0 -0.82066210435E-02 -0.51048421323E-02  0.21598949461E-01  0.23662684970E-01  0.00000000000E+00 0. -1.
     999901    1    3    3    0    0  0.67968550435E-01 -0.10857306331E+00 -0.31049448514E-01  0.88981565629E+00  0.88000000000E+00 0.  1.
        -11    1    4    4    0    0 -0.46318368964E-01  0.97502247071E-01  0.14880607535E-02  0.10795626398E+00  0.51100000000E-03 0. -1.
         11    1    4    4    0    0 -0.13443560427E-01  0.16175658369E-01  0.79624382996E-02  0.22495394758E-01  0.51100000000E-03 0.  1.
</event>
<event>
 8    1  0.1064884E+005  0.1043930E+01  0.7957747E-01            NaN
         13   -1    0    0    0    0  0.00000000000E+00  0.00000000000E+00  0.74505805969E-08  0.10566000000E+00  0.10566000000E+00 0.  1.
     999900   -1    0    0    0    0 -0.00000000000E+00 -0.00000000000E+00 -0.74505805969E-08  0.93827000000E+00  0.93827000000E+00 0. -1.
     999902    2    1    2    0    0  0.54630513083E-02 -0.41706926116E-03 -0.22428227472E-01  0.10208422486E+01  0.10205811346E+01 0.  0.
     999903    2    3    3    0    0 -0.70070946952E-01 -0.69415752702E-01 -0.86458232655E-01  0.13260464258E+00  0.19505919893E-01 0.  0.
         14    1    1    2    0    0 -0.54630513083E-02  0.41706926116E-03  0.22428227472E-01  0.23087751383E-01  0.00000000000E+00 0.  1.
     999901    1    3    3    0    0  0.75533998260E-01  0.68998683441E-01  0.64030005183E-01  0.88823760603E+00  0.88000000000E+00 0. -1.
        -11    1    4    4    0    0 -0.29076627025E-01 -0.41564448510E-01 -0.39032999182E-01  0.64006950914E-01  0.51100000000E-03 0.  1.
         11    1    4    4    0    0 -0.40994319927E-01 -0.27851304192E-01 -0.47425233473E-01  0.68597691670E-01  0.51100000000E-03 0. -1.
</event>
<event>
 8    1  0.1064884E+005  0.1043930E+01  0.7957747E-01            NaN
         13   -1    0    0    0    0  0.00000000000E+00  0.00000000000E+00  0.74505805969E-08  0.10566000000E+00  0.10566000000E+00 0.  1.
     999900   -1    0    0    0    0 -0.00000000000E+00 -0.00000000000E+00 -0.74505805969E-08  0.93827000000E+00  0.93827000000E+00 0.  1.
     999902    2    1    2    0    0  0.62740350762E-02  0.22071067812E-01  0.53217925245E-02  0.10203754457E+01  0.10201035405E+01 0.  0.
     999903    2    3    3    0    0  0.90060888050E-01 -0.37644117392E-01 -0.83408449949E-01  0.12994903329E+00  0.20043417831E-01 0.  0.
         14    1    1    2    0    0 -0.62740350762E-02 -0.22071067812E-01 -0.53217925245E-02  0.23554554255E-01  0.00000000000E+00 0. -1.
     999901    1    3    3    0    0 -0.83786852974E-01  0.59715185204E-01  0.88730242474E-01  0.89042641246E+00  0.88000000000E+00 0. -1.
        -11    1    4    4    0    0  0.32573220505E-02 -0.60295873815E-02 -0.90186558123E-02  0.11338577715E-01  0.51100000000E-03 0.  1.
         11    1    4    4    0    0  0.86803566000E-01 -0.31614530011E-01 -0.74389794137E-01  0.11861045557E+00  0.51100000000E-03 0. -1.
</event>
<event>
 8    1  0.1064884E+005  0.1043930E+01  0.7957747E-01            NaN
         13   -1    0    0    0    0  0.00000000000E+00  0.00000000000E+00  0.74505805969E-08  0.10566000000E+00  0.10566000000E+00 0.  1.
     999900   -1    0    0    0    0 -0.00000000000E+00 -0.00000000000E+00 -0.74505805969E-08  0.93827000000E+00  0.93827000000E+00 0. -1.
     999902    2    1    2    0    0 -0.16056784934E-01  0.17253333455E-01  0.68692898397E-02  0.10193803564E+01  0.10190847001E+01 0.  0.
     999903    2    3    3    0    0 -0.79562055675E-01  0.11411405479E-01  0.10257651237E+00  0.13189688051E+00  0.20359403766E-01 0.  0.
         14    1    1    2    0    0  0.16056784934E-01 -0.17253333455E-01 -0.68692898397E-02  0.24549643595E-01  0.00000000000E+00 0. -1.
     999901    1    3    3    0    0  0.63505270740E-01  0.58419279762E-02 -0.95707222529E-01  0.88748347589E+00  0.88000000000E+00 0. -1.
        -11    1    4    4    0    0 -0.26261923975E-01 -0.47876883082E-02  0.40263071024E-01  0.48311350835E-01  0.51100000000E-03 0.  1.
         11    1    4    4    0    0 -0.53300131699E-01  0.16199093787E-01  0.62313441344E-01  0.83585529680E-01  0.51100000000E-03 0. -1.
</event>
<event>
 8    1  0.1064884E+005  0.1043930E+01  0.7957747E-01            NaN
         13   -1    0    0    0    0  0.00000000000E+00  0.00000000000E+00  0.74505805969E-08  0.10566000000E+00  0.10566000000E+00 0. -1.
     999900   -1    0    0    0    0 -0.00000000000E+00 -0.00000000000E+00 -0.74505805969E-08  0.93827000000E+00  0.93827000000E+00 0.  1.
     999902    2    1    2    0    0 -0.22885406852E-01  0.78846888320E-02 -0.76584164217E-02  0.10185417841E+01  0.10182253211E+01 0.  0.
     999903    2    3    3    0    0  0.74118277002E-01 -0.98738846658E-02  0.10018460948E+00  0.12649066457E+00  0.19285218764E-01 0.  0.
         14    1    1    2    0    0  0.22885406852E-01 -0.78846888320E-02  0.76584164217E-02  0.25388215905E-01  0.00000000000E+00 0. -1.
     999901    1    3    3    0    0 -0.97003683854E-01  0.17758573498E-01 -0.10784302590E+00  0.89205111953E+00  0.88000000000E+00 0.  1.
        -11    1    4    4    0    0  0.23187403388E-01 -0.55044150098E-02  0.47128642670E-01  0.52814054393E-01  0.51100000000E-03 0.  1.
         11    1    4    4    0    0  0.50930873614E-01 -0.43694696560E-02  0.53055966806E-01  0.73676610175E-01  0.51100000000E-03 0. -1.
</event>
<event>
 8    1  0.1064884E+005  0.1043930E+01  0.7957747E-01            NaN
         13   -1    0    0    0    0  0.00000000000E+00  0.00000000000E+00  0.74505805969E-08  0.10566000000E+00  0.10566000000E+00 0.  1.
     999900   -1    0    0    0    0 -0.00000000000E+00 -0.00000000000E+00 -0.74505805969E-08  0.93827000000E+00  0.93827000000E+00 0.  1.
     999902    2    1    2    0    0  0.16847686061E-01 -0.98344900765E-02 -0.13403724441E-01  0.10202610002E+01  0.10199864151E+01 0.  0.
     999903    2    3    3    0    0 -0.57154719893E-01 -0.63538723902E-02 -0.11622196987E+00  0.13118279087E+00  0.19858112712E-01 0.  0.
         14    1    1    2    0    0 -0.16847686061E-01  0.98344900765E-02  0.13403724441E-01  0.23668999758E-01  0.00000000000E+00 0.  1.
     999901    1    3    3    0    0  0.74002405954E-01 -0.34806176863E-02  0.10281824543E+00  0.88907820937E+00  0.88000000000E+00 0. -1.
        -11    1    4    4    0    0 -0.10844879247E-01 -0.84877844900E-02 -0.35703182864E-01  0.38270514486E-01  0.51100000000E-03 0.  1.
         11    1    4    4    0    0 -0.46309840646E-01  0.21339120998E-02 -0.80518787003E-01  0.92912276384E-01  0.51100000000E-03 0. -1.
</event>
<event>
 8    1  0.1064884E+005  0.1043930E+01  0.7957747E-01            NaN
         13   -1    0    0    0    0  0.00000000000E+00  0.00000000000E+00  0.74505805969E-08  0.10566000000E+00  0.10566000000E+00 0.  1.
     999900   -1    0    0    0    0 -0.00000000000E+00 -0.00000000000E+00 -0.74505805969E-08  0.93827000000E+00  0.93827000000E+00 0. -1.
     999902    2    1    2    0    0  0.16171623050E-01  0.38436536647E-02 -0.16449338203E-01  0.10205446244E+01  0.10202766559E+01 0.  0.
     999903    2    3    3    0    0  0.11887556277E+00  0.13194610478E-01 -0.56102956274E-01  0.13363541310E+00  0.20134169028E-01 0.  0.
         14    1    1    2    0    0 -0.16171623050E-01 -0.38436536647E-02  0.16449338203E-01  0.23385375620E-01  0.00000000000E+00 0.  1.
     999901    1    3    3    0    0 -0.10270393972E+00 -0.93509568133E-02  0.39653618071E-01  0.88690921128E+00  0.88000000000E+00 0. -1.
        -11    1    4    4    0    0  0.71981314754E-01  0.16008256833E-01 -0.27926426656E-01  0.78852523025E-01  0.51100000000E-03 0.  1.
         11    1    4    4    0    0  0.46894248015E-01 -0.28136463554E-02 -0.28176529619E-01  0.54782890076E-01  0.51100000000E-03 0. -1.
</event>
<event>
 8    1  0.1064884E+005  0.1043930E+01  0.7957747E-01            NaN
         13   -1    0    0    0    0  0.00000000000E+00  0.00000000000E+00  0.74505805969E-08  0.10566000000E+00  0.10566000000E+00 0.  1.
     999900   -1    0    0    0    0 -0.00000000000E+00 -0.00000000000E+00 -0.74505805969E-08  0.93827000000E+00  0.93827000000E+00 0. -1.
     999902    2    1    2    0    0 -0.12931184195E-01  0.20484700617E-01 -0.12852375887E-02  0.10196711806E+01  0.10193825711E+01 0.  0.
     999903    2    3    3    0    0 -0.68364524545E-01  0.94683753933E-01 -0.59854394755E-01  0.13287430366E+00  0.20840118220E-01 0.  0.
         14    1    1    2    0    0  0.12931184195E-01 -0.20484700617E-01  0.12852375887E-02  0.24258819421E-01  0.00000000000E+00 0. -1.
     999901    1    3    3    0    0  0.55433340350E-01 -0.74199053316E-01  0.58569157166E-01  0.88679687692E+00  0.88000000000E+00 0. -1.
        -11    1    4    4    0    0 -0.56406553376E-01  0.76580723004E-01 -0.57256445201E-01  0.11101742223E+00  0.51100000000E-03 0. -1.
         11    1    4    4    0    0 -0.11957971169E-01  0.18103030929E-01 -0.25979495538E-02  0.21856881438E-01  0.51100000000E-03 0.  1.
</event>
<event>
 8    1  0.1064884E+005  0.1043930E+01  0.7957747E-01            NaN
         13   -1    0    0    0    0  0.00000000000E+00  0.00000000000E+00  0.74505805969E-08  0.10566000000E+00  0.10566000000E+00 0. -1.
     999900   -1    0    0    0    0 -0.00000000000E+00 -0.00000000000E+00 -0.74505805969E-08  0.93827000000E+00  0.93827000000E+00 0.  1.
     999902    2    1    2    0    0  0.28537291069E-03  0.14517506523E-01 -0.17997360692E-01  0.10208054584E+01  0.10205435020E+01 0.  0.
     999903    2    3    3    0    0  0.84731533088E-01 -0.21042385483E-01  0.93131701364E-01  0.12909624102E+00  0.19238268118E-01 0.  0.
         14    1    1    2    0    0 -0.28537291069E-03 -0.14517506523E-01  0.17997360692E-01  0.23124541622E-01  0.00000000000E+00 0. -1.
     999901    1    3    3    0    0 -0.84446160177E-01  0.35559892006E-01 -0.11112906206E+00  0.89170921736E+00  0.88000000000E+00 0.  1.
        -11    1    4    4    0    0  0.35200866785E-01 -0.16868042678E-01  0.48784594671E-01  0.62480634475E-01  0.51100000000E-03 0. -1.
         11    1    4    4    0    0  0.49530666303E-01 -0.41743428055E-02  0.44347106693E-01  0.66615606545E-01  0.51100000000E-03 0.  1.
</event>
<event>
 8    1  0.1064884E+005  0.1043930E+01  0.7957747E-01            NaN
         13   -1    0    0    0    0  0.00000000000E+00  0.00000000000E+00  0.74505805969E-08  0.10566000000E+00  0.10566000000E+00 0. -1.
     999900   -1    0    0    0    0 -0.00000000000E+00 -0.00000000000E+00 -0.74505805969E-08  0.93827000000E+00  0.93827000000E+00 0.  1.
     999902    2    1    2    0    0 -0.83643361336E-02 -0.69514833076E-02 -0.22931915076E-01  0.10185497327E+01  0.10182334703E+01 0.  0.
     999903    2    3    3    0    0 -0.38426678849E-01  0.43338997993E-01 -0.11760705671E+00  0.13153436677E+00  0.10723407091E-01 0.  0.
         14    1    1    2    0    0  0.83643361336E-02  0.69514833076E-02  0.22931915076E-01  0.25380267300E-01  0.00000000000E+00 0. -1.
     999901    1    3    3    0    0  0.30062342716E-01 -0.50290481301E-01  0.94675141629E-01  0.88701536593E+00  0.88000000000E+00 0. -1.
        -11    1    4    4    0    0 -0.72143981312E-02  0.29207788334E-02 -0.14074001808E-01  0.16090902314E-01  0.51100000000E-03 0.  1.
         11    1    4    4    0    0 -0.31212280718E-01  0.40418219160E-01 -0.10353305490E+00  0.11544346445E+00  0.51100000000E-03 0. -1.
</event>
<event>
 8    1  0.1064884E+005  0.1043930E+01  0.7957747E-01            NaN
         13   -1    0    0    0    0  0.00000000000E+00  0.00000000000E+00  0.74505805969E-08  0.10566000000E+00  0.10566000000E+00 0. -1.
     999900   -1    0    0    0    0 -0.00000000000E+00 -0.00000000000E+00 -0.74505805969E-08  0.93827000000E+00  0.93827000000E+00 0. -1.
     999902    2    1    2    0    0  0.72024997359E-02  0.22500722043E-01  0.61168796357E-02  0.10195256006E+01  0.10192334745E+01 0.  0.
     999903    2    3    3    0    0 -0.12383618488E+00 -0.20354172736E-01  0.20597893800E-01  0.12867354852E+00  0.19568235160E-01 0.  0.
         14    1    1    2    0    0 -0.72024997359E-02 -0.22500722043E-01 -0.61168796357E-02  0.24404399427E-01  0.00000000000E+00 0.  1.
     999901    1    3    3    0    0  0.13103868461E+00  0.42854894779E-01 -0.14481014164E-01  0.89085205205E+00  0.88000000000E+00 0.  1.
        -11    1    4    4    0    0 -0.42477637228E-01 -0.15047566670E-02 -0.59459804592E-03  0.42511511675E-01  0.51100000000E-03 0. -1.
         11    1    4    4    0    0 -0.81358547651E-01 -0.18849416069E-01  0.21192491846E-01  0.86162036847E-01  0.51100000000E-03 0.  1.
</event>
<event>
 8    1  0.1078047E+005  0.1043930E+01  0.7957747E-01            NaN
         13   -1    0    0    0    0  0.00000000000E+00  0.00000000000E+00  0.74505805969E-08  0.10566000000E+00  0.10566000000E+00 0. -1.
     999900   -1    0    0    0    0 -0.00000000000E+00 -0.00000000000E+00 -0.74505805969E-08  0.93827000000E+00  0.93827000000E+00 0. -1.
     999902    2    1    2    0    0 -0.67133320068E-02 -0.20910080229E-01 -0.34294330467E-02  0.10217025104E+01  0.10214606985E+01 0.  0.
     999903    2    3    3    0    0 -0.97344233673E-01 -0.73630281447E-01  0.51985433489E-01  0.13374745110E+00  0.16987560279E-01 0.  0.
         14    1    1    2    0    0  0.67133320068E-02  0.20910080229E-01  0.34294330467E-02  0.22227489576E-01  0.00000000000E+00 0.  1.
     999901    1    3    3    0    0  0.90630901666E-01  0.52720201218E-01 -0.55414866535E-01  0.88795505933E+00  0.88000000000E+00 0. -1.
        -11    1    4    4    0    0 -0.59679932431E-01 -0.35772060770E-01  0.33571049475E-01  0.77256787084E-01  0.51100000000E-03 0.  1.
         11    1    4    4    0    0 -0.37664301242E-01 -0.37858220677E-01  0.18414384014E-01  0.56490664012E-01  0.51100000000E-03 0. -1.
</event>
<event>
 8    1  0.1064884E+005  0.1043930E+01  0.7957747E-01            NaN
         13   -1    0    0    0    0  0.00000000000E+00  0.00000000000E+00  0.74505805969E-08  0.10566000000E+00  0.10566000000E+00 0. -1.
     999900   -1    0    0    0    0 -0.00000000000E+00 -0.00000000000E+00 -0.74505805969E-08  0.93827000000E+00  0.93827000000E+00 0. -1.
     999902    2    1    2    0    0 -0.21388346168E-01 -0.95412951273E-02 -0.54821822429E-02  0.10198768924E+01  0.10195932148E+01 0.  0.
     999903    2    3    3    0    0 -0.43318583995E-01 -0.43227355061E-01  0.11343124746E+00  0.13096964764E+00  0.23265785122E-01 0.  0.
         14    1    1    2    0    0  0.21388346168E-01  0.95412951273E-02  0.54821822429E-02  0.24053107629E-01  0.00000000000E+00 0. -1.
     999901    1    3    3    0    0  0.21930237827E-01  0.33686059934E-01 -0.11891342971E+00  0.88890724473E+00  0.88000000000E+00 0. -1.
        -11    1    4    4    0    0 -0.75817540866E-02 -0.17424425682E-01  0.19624080822E-01  0.27321406890E-01  0.51100000000E-03 0.  1.
         11    1    4    4    0    0 -0.35736829908E-01 -0.25802929379E-01  0.93807166643E-01  0.10364824075E+00  0.51100000000E-03 0. -1.
</event>
<event>
 8    1  0.1064884E+005  0.1043930E+01  0.7957747E-01            NaN
         13   -1    0    0    0    0  0.00000000000E+00  0.00000000000E+00  0.74505805969E-08  0.10566000000E+00  0.10566000000E+00 0. -1.
     999900   -1    0    0    0    0 -0.00000000000E+00 -0.00000000000E+00 -0.74505805969E-08  0.93827000000E+00  0.93827000000E+00 0. -1.
     999902    2    1    2    0    0  0.15914324172E-02  0.22963258176E-01  0.36546033828E-02  0.10206233484E+01  0.10203572018E+01 0.  0.
     999903    2    3    3    0    0  0.56160193148E-01 -0.10550415447E+00  0.45591019049E-01  0.12863663957E+00  0.13555446071E-01 0.  0.
         14    1    1    2    0    0 -0.15914324172E-02 -0.22963258176E-01 -0.36546033828E-02  0.23306651606E-01  0.00000000000E+00 0. -1.
     999901    1    3    3    0    0 -0.54568760731E-01  0.12846741264E+00 -0.41936415667E-01  0.89198670882E+00  0.88000000000E+00 0.  1.
        -11    1    4    4    0    0  0.35963815208E-01 -0.74700253104E-01  0.25862300701E-01  0.86848393979E-01  0.51100000000E-03 0. -1.
         11    1    4    4    0    0  0.20196377940E-01 -0.30803901361E-01  0.19728718349E-01  0.41788245592E-01  0.51100000000E-03 0.  1.
</event>
<event>
 8    1  0.1064884E+005  0.1043930E+01  0.7957747E-01            NaN
         13   -1    0    0    0    0  0.00000000000E+00  0.00000000000E+00  0.74505805969E-08  0.10566000000E+00  0.10566000000E+00 0. -1.
     999900   -1    0    0    0    0 -0.00000000000E+00 -0.00000000000E+00 -0.74505805969E-08  0.93827000000E+00  0.93827000000E+00 0.  1.
     999902    2    1    2    0    0 -0.12928522870E-01  0.37004933281E-03  0.19694000539E-01  0.10203686482E+01  0.10200965841E+01 0.  0.
     999903    2    3    3    0    0 -0.10765817994E+00  0.36401953209E-01 -0.61840853886E-01  0.13080699297E+00  0.19255967747E-01 0.  0.
         14    1    1    2    0    0  0.12928522870E-01 -0.37004933281E-03 -0.19694000539E-01  0.23561351772E-01  0.00000000000E+00 0.  1.
     999901    1    3    3    0    0  0.94729657071E-01 -0.36031903876E-01  0.81534854424E-01  0.88956165526E+00  0.88000000000E+00 0. -1.
        -11    1    4    4    0    0 -0.88830657027E-01  0.25325192792E-01 -0.42719942133E-01  0.10177183105E+00  0.51100000000E-03 0. -1.
         11    1    4    4    0    0 -0.18827522914E-01  0.11076760418E-01 -0.19120911753E-01  0.29035161919E-01  0.51100000000E-03 0.  1.
</event>
<event>
 8    1  0.1064884E+005  0.1043930E+01  0.7957747E-01            NaN
         13   -1    0    0    0    0  0.00000000000E+00  0.00000000000E+00  0.74505805969E-08  0.10566000000E+00  0.10566000000E+00 0. -1.
     999900   -1    0    0    0    0 -0.00000000000E+00 -0.00000000000E+00 -0.74505805969E-08  0.93827000000E+00  0.93827000000E+00 0. -1.
     999902    2    1    2    0    0 -0.18436583141E-01  0.22566808376E-02 -0.16155174850E-01  0.10193131383E+01  0.10190158409E+01 0.  0.
     999903    2    3    3    0    0 -0.74669837034E-01  0.29802104873E-01 -0.10376069508E+00  0.13274917759E+00  0.19806874770E-01 0.  0.
         14    1    1    2    0    0  0.18436583141E-01 -0.22566808376E-02  0.16155174850E-01  0.24616861717E-01  0.00000000000E+00 0.  1.
     999901    1    3    3    0    0  0.56233253893E-01 -0.27545424035E-01  0.87605520235E-01  0.88656396070E+00  0.88000000000E+00 0.  1.
        -11    1    4    4    0    0 -0.60774635574E-01  0.27588436538E-01 -0.95214551821E-01  0.11627876057E+00  0.51100000000E-03 0. -1.
         11    1    4    4    0    0 -0.13895201460E-01  0.22136683351E-02 -0.85461432639E-02  0.16470417020E-01  0.51100000000E-03 0.  1.
</event>
<event>
 8    1  0.1064884E+005  0.1043930E+01  0.7957747E-01            NaN
         13   -1    0    0    0    0  0.00000000000E+00  0.00000000000E+00  0.74505805969E-08  0.10566000000E+00  0.10566000000E+00 0.  1.
     999900   -1    0    0    0    0 -0.00000000000E+00 -0.00000000000E+00 -0.74505805969E-08  0.93827000000E+00  0.93827000000E+00 0.  1.
     999902    2    1    2    0    0 -0.23515925279E-01  0.42225926162E-02  0.14500037516E-02  0.10199940116E+01  0.10197131225E+01 0.  0.
     999903    2    3    3    0    0  0.10485424738E+00  0.21967481330E-01 -0.68596771571E-01  0.12774946382E+00  0.11722841174E-01 0.  0.
         14    1    1    2    0    0  0.23515925279E-01 -0.42225926162E-02 -0.14500037516E-02  0.23935988407E-01  0.00000000000E+00 0.  1.
     999901    1    3    3    0    0 -0.12837017266E+00 -0.17744888714E-01  0.70046775323E-01  0.89224454778E+00  0.88000000000E+00 0. -1.
        -11    1    4    4    0    0  0.43141713024E-01  0.36540632166E-02 -0.24947573808E-01  0.49972013573E-01  0.51100000000E-03 0.  1.
         11    1    4    4    0    0  0.61712534359E-01  0.18313418114E-01 -0.43649197764E-01  0.77777450244E-01  0.51100000000E-03 0. -1.
</event>
<event>
 8    1  0.1064884E+005  0.1043930E+01  0.7957747E-01            NaN
         13   -1    0    0    0    0  0.00000000000E+00  0.00000000000E+00  0.74505805969E-08  0.10566000000E+00  0.10566000000E+00 0. -1.
     999900   -1    0    0    0    0 -0.00000000000E+00 -0.00000000000E+00 -0.74505805969E-08  0.93827000000E+00  0.93827000000E+00 0.  1.
     999902    2    1    2    0    0  0.17369145146E-01 -0.75846741782E-02 -0.13598114582E-01  0.10206035514E+01  0.10203369472E+01 0.  0.
     999903    2    3    3    0    0  0.29626265725E-01  0.16416059987E-01 -0.12705487912E+00  0.13291063731E+00  0.19367306359E-01 0.  0.
         14    1    1    2    0    0 -0.17369145146E-01  0.75846741782E-02  0.13598114582E-01  0.23326448630E-01  0.00000000000E+00 0. -1.
     999901    1    3    3    0    0 -0.12257120579E-01 -0.24000734166E-01  0.11345676454E+00  0.88769291406E+00  0.88000000000E+00 0. -1.
        -11    1    4    4    0    0  0.31157024381E-01  0.17277709866E-01 -0.10708540494E+00  0.11285754072E+00  0.51100000000E-03 0.  1.
         11    1    4    4    0    0 -0.15307586563E-02 -0.86164987861E-03 -0.19969474185E-01  0.20053096589E-01  0.51100000000E-03 0. -1.
</event>
<event>
 8    1  0.1064884E+005  0.1043930E+01  0.7957747E-01            NaN
         13   -1    0    0    0    0  0.00000000000E+00  0.00000000000E+00  0.74505805969E-08  0.10566000000E+00  0.10566000000E+00 0. -1.
     999900   -1    0    0    0    0 -0.00000000000E+00 -0.00000000000E+00 -0.74505805969E-08  0.93827000000E+00  0.93827000000E+00 0.  1.
     999902    2    1    2    0    0  0.16660203104E-01 -0.19770106313E-02 -0.20213644405E-01  0.10176609620E+01  0.10173218621E+01 0.  0.
     999903    2    3    3    0    0 -0.27059752949E-01  0.77529722970E-01 -0.98293036390E-01  0.12955671883E+00  0.19502159303E-01 0.  0.
         14    1    1    2    0    0 -0.16660203104E-01  0.19770106313E-02  0.20213644405E-01  0.26269038023E-01  0.00000000000E+00 0. -1.
     999901    1    3    3    0    0  0.43719956053E-01 -0.79506733602E-01  0.78079391984E-01  0.88810424315E+00  0.88000000000E+00 0.  1.
        -11    1    4    4    0    0 -0.82250694502E-02  0.23209086227E-01 -0.16761374818E-01  0.29791244649E-01  0.51100000000E-03 0.  1.
         11    1    4    4    0    0 -0.18834683498E-01  0.54320636744E-01 -0.81531661571E-01  0.99765474180E-01  0.51100000000E-03 0. -1.
</event>
<event>
 8    1  0.1064884E+005  0.1043930E+01  0.7957747E-01            NaN
         13   -1    0    0    0    0  0.00000000000E+00  0.00000000000E+00  0.74505805969E-08  0.10566000000E+00  0.10566000000E+00 0. -1.
     999900   -1    0    0    0    0 -0.00000000000E+00 -0.00000000000E+00 -0.74505805969E-08  0.93827000000E+00  0.93827000000E+00 0.  1.
     999902    2    1    2    0    0  0.15358974134E-01  0.14578501708E-01 -0.73933835692E-02  0.10215002671E+01  0.10212539854E+01 0.  0.
     999903    2    3    3    0    0  0.82634325379E-01 -0.90257997997E-01  0.43078800717E-01  0.13129573668E+00  0.20195283237E-01 0.  0.
         14    1    1    2    0    0 -0.15358974134E-01 -0.14578501708E-01  0.73933835692E-02  0.22429732925E-01  0.00000000000E+00 0.  1.
     999901    1    3    3    0    0 -0.67275351246E-01  0.10483649970E+00 -0.50472184286E-01  0.89020453040E+00  0.88000000000E+00 0.  1.
        -11    1    4    4    0    0  0.45486007890E-01 -0.48524591481E-01  0.33966401934E-01  0.74683267694E-01  0.51100000000E-03 0. -1.
         11    1    4    4    0    0  0.37148317489E-01 -0.41733406516E-01  0.91123987826E-02  0.56612468982E-01  0.51100000000E-03 0.  1.
</event>
<event>
 8    1  0.1064884E+005  0.1043930E+01  0.7957747E-01            NaN
         13   -1    0    0    0    0  0.00000000000E+00  0.00000000000E+00  0.74505805969E-08  0.10566000000E+00  0.10566000000E+00 0. -1.
     999900   -1    0    0    0    0 -0.00000000000E+00 -0.00000000000E+00 -0.74505805969E-08  0.93827000000E+00  0.93827000000E+00 0.  1.
     999902    2    1    2    0    0  0.74552456820E-02  0.14332753654E-01  0.17210758688E-01  0.10203245191E+01  0.10200514230E+01 0.  0.
     999903    2    3    3    0    0 -0.61636340630E-01  0.71948523068E-02  0.11499531186E+00  0.13218803419E+00  0.19973738957E-01 0.  0.
         14    1    1    2    0    0 -0.74552456820E-02 -0.14332753654E-01 -0.17210758688E-01  0.23605480933E-01  0.00000000000E+00 0.  1.
     999901    1    3    3    0    0  0.69091586312E-01  0.71379013468E-02 -0.97784553167E-01  0.88813648488E+00  0.88000000000E+00 0.  1.
        -11    1    4    4    0    0 -0.24721270743E-01  0.86516265834E-02  0.32107767466E-01  0.41438650103E-01  0.51100000000E-03 0. -1.
         11    1    4    4    0    0 -0.36915069887E-01 -0.14567742767E-02  0.82887544389E-01  0.90749384085E-01  0.51100000000E-03 0.  1.
</event>
<event>
 8    1  0.1064884E+005  0.1043930E+01  0.7957747E-01            NaN
         13   -1    0    0    0    0  0.00000000000E+00  0.00000000000E+00  0.74505805969E-08  0.10566000000E+00  0.10566000000E+00 0.  1.
     999900   -1    0    0    0    0 -0.00000000000E+00 -0.00000000000E+00 -0.74505805969E-08  0.93827000000E+00  0.93827000000E+00 0.  1.
     999902    2    1    2    0    0  0.12527093833E-01  0.82807257127E-02 -0.17544692266E-01  0.10208363921E+01  0.10205751441E+01 0.  0.
     999903    2    3    3    0    0 -0.11240380681E-01  0.73790824289E-01 -0.10868144125E+00  0.13338928222E+00  0.20238898927E-01 0.  0.
         14    1    1    2    0    0 -0.12527093833E-01 -0.82807257127E-02  0.17544692266E-01  0.23093607881E-01  0.00000000000E+00 0.  1.
     999901    1    3    3    0    0  0.23767474515E-01 -0.65510098576E-01  0.91136748988E-01  0.88744710990E+00  0.88000000000E+00 0. -1.
        -11    1    4    4    0    0 -0.53284245600E-02  0.12776812323E-01 -0.34365316757E-01  0.37052329997E-01  0.51100000000E-03 0. -1.
         11    1    4    4    0    0 -0.59119561215E-02  0.61014011966E-01 -0.74316124497E-01  0.96336952218E-01  0.51100000000E-03 0.  1.
</event>
<event>
 8    1  0.1064884E+005  0.1043930E+01  0.7957747E-01            NaN
         13   -1    0    0    0    0  0.00000000000E+00  0.00000000000E+00  0.74505805969E-08  0.10566000000E+00  0.10566000000E+00 0.  1.
     999900   -1    0    0    0    0 -0.00000000000E+00 -0.00000000000E+00 -0.74505805969E-08  0.93827000000E+00  0.93827000000E+00 0.  1.
     999902    2    1    2    0    0  0.19043420285E-01  0.13237007936E-01 -0.47420951567E-02  0.10202581242E+01  0.10199834716E+01 0.  0.
     999903    2    3    3    0    0 -0.77185045025E-01 -0.57116999836E-01 -0.83213427299E-01  0.12876087023E+00  0.20856758483E-01 0.  0.
         14    1    1    2    0    0 -0.19043420285E-01 -0.13237007936E-01  0.47420951567E-02  0.23671875754E-01  0.00000000000E+00 0.  1.
     999901    1    3    3    0    0  0.96228465310E-01  0.70354007772E-01  0.78471332142E-01  0.89149725401E+00  0.88000000000E+00 0. -1.
        -11    1    4    4    0    0 -0.46094685422E-01 -0.45759579595E-01 -0.51159457980E-01  0.82681378863E-01  0.51100000000E-03 0.  1.
         11    1    4    4    0    0 -0.31090359603E-01 -0.11357420241E-01 -0.32053969319E-01  0.46079491370E-01  0.51100000000E-03 0. -1.
</event>
<event>
 8    1  0.1064884E+005  0.1043930E+01  0.7957747E-01            NaN
         13   -1    0    0    0    0  0.00000000000E+00  0.00000000000E+00  0.74505805969E-08  0.10566000000E+00  0.10566000000E+00 0. -1.
     999900   -1    0    0    0    0 -0.00000000000E+00 -0.00000000000E+00 -0.74505805969E-08  0.93827000000E+00  0.93827000000E+00 0.  1.
     999902    2    1    2    0    0 -0.19292196078E-01  0.12298270274E-01 -0.69602739847E-03  0.10210406851E+01  0.10207840908E+01 0.  0.
     999903    2    3    3    0    0 -0.56227566524E-04 -0.92737808744E-01  0.88006766095E-01  0.13015865817E+00  0.24408627285E-01 0.  0.
         14    1    1    2    0    0  0.19292196078E-01 -0.12298270274E-01  0.69602739847E-03  0.22889314874E-01  0.00000000000E+00 0. -1.
     999901    1    3    3    0    0 -0.19235968511E-01  0.10503607902E+00 -0.88702793494E-01  0.89088202696E+00  0.88000000000E+00 0.  1.
        -11    1    4    4    0    0  0.12859805382E-02 -0.52090990108E-01  0.65415216238E-01  0.83633346416E-01  0.51100000000E-03 0.  1.
         11    1    4    4    0    0 -0.13422081048E-02 -0.40646818636E-01  0.22591549858E-01  0.46525311754E-01  0.51100000000E-03 0. -1.
</event>
<event>
 8    1  0.1064884E+005  0.1043930E+01  0.7957747E-01            NaN
         13   -1    0    0    0    0  0.00000000000E+00  0.00000000000E+00  0.74505805969E-08  0.10566000000E+00  0.10566000000E+00 0.  1.
     999900   -1    0    0    0    0 -0.00000000000E+00 -0.00000000000E+00 -0.74505805969E-08  0.93827000000E+00  0.93827000000E+00 0. -1.
     999902    2    1    2    0    0 -0.14037169537E-01 -0.13845311565E-01  0.13704985559E-01  0.10199183068E+01  0.10196356168E+01 0.  0.
     999903    2    3    3    0    0  0.63832881826E-01  0.90355992055E-01  0.63072491520E-01  0.12898688003E+00  0.20509362012E-01 0.  0.
         14    1    1    2    0    0  0.14037169537E-01  0.13845311565E-01 -0.13704985559E-01  0.24011693195E-01  0.00000000000E+00 0. -1.
     999901    1    3    3    0    0 -0.77870051362E-01 -0.10420130362E+00 -0.49367505962E-01  0.89093142678E+00  0.88000000000E+00 0. -1.
        -11    1    4    4    0    0  0.21988392774E-01  0.39871477082E-01  0.35988183378E-01  0.58039939398E-01  0.51100000000E-03 0. -1.
         11    1    4    4    0    0  0.41844489052E-01  0.50484514973E-01  0.27084308142E-01  0.70946940629E-01  0.51100000000E-03 0.  1.
</event>
<event>
 8    1  0.1064884E+005  0.1043930E+01  0.7957747E-01            NaN
         13   -1    0    0    0    0  0.00000000000E+00  0.00000000000E+00  0.74505805969E-08  0.10566000000E+00  0.10566000000E+00 0.  1.
     999900   -1    0    0    0    0 -0.00000000000E+00 -0.00000000000E+00 -0.74505805969E-08  0.93827000000E+00  0.93827000000E+00 0. -1.
     999902    2    1    2    0    0 -0.17335222817E-01 -0.12265806104E-01  0.90790870294E-02  0.10208347674E+01  0.10205734822E+01 0.  0.
     999903    2    3    3    0    0  0.67654155554E-01 -0.60047248027E-01  0.93128326233E-01  0.13146952448E+00  0.20702510982E-01 0.  0.
         14    1    1    2    0    0  0.17335222817E-01  0.12265806104E-01 -0.90790870294E-02  0.23095232642E-01  0.00000000000E+00 0.  1.
     999901    1    3    3    0    0 -0.84989378371E-01  0.47781441923E-01 -0.84049239203E-01  0.88936524288E+00  0.88000000000E+00 0. -1.
        -11    1    4    4    0    0  0.35238510040E-01 -0.19963112764E-01  0.32836583012E-01  0.52141929059E-01  0.51100000000E-03 0. -1.
         11    1    4    4    0    0  0.32415645514E-01 -0.40084135263E-01  0.60291743220E-01  0.79327595422E-01  0.51100000000E-03 0.  1.
</event>
<event>
 8    1  0.1064884E+005  0.1043930E+01  0.7957747E-01            NaN
         13   -1    0    0    0    0  0.00000000000E+00  0.00000000000E+00  0.74505805969E-08  0.10566000000E+00  0.10566000000E+00 0. -1.
     999900   -1    0    0    0    0 -0.00000000000E+00 -0.00000000000E+00 -0.74505805969E-08  0.93827000000E+00  0.93827000000E+00 0. -1.
     999902    2    1    2    0    0 -0.19980633026E-01 -0.14609390815E-02  0.13758797640E-01  0.10196264087E+01  0.10193367200E+01 0.  0.
     999903    2    3    3    0    0  0.83729240848E-01  0.99815831941E-04  0.96926380845E-01  0.12964044204E+00  0.20033101929E-01 0.  0.
         14    1    1    2    0    0  0.19980633026E-01  0.14609390815E-02 -0.13758797640E-01  0.24303591332E-01  0.00000000000E+00 0. -1.
     999901    1    3    3    0    0 -0.10370987387E+00 -0.15607549134E-02 -0.83167583205E-01  0.88998596663E+00  0.88000000000E+00 0. -1.
        -11    1    4    4    0    0  0.40567920219E-01 -0.88110363836E-02  0.54012237659E-01  0.68124690465E-01  0.51100000000E-03 0.  1.
         11    1    4    4    0    0  0.43161320629E-01  0.89108522155E-02  0.42914143187E-01  0.61515751577E-01  0.51100000000E-03 0. -1.
</event>
<event>
 8    1  0.1064884E+005  0.1043930E+01  0.7957747E-01            NaN
         13   -1    0    0    0    0  0.00000000000E+00  0.00000000000E+00  0.74505805969E-08  0.10566000000E+00  0.10566000000E+00 0.  1.
     999900   -1    0    0    0    0 -0.00000000000E+00 -0.00000000000E+00 -0.74505805969E-08  0.93827000000E+00  0.93827000000E+00 0.  1.
     999902    2    1    2    0    0  0.20638052472E-01 -0.11860387991E-01 -0.85859886267E-02  0.10186255100E+01  0.10183111570E+01 0.  0.
     999903    2    3    3    0    0 -0.47077340574E-01  0.64259308860E-01 -0.99042847291E-01  0.12814135743E+00  0.16284566767E-01 0.  0.
         14    1    1    2    0    0 -0.20638052472E-01  0.11860387991E-01  0.85859886267E-02  0.25304489994E-01  0.00000000000E+00 0.  1.
     999901    1    3    3    0    0  0.67715393046E-01 -0.76119696851E-01  0.90456858664E-01  0.89048415257E+00  0.88000000000E+00 0. -1.
        -11    1    4    4    0    0 -0.32275012921E-02  0.32580514648E-02 -0.13625812656E-01  0.14385949933E-01  0.51100000000E-03 0.  1.
         11    1    4    4    0    0 -0.43849839282E-01  0.61001257395E-01 -0.85417034635E-01  0.11375540750E+00  0.51100000000E-03 0. -1.
</event>
<event>
 8    1  0.1064884E+005  0.1043930E+01  0.7957747E-01            NaN
         13   -1    0    0    0    0  0.00000000000E+00  0.00000000000E+00  0.74505805969E-08  0.10566000000E+00  0.10566000000E+00 0. -1.
     999900   -1    0    0    0    0 -0.00000000000E+00 -0.00000000000E+00 -0.74505805969E-08  0.93827000000E+00  0.93827000000E+00 0.  1.
     999902    2    1    2    0    0 -0.75627513433E-02 -0.57556783244E-02  0.23089493342E-01  0.10189610644E+01  0.10186550952E+01 0.  0.
     999903    2    3    3    0    0  0.57901143677E-01  0.11221208561E+00 -0.75909248326E-02  0.12815064524E+00  0.20515144156E-01 0.  0.
         14    1    1    2    0    0  0.75627513433E-02  0.57556783244E-02 -0.23089493342E-01  0.24968935572E-01  0.00000000000E+00 0.  1.
     999901    1    3    3    0    0 -0.65463895020E-01 -0.11796776393E+00  0.30680418174E-01  0.89081041919E+00  0.88000000000E+00 0. -1.
        -11    1    4    4    0    0  0.49072681254E-01  0.90932427957E-01  0.15972985895E-02  0.10334237748E+00  0.51100000000E-03 0. -1.
         11    1    4    4    0    0  0.88284624227E-02  0.21279657649E-01 -0.91882234220E-02  0.24808267757E-01  0.51100000000E-03 0.  1.
</event>
<event>
 8    1  0.1064884E+005  0.1043930E+01  0.7957747E-01            NaN
         13   -1    0    0    0    0  0.00000000000E+00  0.00000000000E+00  0.74505805969E-08  0.10566000000E+00  0.10566000000E+00 0.  1.
     999900   -1    0    0    0    0 -0.00000000000E+00 -0.00000000000E+00 -0.74505805969E-08  0.93827000000E+00  0.93827000000E+00 0.  1.
     999902    2    1    2    0    0  0.15871173193E-01 -0.14860668304E-01  0.90713815553E-02  0.10203710619E+01  0.10200990542E+01 0.  0.
     999903    2    3    3    0    0 -0.11518663521E+00  0.23274301371E-01  0.49446509785E-01  0.12893369672E+00  0.19216836015E-01 0.  0.
         14    1    1    2    0    0 -0.15871173193E-01  0.14860668304E-01 -0.90713815553E-02  0.23558938098E-01  0.00000000000E+00 0.  1.
     999901    1    3    3    0    0  0.13105780840E+00 -0.38134969675E-01 -0.40375128230E-01  0.89143736518E+00  0.88000000000E+00 0. -1.
        -11    1    4    4    0    0 -0.35329329369E-01  0.43554937642E-02  0.24281941971E-01  0.43092988600E-01  0.51100000000E-03 0. -1.
         11    1    4    4    0    0 -0.79857305839E-01  0.18918807607E-01  0.25164567813E-01  0.85840708125E-01  0.51100000000E-03 0.  1.
</event>
<event>
 8    1  0.1064884E+005  0.1043930E+01  0.7957747E-01            NaN
         13   -1    0    0    0    0  0.00000000000E+00  0.00000000000E+00  0.74505805969E-08  0.10566000000E+00  0.10566000000E+00 0. -1.
     999900   -1    0    0    0    0 -0.00000000000E+00 -0.00000000000E+00 -0.74505805969E-08  0.93827000000E+00  0.93827000000E+00 0. -1.
     999902    2    1    2    0    0  0.63026309694E-03 -0.24589739317E-01  0.23876042569E-02  0.10192165792E+01  0.10189169163E+01 0.  0.
     999903    2    3    3    0    0 -0.17918761525E-01 -0.92134808885E-01  0.90757120591E-01  0.13202123765E+00  0.19566482293E-01 0.  0.
         14    1    1    2    0    0 -0.63026309694E-03  0.24589739317E-01 -0.23876042569E-02  0.24713420753E-01  0.00000000000E+00 0.  1.
     999901    1    3    3    0    0  0.18549024622E-01  0.67545069568E-01 -0.88369516334E-01  0.88719534160E+00  0.88000000000E+00 0. -1.
        -11    1    4    4    0    0 -0.14254817977E-01 -0.68798180156E-01  0.55303075947E-01  0.89415215475E-01  0.51100000000E-03 0. -1.
         11    1    4    4    0    0 -0.36639435479E-02 -0.23336628729E-01  0.35454044644E-01  0.42606022173E-01  0.51100000000E-03 0.  1.
</event>
<event>
 8    1  0.1064884E+005  0.1043930E+01  0.7957747E-01            NaN
         13   -1    0    0    0    0  0.00000000000E+00  0.00000000000E+00  0.74505805969E-08  0.10566000000E+00  0.10566000000E+00 0. -1.
     999900   -1    0    0    0    0 -0.00000000000E+00 -0.00000000000E+00 -0.74505805969E-08  0.93827000000E+00  0.93827000000E+00 0. -1.
     999902    2    1    2    0    0 -0.85477619060E-03  0.19876627837E-01 -0.11666476536E-01  0.10208666600E+01  0.10206061042E+01 0.  0.
     999903    2    3    3    0    0  0.11500576878E-01  0.59487635817E-01 -0.11733438816E+00  0.13357449041E+00  0.20093376016E-01 0.  0.
         14    1    1    2    0    0  0.85477619060E-03 -0.19876627837E-01  0.11666476536E-01  0.23063339985E-01  0.00000000000E+00 0.  1.
     999901    1    3    3    0    0 -0.12355353069E-01 -0.39611007980E-01  0.10566791162E+00  0.88729216961E+00  0.88000000000E+00 0.  1.
        -11    1    4    4    0    0 -0.41643303068E-02  0.29951307657E-01 -0.51121748966E-01  0.59397952958E-01  0.51100000000E-03 0.  1.
         11    1    4    4    0    0  0.15664907185E-01  0.29536328160E-01 -0.66212639190E-01  0.74176537448E-01  0.51100000000E-03 0. -1.
</event>
<event>
 8    1  0.1064884E+005  0.1043930E+01  0.7957747E-01            NaN
         13   -1    0    0    0    0  0.00000000000E+00  0.00000000000E+00  0.74505805969E-08  0.10566000000E+00  0.10566000000E+00 0.  1.
     999900   -1    0    0    0    0 -0.00000000000E+00 -0.00000000000E+00 -0.74505805969E-08  0.93827000000E+00  0.93827000000E+00 0. -1.
     999902    2    1    2    0    0  0.12550914908E-01  0.11196804206E-01  0.20410134823E-01  0.10174825522E+01  0.10171387696E+01 0.  0.
     999903    2    3    3    0    0  0.55387945981E-02 -0.11938696971E+00  0.39372580173E-01  0.12761690723E+00  0.21259072384E-01 0.  0.
         14    1    1    2    0    0 -0.12550914908E-01 -0.11196804206E-01 -0.20410134823E-01  0.26447447759E-01  0.00000000000E+00 0.  1.
     999901    1    3    3    0    0  0.70121203096E-02  0.13058377392E+00 -0.18962445350E-01  0.88986564501E+00  0.88000000000E+00 0.  1.
        -11    1    4    4    0    0 -0.18515926783E-02 -0.67487989061E-02 -0.21529742199E-02  0.73396935299E-02  0.51100000000E-03 0.  1.
         11    1    4    4    0    0  0.73903872764E-02 -0.11263817080E+00  0.41525554393E-01  0.12027721370E+00  0.51100000000E-03 0. -1.
</event>
<event>
 8    1  0.1064884E+005  0.1043930E+01  0.7957747E-01            NaN
         13   -1    0    0    0    0  0.00000000000E+00  0.00000000000E+00  0.74505805969E-08  0.10566000000E+00  0.10566000000E+00 0. -1.
     999900   -1    0    0    0    0 -0.00000000000E+00 -0.00000000000E+00 -0.74505805969E-08  0.93827000000E+00  0.93827000000E+00 0.  1.
     999902    2    1    2    0    0 -0.27981203516E-02  0.26325655421E-01  0.94164612038E-02  0.10158312571E+01  0.10154425654E+01 0.  0.
     999903    2    3    3    0    0 -0.11882641923E+00  0.21410572863E-01 -0.34594264962E-01  0.12711101530E+00  0.19552915479E-01 0.  0.
         14    1    1    2    0    0  0.27981203516E-02 -0.26325655421E-01 -0.94164612038E-02  0.28098742898E-01  0.00000000000E+00 0.  1.
     999901    1    3    3    0    0  0.11602829888E+00  0.49150825581E-02  0.44010726165E-01  0.88872024181E+00  0.88000000000E+00 0. -1.
        -11    1    4    4    0    0 -0.15964987613E-01  0.97075740873E-02 -0.35059928550E-02  0.19017647884E-01  0.51100000000E-03 0.  1.
         11    1    4    4    0    0 -0.10286143162E+00  0.11702998775E-01 -0.31088272106E-01  0.10809336741E+00  0.51100000000E-03 0. -1.
</event>
<event>
 8    1  0.1064884E+005  0.1043930E+01  0.7957747E-01            NaN
         13   -1    0    0    0    0  0.00000000000E+00  0.00000000000E+00  0.74505805969E-08  0.10566000000E+00  0.10566000000E+00 0. -1.
     999900   -1    0    0    0    0 -0.00000000000E+00 -0.00000000000E+00 -0.74505805969E-08  0.93827000000E+00  0.93827000000E+00 0. -1.
     999902    2    1    2    0    0 -0.16935669759E-01  0.13841911115E-01 -0.47988462356E-02  0.10215370471E+01  0.10212915814E+01 0.  0.
     999903    2    3    3    0    0 -0.12155962590E-01  0.83858803470E-01  0.99953648078E-01  0.13254981668E+00  0.19966366538E-01 0.  0.
         14    1    1    2    0    0  0.16935669759E-01 -0.13841911115E-01  0.47988462356E-02  0.22392952880E-01  0.00000000000E+00 0.  1.
     999901    1    3    3    0    0 -0.47797071687E-02 -0.70016892356E-01 -0.10475249431E+00  0.88898723044E+00  0.88000000000E+00 0. -1.
        -11    1    4    4    0    0 -0.16878384741E-01  0.59996591866E-01  0.65996234451E-01  0.90775740094E-01  0.51100000000E-03 0.  1.
         11    1    4    4    0    0  0.47224221505E-02  0.23862211604E-01  0.33957413627E-01  0.41774076589E-01  0.51100000000E-03 0. -1.
</event>
<event>
 8    1  0.1064884E+005  0.1043930E+01  0.7957747E-01            NaN
         13   -1    0    0    0    0  0.00000000000E+00  0.00000000000E+00  0.74505805969E-08  0.10566000000E+00  0.10566000000E+00 0.  1.
     999900   -1    0    0    0    0 -0.00000000000E+00 -0.00000000000E+00 -0.74505805969E-08  0.93827000000E+00  0.93827000000E+00 0.  1.
     999902    2    1    2    0    0  0.69572868469E-02 -0.20830919977E-01  0.13901232976E-02  0.10219240119E+01  0.10216870473E+01 0.  0.
     999903    2    3    3    0    0  0.54511599510E-01 -0.22793184696E-02  0.11984499614E+00  0.13252132954E+00  0.14912072657E-01 0.  0.
         14    1    1    2    0    0 -0.69572868469E-02  0.20830919977E-01 -0.13901232976E-02  0.22005988052E-01  0.00000000000E+00 0. -1.
     999901    1    3    3    0    0 -0.47554312663E-01 -0.18551601507E-01 -0.11845487284E+00  0.88940268241E+00  0.88000000000E+00 0. -1.
        -11    1    4    4    0    0  0.20605856459E-01  0.38641408527E-02  0.33130635957E-01  0.39210114318E-01  0.51100000000E-03 0.  1.
         11    1    4    4    0    0  0.33905743051E-01 -0.61434593223E-02  0.86714360179E-01  0.93311215224E-01  0.51100000000E-03 0. -1.
</event>
<event>
 8    1  0.1064884E+005  0.1043930E+01  0.7957747E-01            NaN
         13   -1    0    0    0    0  0.00000000000E+00  0.00000000000E+00  0.74505805969E-08  0.10566000000E+00  0.10566000000E+00 0.  1.
     999900   -1    0    0    0    0 -0.00000000000E+00 -0.00000000000E+00 -0.74505805969E-08  0.93827000000E+00  0.93827000000E+00 0.  1.
     999902    2    1    2    0    0  0.14197938888E-01  0.18789587559E-01 -0.79776470994E-04  0.10203792796E+01  0.10201074638E+01 0.  0.
     999903    2    3    3    0    0  0.39801537235E-01  0.44406699132E-01  0.11607770503E+00  0.13200754364E+00  0.19895745257E-01 0.  0.
         14    1    1    2    0    0 -0.14197938888E-01 -0.18789587559E-01  0.79776470994E-04  0.23550720448E-01  0.00000000000E+00 0. -1.
     999901    1    3    3    0    0 -0.25603598347E-01 -0.25617111572E-01 -0.11615748150E+00  0.88837173591E+00  0.88000000000E+00 0. -1.
        -11    1    4    4    0    0  0.18765045400E-01  0.21847284153E-01  0.77058151414E-01  0.82265731469E-01  0.51100000000E-03 0.  1.
         11    1    4    4    0    0  0.21036491835E-01  0.22559414979E-01  0.39019553617E-01  0.49741812174E-01  0.51100000000E-03 0. -1.
</event>
<event>
 8    1  0.1064884E+005  0.1043930E+01  0.7957747E-01            NaN
         13   -1    0    0    0    0  0.00000000000E+00  0.00000000000E+00  0.74505805969E-08  0.10566000000E+00  0.10566000000E+00 0.  1.
     999900   -1    0    0    0    0 -0.00000000000E+00 -0.00000000000E+00 -0.74505805969E-08  0.93827000000E+00  0.93827000000E+00 0. -1.
     999902    2    1    2    0    0 -0.65438307390E-02 -0.46339962678E-02 -0.21886774786E-01  0.10206206338E+01  0.10203544245E+01 0.  0.
     999903    2    3    3    0    0 -0.30005186990E-01  0.86945378309E-01  0.87784645858E-01  0.12878822937E+00  0.20504973060E-01 0.  0.
         14    1    1    2    0    0  0.65438307390E-02  0.46339962678E-02  0.21886774786E-01  0.23309366200E-01  0.00000000000E+00 0.  1.
     999901    1    3    3    0    0  0.23461356251E-01 -0.91579374577E-01 -0.10967142064E+00  0.89183240443E+00  0.88000000000E+00 0. -1.
        -11    1    4    4    0    0 -0.15330770012E-01  0.18183152576E-01  0.25234457224E-01  0.34679943759E-01  0.51100000000E-03 0.  1.
         11    1    4    4    0    0 -0.14674416978E-01  0.68762225733E-01  0.62550188635E-01  0.94108285611E-01  0.51100000000E-03 0. -1.
</event>
<event>
 8    1  0.1064884E+005  0.1043930E+01  0.7957747E-01            NaN
         13   -1    0    0    0    0  0.00000000000E+00  0.00000000000E+00  0.74505805969E-08  0.10566000000E+00  0.10566000000E+00 0.  1.
     999900   -1    0    0    0    0 -0.00000000000E+00 -0.00000000000E+00 -0.74505805969E-08  0.93827000000E+00  0.93827000000E+00 0.  1.
     999902    2    1    2    0    0 -0.21757623033E-01 -0.74940631503E-02 -0.39893372027E-02  0.10205747018E+01  0.10203074301E+01 0.  0.
     999903    2    3    3    0    0  0.44649624265E-01 -0.33007441993E-01  0.11528246752E+00  0.12968378907E+00  0.21089278187E-01 0.  0.
         14    1    1    2    0    0  0.21757623033E-01  0.74940631503E-02  0.39893372027E-02  0.23355298197E-01  0.00000000000E+00 0.  1.
     999901    1    3    3    0    0 -0.66407247298E-01  0.25513378843E-01 -0.11927180473E+00  0.89089091274E+00  0.88000000000E+00 0.  1.
        -11    1    4    4    0    0  0.25965331019E-01 -0.24963292960E-01  0.91780479973E-01  0.98596561985E-01  0.51100000000E-03 0.  1.
         11    1    4    4    0    0  0.18684293246E-01 -0.80441490330E-02  0.23501987551E-01  0.31087227081E-01  0.51100000000E-03 0. -1.
</event>
<event>
 8    1  0.1064884E+005  0.1043930E+01  0.7957747E-01            NaN
         13   -1    0    0    0    0  0.00000000000E+00  0.00000000000E+00  0.74505805969E-08  0.10566000000E+00  0.10566000000E+00 0. -1.
     999900   -1    0    0    0    0 -0.00000000000E+00 -0.00000000000E+00 -0.74505805969E-08  0.93827000000E+00  0.93827000000E+00 0.  1.
     999902    2    1    2    0    0  0.15772902065E-01  0.17021989748E-01 -0.13288141137E-03  0.10207233149E+01  0.10204594727E+01 0.  0.
     999903    2    3    3    0    0  0.66864187765E-01  0.10768910462E-01  0.11108939145E+00  0.13223031301E+00  0.23605375412E-01 0.  0.
         14    1    1    2    0    0 -0.15772902065E-01 -0.17021989748E-01  0.13288141137E-03  0.23206685071E-01  0.00000000000E+00 0.  1.
     999901    1    3    3    0    0 -0.51091285700E-01  0.62530792855E-02 -0.11122227286E+00  0.88849300192E+00  0.88000000000E+00 0.  1.
        -11    1    4    4    0    0  0.33728635990E-01  0.16278383789E-01  0.49486997191E-01  0.62063118489E-01  0.51100000000E-03 0. -1.
         11    1    4    4    0    0  0.33135551775E-01 -0.55094733269E-02  0.61602394259E-01  0.70167194523E-01  0.51100000000E-03 0.  1.
</event>
<event>
 8    1  0.1064884E+005  0.1043930E+01  0.7957747E-01            NaN
         13   -1    0    0    0    0  0.00000000000E+00  0.00000000000E+00  0.74505805969E-08  0.10566000000E+00  0.10566000000E+00 0.  1.
     999900   -1    0    0    0    0 -0.00000000000E+00 -0.00000000000E+00 -0.74505805969E-08  0.93827000000E+00  0.93827000000E+00 0. -1.
     999902    2    1    2    0    0  0.17820425387E-02  0.23737777273E-01 -0.53482215577E-02  0.10195320243E+01  0.10192400538E+01 0.  0.
     999903    2    3    3    0    0  0.27436674865E-01  0.93453239619E-01  0.86340331910E-01  0.13165523289E+00  0.19803239887E-01 0.  0.
         14    1    1    2    0    0 -0.17820425387E-02 -0.23737777273E-01  0.53482215577E-02  0.24397975721E-01  0.00000000000E+00 0.  1.
     999901    1    3    3    0    0 -0.25654632326E-01 -0.69715462346E-01 -0.91688553468E-01  0.88787679139E+00  0.88000000000E+00 0. -1.
        -11    1    4    4    0    0  0.43122491203E-02  0.13206437635E-01  0.22854137204E-01  0.26750293378E-01  0.51100000000E-03 0.  1.
         11    1    4    4    0    0  0.23124425745E-01  0.80246801984E-01  0.63486194706E-01  0.10490493951E+00  0.51100000000E-03 0. -1.
</event>
<event>
 8    1  0.1064884E+005  0.1043930E+01  0.7957747E-01            NaN
         13   -1    0    0    0    0  0.00000000000E+00  0.00000000000E+00  0.74505805969E-08  0.10566000000E+00  0.10566000000E+00 0.  1.
     999900   -1    0    0    0    0 -0.00000000000E+00 -0.00000000000E+00 -0.74505805969E-08  0.93827000000E+00  0.93827000000E+00 0.  1.
     999902    2    1    2    0    0  0.52484732865E-02 -0.22637580522E-01 -0.44381169142E-02  0.10202719484E+01  0.10199976202E+01 0.  0.
     999903    2    3    3    0    0 -0.44839463689E-01 -0.28768375156E-01  0.11722948632E+00  0.13046894000E+00  0.21004640682E-01 0.  0.
         14    1    1    2    0    0 -0.52484732865E-02  0.22637580522E-01  0.44381169142E-02  0.23658051600E-01  0.00000000000E+00 0.  1.
     999901    1    3    3    0    0  0.50087936976E-01  0.61307946332E-02 -0.12166760323E+00  0.88980300840E+00  0.88000000000E+00 0.  1.
        -11    1    4    4    0    0 -0.37447208698E-01 -0.31418452445E-01  0.94144964447E-01  0.10607991349E+00  0.51100000000E-03 0.  1.
         11    1    4    4    0    0 -0.73922549917E-02  0.26500772890E-02  0.23084521872E-01  0.24389026520E-01  0.51100000000E-03 0. -1.
</event>
<event>
 8    1  0.1064884E+005  0.1043930E+01  0.7957747E-01            NaN
         13   -1    0    0    0    0  0.00000000000E+00  0.00000000000E+00  0.74505805969E-08  0.10566000000E+00  0.10566000000E+00 0.  1.
     999900   -1    0    0    0    0 -0.00000000000E+00 -0.00000000000E+00 -0.74505805969E-08  0.93827000000E+00  0.93827000000E+00 0. -1.
     999902    2    1    2    0    0  0.22765555160E-01  0.66488584720E-02  0.16830960261E-02  0.10201537380E+01  0.10198766291E+01 0.  0.
     999903    2    3    3    0    0 -0.32849814032E-01 -0.12111309089E+00  0.22299813601E-01  0.12895160943E+00  0.19589405829E-01 0.  0.
         14    1    1    2    0    0 -0.22765555160E-01 -0.66488584720E-02 -0.16830960261E-02  0.23776261964E-01  0.00000000000E+00 0. -1.
     999901    1    3    3    0    0  0.55615369192E-01  0.12776194936E+00 -0.20616717575E-01  0.89120212861E+00  0.88000000000E+00 0. -1.
        -11    1    4    4    0    0 -0.42348000501E-02 -0.54728722576E-02  0.50459289243E-02  0.85795327333E-02  0.51100000000E-03 0. -1.
         11    1    4    4    0    0 -0.28615013982E-01 -0.11564021863E+00  0.17253884677E-01  0.12037207669E+00  0.51100000000E-03 0.  1.
</event>
<event>
 8    1  0.1064884E+005  0.1043930E+01  0.7957747E-01            NaN
         13   -1    0    0    0    0  0.00000000000E+00  0.00000000000E+00  0.74505805969E-08  0.10566000000E+00  0.10566000000E+00 0.  1.
     999900   -1    0    0    0    0 -0.00000000000E+00 -0.00000000000E+00 -0.74505805969E-08  0.93827000000E+00  0.93827000000E+00 0. -1.
     999902    2    1    2    0    0 -0.22937526949E-01  0.15170634132E-02 -0.29958386736E-02  0.10207479666E+01  0.10204846910E+01 0.  0.
     999903    2    3    3    0    0 -0.64147919950E-01  0.24557186180E-01  0.10903296392E+00  0.13239015784E+00  0.30347251030E-01 0.  0.
         14    1    1    2    0    0  0.22937526949E-01 -0.15170634132E-02  0.29958386736E-02  0.23182033416E-01  0.00000000000E+00 0. -1.
     999901    1    3    3    0    0  0.41210393001E-01 -0.23040122767E-01 -0.11202880259E+00  0.88835780875E+00  0.88000000000E+00 0. -1.
        -11    1    4    4    0    0 -0.15321318032E-01  0.25961889800E-03  0.48712615394E-01  0.51068485466E-01  0.51100000000E-03 0. -1.
         11    1    4    4    0    0 -0.48826601918E-01  0.24297567282E-01  0.60320348523E-01  0.81321672373E-01  0.51100000000E-03 0.  1.
</event>
<event>
 8    1  0.1064884E+005  0.1043930E+01  0.7957747E-01            NaN
         13   -1    0    0    0    0  0.00000000000E+00  0.00000000000E+00  0.74505805969E-08  0.10566000000E+00  0.10566000000E+00 0.  1.
     999900   -1    0    0    0    0 -0.00000000000E+00 -0.00000000000E+00 -0.74505805969E-08  0.93827000000E+00  0.93827000000E+00 0.  1.
     999902    2    1    2    0    0 -0.17830448275E-01  0.12218126930E-01 -0.93572251877E-02  0.10203765464E+01  0.10201046669E+01 0.  0.
     999903    2    3    3    0    0 -0.10674464804E+00  0.77208049196E-01 -0.77127690698E-02  0.13351008008E+00  0.20247269723E-01 0.  0.
         14    1    1    2    0    0  0.17830448275E-01 -0.12218126930E-01  0.93572251877E-02  0.23553453559E-01  0.00000000000E+00 0.  1.
     999901    1    3    3    0    0  0.88914199764E-01 -0.64989922266E-01 -0.16444561179E-02  0.88686646636E+00  0.88000000000E+00 0.  1.
        -11    1    4    4    0    0 -0.55007420321E-01  0.27384235447E-01 -0.27784750609E-02  0.61511736165E-01  0.51100000000E-03 0.  1.
         11    1    4    4    0    0 -0.51737227718E-01  0.49823813749E-01 -0.49342940089E-02  0.71998343917E-01  0.51100000000E-03 0. -1.
</event>
<event>
 8    1  0.1064884E+005  0.1043930E+01  0.7957747E-01            NaN
         13   -1    0    0    0    0  0.00000000000E+00  0.00000000000E+00  0.74505805969E-08  0.10566000000E+00  0.10566000000E+00 0.  1.
     999900   -1    0    0    0    0 -0.00000000000E+00 -0.00000000000E+00 -0.74505805969E-08  0.93827000000E+00  0.93827000000E+00 0. -1.
     999902    2    1    2    0    0  0.12678115805E-01  0.17993599337E-01  0.96271451336E-02  0.10199053010E+01  0.10196223011E+01 0.  0.
     999903    2    3    3    0    0 -0.47543603317E-01 -0.44232488719E-01  0.11105410965E+00  0.12985689188E+00  0.17688691994E-01 0.  0.
         14    1    1    2    0    0 -0.12678115805E-01 -0.17993599337E-01 -0.96271451336E-02  0.24024698976E-01  0.00000000000E+00 0.  1.
     999901    1    3    3    0    0  0.60221719123E-01  0.62226088056E-01 -0.10142696451E+00  0.89004840914E+00  0.88000000000E+00 0.  1.
        -11    1    4    4    0    0 -0.32466438476E-01 -0.22472722225E-01  0.53411720571E-01  0.66424136327E-01  0.51100000000E-03 0.  1.
         11    1    4    4    0    0 -0.15077164842E-01 -0.21759766495E-01  0.57642389077E-01  0.63432755553E-01  0.51100000000E-03 0. -1.
</event>
<event>
 8    1  0.1064884E+005  0.1043930E+01  0.7957747E-01            NaN
         13   -1    0    0    0    0  0.00000000000E+00  0.00000000000E+00  0.74505805969E-08  0.10566000000E+00  0.10566000000E+00 0. -1.
     999900   -1    0    0    0    0 -0.00000000000E+00 -0.00000000000E+00 -0.74505805969E-08  0.93827000000E+00  0.93827000000E+00 0. -1.
     999902    2    1    2    0    0  0.23605040513E-01  0.22115418996E-02 -0.32588027732E-02  0.10199986680E+01  0.10197178895E+01 0.  0.
     999903    2    3    3    0    0 -0.64960259743E-01  0.47924407129E-01  0.98076063527E-01  0.12859402724E+00  0.20023123161E-01 0.  0.
         14    1    1    2    0    0 -0.23605040513E-01 -0.22115418996E-02  0.32588027732E-02  0.23931331988E-01  0.00000000000E+00 0. -1.
     999901    1    3    3    0    0  0.88565300256E-01 -0.45712865229E-01 -0.10133486630E+00  0.89140464077E+00  0.88000000000E+00 0. -1.
        -11    1    4    4    0    0 -0.21909495610E-01  0.53939483611E-02  0.24119104957E-01  0.33031999966E-01  0.51100000000E-03 0. -1.
         11    1    4    4    0    0 -0.43050764132E-01  0.42530458768E-01  0.73956958570E-01  0.95562027277E-01  0.51100000000E-03 0.  1.
</event>
<event>
 8    1  0.1064884E+005  0.1043930E+01  0.7957747E-01            NaN
         13   -1    0    0    0    0  0.00000000000E+00  0.00000000000E+00  0.74505805969E-08  0.10566000000E+00  0.10566000000E+00 0.  1.
     999900   -1    0    0    0    0 -0.00000000000E+00 -0.00000000000E+00 -0.74505805969E-08  0.93827000000E+00  0.93827000000E+00 0. -1.
     999902    2    1    2    0    0  0.17181374095E-01  0.18004651183E-02  0.15988829950E-01  0.10203910116E+01  0.10201194698E+01 0.  0.
     999903    2    3    3    0    0  0.78116977788E-01 -0.91564665109E-01 -0.47654981922E-01  0.13107625850E+00  0.20582471312E-01 0.  0.
         14    1    1    2    0    0 -0.17181374095E-01 -0.18004651183E-02 -0.15988829950E-01  0.23538988372E-01  0.00000000000E+00 0. -1.
     999901    1    3    3    0    0 -0.60935603694E-01  0.93365130228E-01  0.63643811871E-01  0.88931475313E+00  0.88000000000E+00 0.  1.
        -11    1    4    4    0    0  0.26646878472E-01 -0.45352469876E-01 -0.25365657477E-01  0.58400174284E-01  0.51100000000E-03 0. -1.
         11    1    4    4    0    0  0.51470099316E-01 -0.46212195233E-01 -0.22289324445E-01  0.72676084217E-01  0.51100000000E-03 0.  1.
</event>
<event>
 8    1  0.1064884E+005  0.1043930E+01  0.7957747E-01            NaN
         13   -1    0    0    0    0  0.00000000000E+00  0.00000000000E+00  0.74505805969E-08  0.10566000000E+00  0.10566000000E+00 0.  1.
     999900   -1    0    0    0    0 -0.00000000000E+00 -0.00000000000E+00 -0.74505805969E-08  0.93827000000E+00  0.93827000000E+00 0. -1.
     999902    2    1    2    0    0  0.10686632773E-01  0.12849806090E-01  0.15418722947E-01  0.10211910762E+01  0.10209378803E+01 0.  0.
     999903    2    3    3    0    0 -0.11440488924E+00  0.88301106261E-02 -0.56408815374E-01  0.12943817207E+00  0.20145381647E-01 0.  0.
         14    1    1    2    0    0 -0.10686632773E-01 -0.12849806090E-01 -0.15418722947E-01  0.22738923763E-01  0.00000000000E+00 0. -1.
     999901    1    3    3    0    0  0.12509152201E+00  0.40196954641E-02  0.71827538321E-01  0.89175290417E+00  0.88000000000E+00 0.  1.
        -11    1    4    4    0    0 -0.45683891477E-01 -0.63350333141E-02 -0.22297028245E-01  0.51230549256E-01  0.51100000000E-03 0.  1.
         11    1    4    4    0    0 -0.68720997761E-01  0.15165143940E-01 -0.34111787129E-01  0.78207622813E-01  0.51100000000E-03 0. -1.
</event>
<event>
 7    1  0.1064884E+005  0.1043930E+01  0.7957747E-01            NaN
         13   -1    0    0    0    0  0.00000000000E+00  0.00000000000E+00  0.74505805969E-08  0.10566000000E+00  0.10566000000E+00 0. -1.
     999900   -1    0    0    0    0 -0.00000000000E+00 -0.00000000000E+00 -0.74505805969E-08  0.93827000000E+00  0.93827000000E+00 0.  1.
     999903    2    1    2    0    0 -0.57103484215E-01  0.32281958333E-01 -0.70821743191E-01  0.98536940438E-01  0.19770598851E-01 0.  0.
         14    1    1    2    0    0 -0.51974376935E-01 -0.12414057188E-02 -0.14634598046E-01  0.54009706590E-01  0.00000000000E+00 0.  1.
     999901    1    1    2    0    0  0.10907786115E+00 -0.31040552614E-01  0.85456341237E-01  0.89138335297E+00  0.88000000000E+00 0. -1.
        -11    1    3    3    0    0 -0.48441095532E-01  0.25545472733E-01 -0.46481240745E-01  0.71832289228E-01  0.51100000000E-03 0. -1.
         11    1    3    3    0    0 -0.86623886828E-02  0.67364855998E-02 -0.24340502446E-01  0.26704651210E-01  0.51100000000E-03 0.  1.
</event>
<event>
 8    1  0.1064884E+005  0.1043930E+01  0.7957747E-01            NaN
         13   -1    0    0    0    0  0.00000000000E+00  0.00000000000E+00  0.74505805969E-08  0.10566000000E+00  0.10566000000E+00 0.  1.
     999900   -1    0    0    0    0 -0.00000000000E+00 -0.00000000000E+00 -0.74505805969E-08  0.93827000000E+00  0.93827000000E+00 0.  1.
     999902    2    1    2    0    0 -0.94423784363E-02  0.13183363376E-01 -0.17391739677E-01  0.10201511819E+01  0.10198740127E+01 0.  0.
     999903    2    3    3    0    0 -0.11630137955E+00  0.59234873425E-01  0.58359553405E-02  0.13218771785E+00  0.20118480571E-01 0.  0.
         14    1    1    2    0    0  0.94423784363E-02 -0.13183363376E-01  0.17391739677E-01  0.23778818083E-01  0.00000000000E+00 0.  1.
     999901    1    3    3    0    0  0.10685900112E+00 -0.46051510049E-01 -0.23227695017E-01  0.88796346406E+00  0.88000000000E+00 0.  1.
        -11    1    4    4    0    0 -0.73350209998E-01  0.33629364040E-01 -0.56070640130E-02  0.80888118536E-01  0.51100000000E-03 0.  1.
         11    1    4    4    0    0 -0.42951169557E-01  0.25605509385E-01  0.11443019353E-01  0.51299599317E-01  0.51100000000E-03 0. -1.
</event>
<event>
 8    1  0.1064884E+005  0.1043930E+01  0.7957747E-01            NaN
         13   -1    0    0    0    0  0.00000000000E+00  0.00000000000E+00  0.74505805969E-08  0.10566000000E+00  0.10566000000E+00 0. -1.
     999900   -1    0    0    0    0 -0.00000000000E+00 -0.00000000000E+00 -0.74505805969E-08  0.93827000000E+00  0.93827000000E+00 0. -1.
     999902    2    1    2    0    0 -0.20411546824E-01  0.14908497745E-02 -0.11845982659E-01  0.10202829879E+01  0.10200089187E+01 0.  0.
     999903    2    3    3    0    0  0.45321814366E-01 -0.28987135003E-01 -0.11766907166E+00  0.13098646338E+00  0.20423572400E-01 0.  0.
         14    1    1    2    0    0  0.20411546824E-01 -0.14908497745E-02  0.11845982659E-01  0.23647012115E-01  0.00000000000E+00 0. -1.
     999901    1    3    3    0    0 -0.65733361190E-01  0.30477984777E-01  0.10582308900E+00  0.88929652450E+00  0.88000000000E+00 0.  1.
        -11    1    4    4    0    0  0.20814188876E-01 -0.30593823102E-02 -0.33427547471E-01  0.39500029489E-01  0.51100000000E-03 0. -1.
         11    1    4    4    0    0  0.24507625489E-01 -0.25927752693E-01 -0.84241524193E-01  0.91486433892E-01  0.51100000000E-03 0.  1.
</event>
<event>
 8    1  0.1064884E+005  0.1043930E+01  0.7957747E-01            NaN
         13   -1    0    0    0    0  0.00000000000E+00  0.00000000000E+00  0.74505805969E-08  0.10566000000E+00  0.10566000000E+00 0.  1.
     999900   -1    0    0    0    0 -0.00000000000E+00 -0.00000000000E+00 -0.74505805969E-08  0.93827000000E+00  0.93827000000E+00 0.  1.
     999902    2    1    2    0    0  0.13972858183E-01 -0.82179765095E-02 -0.16696334743E-01  0.10206589128E+01  0.10203935872E+01 0.  0.
     999903    2    3    3    0    0  0.94125190122E-01  0.89737092350E-01 -0.45950021694E-02  0.13152110908E+00  0.19089026408E-01 0.  0.
         14    1    1    2    0    0 -0.13972858183E-01  0.82179765095E-02  0.16696334743E-01  0.23271087159E-01  0.00000000000E+00 0.  1.
     999901    1    3    3    0    0 -0.80152331939E-01 -0.97955068860E-01 -0.12101332574E-01  0.88913780376E+00  0.88000000000E+00 0.  1.
        -11    1    4    4    0    0  0.65994741406E-01  0.51371948757E-01 -0.66734612730E-02  0.83899816559E-01  0.51100000000E-03 0.  1.
         11    1    4    4    0    0  0.28130448716E-01  0.38365143593E-01  0.20784591036E-02  0.47621292518E-01  0.51100000000E-03 0. -1.
</event>
<event>
 8    1  0.1064884E+005  0.1043930E+01  0.7957747E-01            NaN
         13   -1    0    0    0    0  0.00000000000E+00  0.00000000000E+00  0.74505805969E-08  0.10566000000E+00  0.10566000000E+00 0. -1.
     999900   -1    0    0    0    0 -0.00000000000E+00 -0.00000000000E+00 -0.74505805969E-08  0.93827000000E+00  0.93827000000E+00 0.  1.
     999902    2    1    2    0    0  0.25480901585E-01  0.45747438192E-02  0.27975654147E-02  0.10178909716E+01  0.10175578603E+01 0.  0.
     999903    2    3    3    0    0 -0.21950108758E-01  0.65340027134E-01 -0.10580599919E+00  0.12787026701E+00  0.20118879183E-01 0.  0.
         14    1    1    2    0    0 -0.25480901585E-01 -0.45747438192E-02 -0.27975654147E-02  0.26039028377E-01  0.00000000000E+00 0. -1.
     999901    1    3    3    0    0  0.47431010343E-01 -0.60765283315E-01  0.10860356460E+00  0.89002070462E+00  0.88000000000E+00 0. -1.
        -11    1    4    4    0    0 -0.36571057092E-02  0.19873843645E-01 -0.48006493608E-01  0.52088661270E-01  0.51100000000E-03 0.  1.
         11    1    4    4    0    0 -0.18293003049E-01  0.45466183489E-01 -0.57799505583E-01  0.75781605738E-01  0.51100000000E-03 0. -1.
</event>
<event>
 8    1  0.1064884E+005  0.1043930E+01  0.7957747E-01            NaN
         13   -1    0    0    0    0  0.00000000000E+00  0.00000000000E+00  0.74505805969E-08  0.10566000000E+00  0.10566000000E+00 0.  1.
     999900   -1    0    0    0    0 -0.00000000000E+00 -0.00000000000E+00 -0.74505805969E-08  0.93827000000E+00  0.93827000000E+00 0.  1.
     999902    2    1    2    0    0  0.21429498924E-01 -0.10994923484E-01  0.46776879009E-02  0.10193944639E+01  0.10190991515E+01 0.  0.
     999903    2    3    3    0    0 -0.50830184116E-01 -0.11785127442E+00 -0.65232819569E-03  0.12997434351E+00  0.20500583848E-01 0.  0.
         14    1    1    2    0    0 -0.21429498924E-01  0.10994923484E-01 -0.46776879009E-02  0.24535536078E-01  0.00000000000E+00 0. -1.
     999901    1    3    3    0    0  0.72259683040E-01  0.10685635094E+00  0.53300160966E-02  0.88942012042E+00  0.88000000000E+00 0.  1.
        -11    1    4    4    0    0 -0.25365441524E-01 -0.47622551102E-01  0.88075795594E-02  0.54673097368E-01  0.51100000000E-03 0.  1.
         11    1    4    4    0    0 -0.25464742592E-01 -0.70228723319E-01 -0.94599077550E-02  0.75301246138E-01  0.51100000000E-03 0. -1.
</event>
<event>
 8    1  0.1064884E+005  0.1043930E+01  0.7957747E-01            NaN
         13   -1    0    0    0    0  0.00000000000E+00  0.00000000000E+00  0.74505805969E-08  0.10566000000E+00  0.10566000000E+00 0. -1.
     999900   -1    0    0    0    0 -0.00000000000E+00 -0.00000000000E+00 -0.74505805969E-08  0.93827000000E+00  0.93827000000E+00 0. -1.
     999902    2    1    2    0    0 -0.10032258363E-01  0.12481563381E-02  0.22035137130E-01  0.10196864159E+01  0.10193981731E+01 0.  0.
     999903    2    3    3    0    0 -0.10205626650E+00 -0.42133462293E-01  0.70532252296E-01  0.13249852537E+00  0.19757288155E-01 0.  0.
         14    1    1    2    0    0  0.10032258363E-01 -0.12481563381E-02 -0.22035137130E-01  0.24243584108E-01  0.00000000000E+00 0. -1.
     999901    1    3    3    0    0  0.92024008134E-01  0.43381618631E-01 -0.48497115167E-01  0.88718789052E+00  0.88000000000E+00 0. -1.
        -11    1    4    4    0    0 -0.13259121749E-01  0.11528684763E-02  0.70140688136E-02  0.15052963084E-01  0.51100000000E-03 0.  1.
         11    1    4    4    0    0 -0.88797144748E-01 -0.43286330769E-01  0.63518183482E-01  0.11744556229E+00  0.51100000000E-03 0. -1.
</event>
<event>
 8    1  0.1064884E+005  0.1043930E+01  0.7957747E-01            NaN
         13   -1    0    0    0    0  0.00000000000E+00  0.00000000000E+00  0.74505805969E-08  0.10566000000E+00  0.10566000000E+00 0. -1.
     999900   -1    0    0    0    0 -0.00000000000E+00 -0.00000000000E+00 -0.74505805969E-08  0.93827000000E+00  0.93827000000E+00 0.  1.
     999902    2    1    2    0    0 -0.29596194289E-02  0.88102909826E-02 -0.23529317877E-01  0.10186315934E+01  0.10183173934E+01 0.  0.
     999903    2    3    3    0    0 -0.73372227984E-01  0.35929833168E-01 -0.10169704625E+00  0.13195036619E+00  0.19853794883E-01 0.  0.
         14    1    1    2    0    0  0.29596194289E-02 -0.88102909826E-02  0.23529317877E-01  0.25298406553E-01  0.00000000000E+00 0. -1.
     999901    1    3    3    0    0  0.70412608555E-01 -0.27119542185E-01  0.78167728371E-01  0.88668122726E+00  0.88000000000E+00 0. -1.
        -11    1    4    4    0    0 -0.21305764952E-01  0.16747882095E-02 -0.31599003624E-01  0.38150998502E-01  0.51100000000E-03 0.  1.
         11    1    4    4    0    0 -0.52066463032E-01  0.34255044958E-01 -0.70098042625E-01  0.93799367687E-01  0.51100000000E-03 0. -1.
</event>
<event>
 8    1  0.1064884E+005  0.1043930E+01  0.7957747E-01            NaN
         13   -1    0    0    0    0  0.00000000000E+00  0.00000000000E+00  0.74505805969E-08  0.10566000000E+00  0.10566000000E+00 0. -1.
     999900   -1    0    0    0    0 -0.00000000000E+00 -0.00000000000E+00 -0.74505805969E-08  0.93827000000E+00  0.93827000000E+00 0.  1.
     999902    2    1    2    0    0 -0.17487201768E-01  0.14433128831E-01 -0.74890934170E-02  0.10200510563E+01  0.10197715202E+01 0.  0.
     999903    2    3    3    0    0  0.36557228614E-01  0.10423493229E+00 -0.68779918129E-01  0.13171456059E+00  0.20413139411E-01 0.  0.
         14    1    1    2    0    0  0.17487201768E-01 -0.14433128831E-01  0.74890934170E-02  0.23878943731E-01  0.00000000000E+00 0.  1.
     999901    1    3    3    0    0 -0.54044430382E-01 -0.89801803458E-01  0.61290824712E-01  0.88833649568E+00  0.88000000000E+00 0.  1.
        -11    1    4    4    0    0  0.23169100577E-01  0.36172737045E-01 -0.25917320712E-01  0.50172131316E-01  0.51100000000E-03 0.  1.
         11    1    4    4    0    0  0.13388128037E-01  0.68062195244E-01 -0.42862597417E-01  0.81542429275E-01  0.51100000000E-03 0. -1.
</event>
<event>
 8    1  0.1064884E+005  0.1043930E+01  0.7957747E-01            NaN
         13   -1    0    0    0    0  0.00000000000E+00  0.00000000000E+00  0.74505805969E-08  0.10566000000E+00  0.10566000000E+00 0. -1.
     999900   -1    0    0    0    0 -0.00000000000E+00 -0.00000000000E+00 -0.74505805969E-08  0.93827000000E+00  0.93827000000E+00 0.  1.
     999902    2    1    2    0    0 -0.14167367085E-01 -0.14348023387E-01 -0.11252211360E-01  0.10208390423E+01  0.10205778550E+01 0.  0.
     999903    2    3    3    0    0 -0.48814090396E-01  0.11833655660E+00  0.96746303259E-02  0.12997231499E+00  0.20318664868E-01 0.  0.
         14    1    1    2    0    0  0.14167367085E-01  0.14348023387E-01  0.11252211360E-01  0.23090957661E-01  0.00000000000E+00 0.  1.
     999901    1    3    3    0    0  0.34646723311E-01 -0.13268457999E+00 -0.20926841686E-01  0.89086672735E+00  0.88000000000E+00 0.  1.
        -11    1    4    4    0    0 -0.27242810715E-01  0.89122373028E-01  0.92339005123E-02  0.93650916436E-01  0.51100000000E-03 0.  1.
         11    1    4    4    0    0 -0.21571279682E-01  0.29214183571E-01  0.44072981358E-03  0.36321398549E-01  0.51100000000E-03 0. -1.
</event>
<event>
 8    1  0.1064884E+005  0.1043930E+01  0.7957747E-01            NaN
         13   -1    0    0    0    0  0.00000000000E+00  0.00000000000E+00  0.74505805969E-08  0.10566000000E+00  0.10566000000E+00 0. -1.
     999900   -1    0    0    0    0 -0.00000000000E+00 -0.00000000000E+00 -0.74505805969E-08  0.93827000000E+00  0.93827000000E+00 0. -1.
     999902    2    1    2    0    0 -0.23387234149E-02 -0.10744712856E-01 -0.15634817988E-01  0.10248154502E+01  0.10246371752E+01 0.  0.
     999903    2    3    3    0    0 -0.23737420125E-01  0.14589814758E-01  0.12810140829E+00  0.13253755330E+00  0.19491136930E-01 0.  0.
         14    1    1    2    0    0  0.23387234149E-02  0.10744712856E-01  0.15634817988E-01  0.19114549826E-01  0.00000000000E+00 0. -1.
     999901    1    3    3    0    0  0.21398696710E-01 -0.25334527614E-01 -0.14373622628E+00  0.89227789688E+00  0.88000000000E+00 0. -1.
        -11    1    4    4    0    0 -0.10900838884E-02  0.59543141506E-03  0.50072350012E-01  0.50090360133E-01  0.51100000000E-03 0.  1.
         11    1    4    4    0    0 -0.22647336236E-01  0.13994383343E-01  0.78029058279E-01  0.82447193164E-01  0.51100000000E-03 0. -1.
</event>
<event>
 8    1  0.1064884E+005  0.1043930E+01  0.7957747E-01            NaN
         13   -1    0    0    0    0  0.00000000000E+00  0.00000000000E+00  0.74505805969E-08  0.10566000000E+00  0.10566000000E+00 0. -1.
     999900   -1    0    0    0    0 -0.00000000000E+00 -0.00000000000E+00 -0.74505805969E-08  0.93827000000E+00  0.93827000000E+00 0.  1.
     999902    2    1    2    0    0  0.17987403913E-01 -0.15499656165E-01  0.12968742499E-02  0.10201504305E+01  0.10198732436E+01 0.  0.
     999903    2    3    3    0    0 -0.62875171620E-01 -0.18836544211E-01 -0.10995806826E+00  0.12946106091E+00  0.19007548806E-01 0.  0.
         14    1    1    2    0    0 -0.17987403913E-01  0.15499656165E-01 -0.12968742499E-02  0.23779569457E-01  0.00000000000E+00 0.  1.
     999901    1    3    3    0    0  0.80862575533E-01  0.33368880464E-02  0.11125494251E+00  0.89068936963E+00  0.88000000000E+00 0. -1.
        -11    1    4    4    0    0 -0.10321881313E-01 -0.69155783838E-03 -0.32522952270E-01  0.34132433716E-01  0.51100000000E-03 0. -1.
         11    1    4    4    0    0 -0.52553290307E-01 -0.18144986373E-01 -0.77435115994E-01  0.95328627193E-01  0.51100000000E-03 0.  1.
</event>
<event>
 8    1  0.1064884E+005  0.1043930E+01  0.7957747E-01            NaN
         13   -1    0    0    0    0  0.00000000000E+00  0.00000000000E+00  0.74505805969E-08  0.10566000000E+00  0.10566000000E+00 0.  1.
     999900   -1    0    0    0    0 -0.00000000000E+00 -0.00000000000E+00 -0.74505805969E-08  0.93827000000E+00  0.93827000000E+00 0. -1.
     999902    2    1    2    0    0 -0.13985482128E-01  0.11356251942E-01 -0.15033297395E-01  0.10204660234E+01  0.10201962295E+01 0.  0.
     999903    2    3    3    0    0 -0.78772944212E-01  0.15732866408E-02 -0.10568963619E+00  0.13338559105E+00  0.20341207706E-01 0.  0.
         14    1    1    2    0    0  0.13985482128E-01 -0.11356251942E-01  0.15033297395E-01  0.23463976625E-01  0.00000000000E+00 0.  1.
     999901    1    3    3    0    0  0.64787462084E-01  0.97829653011E-02  0.90656338793E-01  0.88708043233E+00  0.88000000000E+00 0.  1.
        -11    1    4    4    0    0 -0.26506200322E-01 -0.95639307769E-03 -0.21007251015E-01  0.33838721303E-01  0.51100000000E-03 0.  1.
         11    1    4    4    0    0 -0.52266743890E-01  0.25296797185E-02 -0.84682385173E-01  0.99546869745E-01  0.51100000000E-03 0. -1.
</event>
<event>
 8    1  0.1064884E+005  0.1043930E+01  0.7957747E-01            NaN
         13   -1    0    0    0    0  0.00000000000E+00  0.00000000000E+00  0.74505805969E-08  0.10566000000E+00  0.10566000000E+00 0. -1.
     999900   -1    0    0    0    0 -0.00000000000E+00 -0.00000000000E+00 -0.74505805969E-08  0.93827000000E+00  0.93827000000E+00 0. -1.
     999902    2    1    2    0    0  0.71177944228E-02 -0.11556684040E-01 -0.17833766262E-01  0.10215187715E+01  0.10212729005E+01 0.  0.
     999903    2    3    3    0    0 -0.27186334829E-03 -0.20478795670E-01 -0.13099575656E+00  0.13419704453E+00  0.20724467214E-01 0.  0.
         14    1    1    2    0    0 -0.71177944228E-02  0.11556684040E-01  0.17833766262E-01  0.22411228492E-01  0.00000000000E+00 0. -1.
     999901    1    3    3    0    0  0.73896577711E-02  0.89221116298E-02  0.11316199030E+00  0.88732172698E+00  0.88000000000E+00 0.  1.
        -11    1    4    4    0    0  0.52015011978E-02  0.65744885799E-03 -0.10602752327E-01  0.11839228506E-01  0.51100000000E-03 0. -1.
         11    1    4    4    0    0 -0.54733645461E-02 -0.21136244528E-01 -0.12039300424E+00  0.12235781602E+00  0.51100000000E-03 0.  1.
</event>
<event>
 8    1  0.1064884E+005  0.1043930E+01  0.7957747E-01            NaN
         13   -1    0    0    0    0  0.00000000000E+00  0.00000000000E+00  0.74505805969E-08  0.10566000000E+00  0.10566000000E+00 0.  1.
     999900   -1    0    0    0    0 -0.00000000000E+00 -0.00000000000E+00 -0.74505805969E-08  0.93827000000E+00  0.93827000000E+00 0. -1.
     999902    2    1    2    0    0  0.94687352873E-02 -0.43860937572E-02 -0.18497117197E-01  0.10226923421E+01  0.10224718033E+01 0.  0.
     999903    2    3    3    0    0  0.68454161327E-01 -0.69912196813E-01 -0.91170962887E-01  0.13530604604E+00  0.20540062226E-01 0.  0.
         14    1    1    2    0    0 -0.94687352873E-02  0.43860937572E-02  0.18497117197E-01  0.21237657850E-01  0.00000000000E+00 0.  1.
     999901    1    3    3    0    0 -0.58985426040E-01  0.65526103056E-01  0.72673845691E-01  0.88738629610E+00  0.88000000000E+00 0.  1.
        -11    1    4    4    0    0  0.32813152517E-01 -0.47691489744E-01 -0.55539299154E-01  0.80225033772E-01  0.51100000000E-03 0.  1.
         11    1    4    4    0    0  0.35641008810E-01 -0.22220707069E-01 -0.35631663733E-01  0.55081012273E-01  0.51100000000E-03 0. -1.
</event>
<event>
 8    1  0.1064884E+005  0.1043930E+01  0.7957747E-01            NaN
         13   -1    0    0    0    0  0.00000000000E+00  0.00000000000E+00  0.74505805969E-08  0.10566000000E+00  0.10566000000E+00 0.  1.
     999900   -1    0    0    0    0 -0.00000000000E+00 -0.00000000000E+00 -0.74505805969E-08  0.93827000000E+00  0.93827000000E+00 0.  1.
     999902    2    1    2    0    0  0.22509349214E-01  0.39390878418E-02 -0.65166157267E-02  0.10201675612E+01  0.10198907782E+01 0.  0.
     999903    2    3    3    0    0  0.53166821391E-01 -0.88750587902E-01  0.77495317568E-01  0.13079179053E+00  0.19939670918E-01 0.  0.
         14    1    1    2    0    0 -0.22509349214E-01 -0.39390878418E-02  0.65166157267E-02  0.23762438756E-01  0.00000000000E+00 0.  1.
     999901    1    3    3    0    0 -0.30657472177E-01  0.92689675744E-01 -0.84011933295E-01  0.88937577071E+00  0.88000000000E+00 0.  1.
        -11    1    4    4    0    0  0.24303741210E-01 -0.55866151077E-01  0.52327276778E-01  0.80312537558E-01  0.51100000000E-03 0.  1.
         11    1    4    4    0    0  0.28863080181E-01 -0.32884436825E-01  0.25168040790E-01  0.50479252976E-01  0.51100000000E-03 0. -1.
</event>
<event>
 8    1  0.1064884E+005  0.1043930E+01  0.7957747E-01            NaN
         13   -1    0    0    0    0  0.00000000000E+00  0.00000000000E+00  0.74505805969E-08  0.10566000000E+00  0.10566000000E+00 0. -1.
     999900   -1    0    0    0    0 -0.00000000000E+00 -0.00000000000E+00 -0.74505805969E-08  0.93827000000E+00  0.93827000000E+00 0. -1.
     999902    2    1    2    0    0  0.16321030373E-01  0.14860299767E-01 -0.24262780388E-02  0.10217243393E+01  0.10214830073E+01 0.  0.
     999903    2    3    3    0    0 -0.12396472280E+00  0.30579527908E-01  0.15821758413E-01  0.13028719766E+00  0.20544240301E-01 0.  0.
         14    1    1    2    0    0 -0.16321030373E-01 -0.14860299767E-01  0.24262780388E-02  0.22205660691E-01  0.00000000000E+00 0.  1.
     999901    1    3    3    0    0  0.14028575317E+00 -0.15719228141E-01 -0.18248036452E-01  0.89143714165E+00  0.88000000000E+00 0. -1.
        -11    1    4    4    0    0 -0.11620395308E+00  0.23043228343E-01  0.15208226186E-01  0.11943994453E+00  0.51100000000E-03 0.  1.
         11    1    4    4    0    0 -0.77607697163E-02  0.75362995645E-02  0.61353222687E-03  0.10847253132E-01  0.51100000000E-03 0. -1.
</event>
<event>
 8    1  0.1064884E+005  0.1043930E+01  0.7957747E-01            NaN
         13   -1    0    0    0    0  0.00000000000E+00  0.00000000000E+00  0.74505805969E-08  0.10566000000E+00  0.10566000000E+00 0.  1.
     999900   -1    0    0    0    0 -0.00000000000E+00 -0.00000000000E+00 -0.74505805969E-08  0.93827000000E+00  0.93827000000E+00 0.  1.
     999902    2    1    2    0    0 -0.15345980999E-01  0.18164640586E-01  0.51011022461E-02  0.10196097503E+01  0.10193196596E+01 0.  0.
     999903    2    3    3    0    0 -0.15453409545E-01 -0.12473484340E+00 -0.13428632249E-01  0.12789027362E+00  0.19442348029E-01 0.  0.
         14    1    1    2    0    0  0.15345980999E-01 -0.18164640586E-01 -0.51011022461E-02  0.24320249681E-01  0.00000000000E+00 0. -1.
     999901    1    3    3    0    0  0.10742854581E-03  0.14289948399E+00  0.18529734495E-01  0.89171947670E+00  0.88000000000E+00 0. -1.
        -11    1    4    4    0    0 -0.18857519584E-01 -0.97998746769E-01 -0.14846735219E-01  0.10089621936E+00  0.51100000000E-03 0.  1.
         11    1    4    4    0    0  0.34041100391E-02 -0.26736096634E-01  0.14181029702E-02  0.26994054261E-01  0.51100000000E-03 0. -1.
</event>
<event>
 8    1  0.1064884E+005  0.1043930E+01  0.7957747E-01            NaN
         13   -1    0    0    0    0  0.00000000000E+00  0.00000000000E+00  0.74505805969E-08  0.10566000000E+00  0.10566000000E+00 0.  1.
     999900   -1    0    0    0    0 -0.00000000000E+00 -0.00000000000E+00 -0.74505805969E-08  0.93827000000E+00  0.93827000000E+00 0.  1.
     999902    2    1    2    0    0  0.11697520353E-01 -0.46809708956E-02 -0.20386657709E-01  0.10199642060E+01  0.10196826085E+01 0.  0.
     999903    2    3    3    0    0 -0.79280108930E-01 -0.93795513871E-01  0.34645321840E-01  0.12909561321E+00  0.19556199257E-01 0.  0.
         14    1    1    2    0    0 -0.11697520353E-01  0.46809708956E-02  0.20386657709E-01  0.23965794030E-01  0.00000000000E+00 0.  1.
     999901    1    3    3    0    0  0.90977629283E-01  0.89114542976E-01 -0.55031979550E-01  0.89086859276E+00  0.88000000000E+00 0.  1.
        -11    1    4    4    0    0 -0.39599618789E-01 -0.32519054317E-01  0.11593066220E-01  0.52538357486E-01  0.51100000000E-03 0. -1.
         11    1    4    4    0    0 -0.39680490142E-01 -0.61276459554E-01  0.23052255620E-01  0.76557255721E-01  0.51100000000E-03 0.  1.
</event>
<event>
 8    1  0.1064884E+005  0.1043930E+01  0.7957747E-01            NaN
         13   -1    0    0    0    0  0.00000000000E+00  0.00000000000E+00  0.74505805969E-08  0.10566000000E+00  0.10566000000E+00 0. -1.
     999900   -1    0    0    0    0 -0.00000000000E+00 -0.00000000000E+00 -0.74505805969E-08  0.93827000000E+00  0.93827000000E+00 0. -1.
     999902    2    1    2    0    0  0.21301039598E-01 -0.23797052671E-02 -0.11772551848E-01  0.10194761606E+01  0.10191828353E+01 0.  0.
     999903    2    3    3    0    0  0.11671299433E+00  0.56874218255E-01  0.12484193362E-01  0.13200624096E+00  0.20327144931E-01 0.  0.
         14    1    1    2    0    0 -0.21301039598E-01  0.23797052671E-02  0.11772551848E-01  0.24453839415E-01  0.00000000000E+00 0. -1.
     999901    1    3    3    0    0 -0.95411954728E-01 -0.59253923523E-01 -0.24256745210E-01  0.88746991963E+00  0.88000000000E+00 0. -1.
        -11    1    4    4    0    0  0.46910324742E-01  0.22264441719E-01  0.15002695107E-01  0.54052066695E-01  0.51100000000E-03 0. -1.
         11    1    4    4    0    0  0.69802669583E-01  0.34609776537E-01 -0.25185017449E-02  0.77954174262E-01  0.51100000000E-03 0.  1.
</event>
<event>
 8    1  0.1064884E+005  0.1043930E+01  0.7957747E-01            NaN
         13   -1    0    0    0    0  0.00000000000E+00  0.00000000000E+00  0.74505805969E-08  0.10566000000E+00  0.10566000000E+00 0. -1.
     999900   -1    0    0    0    0 -0.00000000000E+00 -0.00000000000E+00 -0.74505805969E-08  0.93827000000E+00  0.93827000000E+00 0. -1.
     999902    2    1    2    0    0  0.22609968350E-01 -0.11029768423E-01  0.14974650816E-03  0.10187727171E+01  0.10184620563E+01 0.  0.
     999903    2    3    3    0    0 -0.68023551846E-01  0.41648333674E-01 -0.97064508580E-01  0.12723470397E+00  0.20133647553E-01 0.  0.
         14    1    1    2    0    0 -0.22609968350E-01  0.11029768423E-01 -0.14974650816E-03  0.25157282926E-01  0.00000000000E+00 0. -1.
     999901    1    3    3    0    0  0.90633520195E-01 -0.52678102097E-01  0.97214255088E-01  0.89153801311E+00  0.88000000000E+00 0.  1.
        -11    1    4    4    0    0 -0.23540356773E-01  0.67689383977E-02 -0.19809180407E-01  0.31506057726E-01  0.51100000000E-03 0. -1.
         11    1    4    4    0    0 -0.44483195073E-01  0.34879395277E-01 -0.77255328174E-01  0.95728646240E-01  0.51100000000E-03 0.  1.
</event>
<event>
 8    1  0.1064884E+005  0.1043930E+01  0.7957747E-01            NaN
         13   -1    0    0    0    0  0.00000000000E+00  0.00000000000E+00  0.74505805969E-08  0.10566000000E+00  0.10566000000E+00 0.  1.
     999900   -1    0    0    0    0 -0.00000000000E+00 -0.00000000000E+00 -0.74505805969E-08  0.93827000000E+00  0.93827000000E+00 0.  1.
     999902    2    1    2    0    0  0.17828503861E-01  0.54765618839E-02  0.13032277247E-01  0.10211772303E+01  0.10209237225E+01 0.  0.
     999903    2    3    3    0    0  0.12226278610E+00  0.37008458513E-01 -0.30544660755E-01  0.13337109753E+00  0.23174522387E-01 0.  0.
         14    1    1    2    0    0 -0.17828503861E-01 -0.54765618839E-02 -0.13032277247E-01  0.22752769727E-01  0.00000000000E+00 0. -1.
     999901    1    3    3    0    0 -0.10443428224E+00 -0.31531896629E-01  0.43576938003E-01  0.88780613274E+00  0.88000000000E+00 0. -1.
        -11    1    4    4    0    0  0.66266820980E-01  0.31807570468E-01 -0.14981681084E-01  0.75018164407E-01  0.51100000000E-03 0. -1.
         11    1    4    4    0    0  0.55995965125E-01  0.52008880447E-02 -0.15562979671E-01  0.58352933122E-01  0.51100000000E-03 0.  1.
</event>
<event>
 8    1  0.1064884E+005  0.1043930E+01  0.7957747E-01            NaN
         13   -1    0    0    0    0  0.00000000000E+00  0.00000000000E+00  0.74505805969E-08  0.10566000000E+00  0.10566000000E+00 0.  1.
     999900   -1    0    0    0    0 -0.00000000000E+00 -0.00000000000E+00 -0.74505805969E-08  0.93827000000E+00  0.93827000000E+00 0.  1.
     999902    2    1    2    0    0 -0.17853444989E-01  0.15638719610E-01 -0.17089684256E-02  0.10201342940E+01  0.10198567263E+01 0.  0.
     999903    2    3    3    0    0 -0.84681550331E-01  0.48705447070E-01 -0.87742331087E-01  0.13280056673E+00  0.19851657842E-01 0.  0.
         14    1    1    2    0    0  0.17853444989E-01 -0.15638719610E-01  0.17089684256E-02  0.23795705959E-01  0.00000000000E+00 0.  1.
     999901    1    3    3    0    0  0.66828105343E-01 -0.33066727460E-01  0.86033362661E-01  0.88733372731E+00  0.88000000000E+00 0. -1.
        -11    1    4    4    0    0 -0.65743369708E-01  0.42470569908E-01 -0.78378089301E-01  0.11076698954E+00  0.51100000000E-03 0.  1.
         11    1    4    4    0    0 -0.18938180623E-01  0.62348771623E-02 -0.93642417856E-02  0.22033577189E-01  0.51100000000E-03 0. -1.
</event>
<event>
 8    1  0.1064884E+005  0.1043930E+01  0.7957747E-01            NaN
         13   -1    0    0    0    0  0.00000000000E+00  0.00000000000E+00  0.74505805969E-08  0.10566000000E+00  0.10566000000E+00 0. -1.
     999900   -1    0    0    0    0 -0.00000000000E+00 -0.00000000000E+00 -0.74505805969E-08  0.93827000000E+00  0.93827000000E+00 0. -1.
     999902    2    1    2    0    0 -0.40471754915E-02 -0.21130458236E-01 -0.10472744458E-01  0.10200018937E+01  0.10197211917E+01 0.  0.
     999903    2    3    3    0    0 -0.65627092837E-01 -0.11129706073E+00  0.21766717111E-01  0.13266797385E+00  0.20809859941E-01 0.  0.
         14    1    1    2    0    0  0.40471754915E-02  0.21130458236E-01  0.10472744458E-01  0.23928106302E-01  0.00000000000E+00 0. -1.
     999901    1    3    3    0    0  0.61579917345E-01  0.90166602495E-01 -0.32239461569E-01  0.88733391985E+00  0.88000000000E+00 0. -1.
        -11    1    4    4    0    0 -0.55241041107E-01 -0.79566551972E-01  0.21754415505E-01  0.99277009072E-01  0.51100000000E-03 0. -1.
         11    1    4    4    0    0 -0.10386051730E-01 -0.31730508759E-01  0.12301605241E-04  0.33390964780E-01  0.51100000000E-03 0.  1.
</event>
<event>
 8    1  0.1064884E+005  0.1043930E+01  0.7957747E-01            NaN
         13   -1    0    0    0    0  0.00000000000E+00  0.00000000000E+00  0.74505805969E-08  0.10566000000E+00  0.10566000000E+00 0. -1.
     999900   -1    0    0    0    0 -0.00000000000E+00 -0.00000000000E+00 -0.74505805969E-08  0.93827000000E+00  0.93827000000E+00 0.  1.
     999902    2    1    2    0    0  0.69248441340E-03  0.23447478093E-01  0.41973627597E-02  0.10200997332E+01  0.10198213490E+01 0.  0.
     999903    2    3    3    0    0  0.83003458680E-01  0.33952734153E-01 -0.93035986715E-01  0.13086422940E+00  0.20673398468E-01 0.  0.
         14    1    1    2    0    0 -0.69248441340E-03 -0.23447478093E-01 -0.41973627597E-02  0.23830266841E-01  0.00000000000E+00 0.  1.
     999901    1    3    3    0    0 -0.82310974266E-01 -0.10505256060E-01  0.97233349474E-01  0.88923550376E+00  0.88000000000E+00 0. -1.
        -11    1    4    4    0    0  0.11111210164E-01  0.39833738128E-03 -0.20686181895E-01  0.23490357732E-01  0.51100000000E-03 0. -1.
         11    1    4    4    0    0  0.71892248516E-01  0.33554396771E-01 -0.72349804819E-01  0.10737387167E+00  0.51100000000E-03 0.  1.
</event>
<event>
 8    1  0.1064884E+005  0.1043930E+01  0.7957747E-01            NaN
         13   -1    0    0    0    0  0.00000000000E+00  0.00000000000E+00  0.74505805969E-08  0.10566000000E+00  0.10566000000E+00 0.  1.
     999900   -1    0    0    0    0 -0.00000000000E+00 -0.00000000000E+00 -0.74505805969E-08  0.93827000000E+00  0.93827000000E+00 0. -1.
     999902    2    1    2    0    0 -0.19087249079E-01 -0.13713952470E-01  0.11638990501E-01  0.10177028829E+01  0.10173648786E+01 0.  0.
     999903    2    3    3    0    0  0.99670667061E-01  0.73106857560E-01  0.20709812733E-01  0.12544531053E+00  0.53642422697E-02 0.  0.
         14    1    1    2    0    0  0.19087249079E-01  0.13713952470E-01 -0.11638990501E-01  0.26227117067E-01  0.00000000000E+00 0.  1.
     999901    1    3    3    0    0 -0.11875791614E+00 -0.86820810030E-01 -0.90708222314E-02  0.89225757241E+00  0.88000000000E+00 0. -1.
        -11    1    4    4    0    0  0.17716687471E-01  0.13396694310E-01  0.57308512096E-02  0.22944633577E-01  0.51100000000E-03 0.  1.
         11    1    4    4    0    0  0.81953979590E-01  0.59710163250E-01  0.14978961523E-01  0.10250067695E+00  0.51100000000E-03 0. -1.
</event>
<event>
 8    1  0.1064884E+005  0.1043930E+01  0.7957747E-01            NaN
         13   -1    0    0    0    0  0.00000000000E+00  0.00000000000E+00  0.74505805969E-08  0.10566000000E+00  0.10566000000E+00 0. -1.
     999900   -1    0    0    0    0 -0.00000000000E+00 -0.00000000000E+00 -0.74505805969E-08  0.93827000000E+00  0.93827000000E+00 0.  1.
     999902    2    1    2    0    0  0.72061483993E-02  0.19781639440E-01  0.11688282960E-01  0.10198497635E+01  0.10195654379E+01 0.  0.
     999903    2    3    3    0    0  0.97446169800E-01  0.63518483329E-02 -0.83572996580E-01  0.13001925592E+00  0.19607630327E-01 0.  0.
         14    1    1    2    0    0 -0.72061483993E-02 -0.19781639440E-01 -0.11688282960E-01  0.24080236548E-01  0.00000000000E+00 0.  1.
     999901    1    3    3    0    0 -0.90240021401E-01  0.13429791107E-01  0.95261279540E-01  0.88983050753E+00  0.88000000000E+00 0. -1.
        -11    1    4    4    0    0  0.90326516035E-01  0.14091006929E-02 -0.79858773192E-01  0.12057590904E+00  0.51100000000E-03 0.  1.
         11    1    4    4    0    0  0.71196537656E-02  0.49427476401E-02 -0.37142233878E-02  0.94433468829E-02  0.51100000000E-03 0. -1.
</event>
<event>
 8    1  0.1064884E+005  0.1043930E+01  0.7957747E-01            NaN
         13   -1    0    0    0    0  0.00000000000E+00  0.00000000000E+00  0.74505805969E-08  0.10566000000E+00  0.10566000000E+00 0. -1.
     999900   -1    0    0    0    0 -0.00000000000E+00 -0.00000000000E+00 -0.74505805969E-08  0.93827000000E+00  0.93827000000E+00 0. -1.
     999902    2    1    2    0    0 -0.17141976614E-01  0.29101312979E-01 -0.51945239480E-02  0.10097581277E+01  0.10091797459E+01 0.  0.
     999903    2    3    3    0    0 -0.62594780470E-01 -0.19186025842E-01  0.99882480870E-01  0.12102937186E+00  0.19631320334E-01 0.  0.
         14    1    1    2    0    0  0.17141976614E-01 -0.29101312979E-01  0.51945239480E-02  0.34171872327E-01  0.00000000000E+00 0. -1.
     999901    1    3    3    0    0  0.45452803856E-01  0.48287338821E-01 -0.10507700482E+00  0.88872875581E+00  0.88000000000E+00 0. -1.
        -11    1    4    4    0    0 -0.13797114256E-01  0.32906080421E-02  0.26751115352E-01  0.30283192643E-01  0.51100000000E-03 0. -1.
         11    1    4    4    0    0 -0.48797666214E-01 -0.22476633885E-01  0.73131365518E-01  0.90746179216E-01  0.51100000000E-03 0.  1.
</event>
<event>
 8    1  0.1064884E+005  0.1043930E+01  0.7957747E-01            NaN
         13   -1    0    0    0    0  0.00000000000E+00  0.00000000000E+00  0.74505805969E-08  0.10566000000E+00  0.10566000000E+00 0. -1.
     999900   -1    0    0    0    0 -0.00000000000E+00 -0.00000000000E+00 -0.74505805969E-08  0.93827000000E+00  0.93827000000E+00 0.  1.
     999902    2    1    2    0    0 -0.76012423637E-02  0.15174936070E-01 -0.17853132814E-01  0.10192968532E+01  0.10189991575E+01 0.  0.
     999903    2    3    3    0    0 -0.80912537659E-03 -0.15823274019E-01 -0.12896345501E+00  0.13174261509E+00  0.21760358899E-01 0.  0.
         14    1    1    2    0    0  0.76012423637E-02 -0.15174936070E-01  0.17853132814E-01  0.24633146804E-01  0.00000000000E+00 0. -1.
     999901    1    3    3    0    0 -0.67921169871E-02  0.30998210089E-01  0.11111032219E+00  0.88755423811E+00  0.88000000000E+00 0. -1.
        -11    1    4    4    0    0 -0.61385344165E-02 -0.57208253377E-02 -0.10337174636E+00  0.10371301034E+00  0.51100000000E-03 0. -1.
         11    1    4    4    0    0  0.53294090399E-02 -0.10102448681E-01 -0.25591708647E-01  0.28029604752E-01  0.51100000000E-03 0.  1.
</event>
<event>
 8    1  0.1064884E+005  0.1043930E+01  0.7957747E-01            NaN
         13   -1    0    0    0    0  0.00000000000E+00  0.00000000000E+00  0.74505805969E-08  0.10566000000E+00  0.10566000000E+00 0.  1.
     999900   -1    0    0    0    0 -0.00000000000E+00 -0.00000000000E+00 -0.74505805969E-08  0.93827000000E+00  0.93827000000E+00 0. -1.
     999902    2    1    2    0    0  0.20281971891E-01 -0.10114551374E-01  0.66637657371E-02  0.10203065306E+01  0.10200330132E+01 0.  0.
     999903    2    3    3    0    0  0.18902336514E-01 -0.12523167487E+00  0.33156631657E-01  0.13241254623E+00  0.19835560496E-01 0.  0.
         14    1    1    2    0    0 -0.20281971891E-01  0.10114551374E-01 -0.66637657371E-02  0.23623469413E-01  0.00000000000E+00 0. -1.
     999901    1    3    3    0    0  0.13796353769E-02  0.11511712349E+00 -0.26492865920E-01  0.88789398436E+00  0.88000000000E+00 0. -1.
        -11    1    4    4    0    0  0.10232318407E-01 -0.99887925864E-01  0.32753581502E-01  0.10561892016E+00  0.51100000000E-03 0.  1.
         11    1    4    4    0    0  0.86700181076E-02 -0.25343749003E-01  0.40305015498E-03  0.26793626069E-01  0.51100000000E-03 0. -1.
</event>
<event>
 7    1  0.1064884E+005  0.1043930E+01  0.7957747E-01            NaN
         13   -1    0    0    0    0  0.00000000000E+00  0.00000000000E+00  0.74505805969E-08  0.10566000000E+00  0.10566000000E+00 0.  1.
     999900   -1    0    0    0    0 -0.00000000000E+00 -0.00000000000E+00 -0.74505805969E-08  0.93827000000E+00  0.93827000000E+00 0.  1.
     999903    2    1    2    0    0  0.74504333067E-01 -0.81814425117E-01  0.11626587878E-01  0.11325816017E+00  0.21159808499E-01 0.  0.
         14    1    1    2    0    0  0.96992706839E-02  0.43059723287E-01 -0.12235836129E-01  0.45803180098E-01  0.00000000000E+00 0.  1.
     999901    1    1    2    0    0 -0.84203603750E-01  0.38754701830E-01  0.60924825155E-03  0.88486865974E+00  0.88000000000E+00 0.  1.
        -11    1    3    3    0    0  0.46570259900E-01 -0.51484476894E-01 -0.30403433780E-02  0.69490612870E-01  0.51100000000E-03 0.  1.
         11    1    3    3    0    0  0.27934073167E-01 -0.30329948223E-01  0.14666931256E-01  0.43767547297E-01  0.51100000000E-03 0. -1.
</event>
<event>
 8    1  0.1064884E+005  0.1043930E+01  0.7957747E-01            NaN
         13   -1    0    0    0    0  0.00000000000E+00  0.00000000000E+00  0.74505805969E-08  0.10566000000E+00  0.10566000000E+00 0.  1.
     999900   -1    0    0    0    0 -0.00000000000E+00 -0.00000000000E+00 -0.74505805969E-08  0.93827000000E+00  0.93827000000E+00 0.  1.
     999902    2    1    2    0    0  0.45494024808E-02 -0.18983598415E-01  0.14456577906E-01  0.10196387111E+01  0.10193493192E+01 0.  0.
     999903    2    3    3    0    0 -0.35650755244E-01  0.94851728285E-01  0.77650250129E-01  0.12915121849E+00  0.19561420805E-01 0.  0.
         14    1    1    2    0    0 -0.45494024808E-02  0.18983598415E-01 -0.14456577906E-01  0.24291288901E-01  0.00000000000E+00 0.  1.
     999901    1    3    3    0    0  0.40200157725E-01 -0.11383532670E+00 -0.63193672223E-01  0.89048749261E+00  0.88000000000E+00 0.  1.
        -11    1    4    4    0    0 -0.69396388392E-02  0.41338352991E-01  0.38332926718E-01  0.56803982316E-01  0.51100000000E-03 0.  1.
         11    1    4    4    0    0 -0.28711116405E-01  0.53513375294E-01  0.39317323411E-01  0.72347236173E-01  0.51100000000E-03 0. -1.
</event>
<event>
 8    1  0.1064884E+005  0.1043930E+01  0.7957747E-01            NaN
         13   -1    0    0    0    0  0.00000000000E+00  0.00000000000E+00  0.74505805969E-08  0.10566000000E+00  0.10566000000E+00 0. -1.
     999900   -1    0    0    0    0 -0.00000000000E+00 -0.00000000000E+00 -0.74505805969E-08  0.93827000000E+00  0.93827000000E+00 0. -1.
     999902    2    1    2    0    0  0.85690564455E-03 -0.22645000995E-02  0.18275748719E-01  0.10254945657E+01  0.10253288443E+01 0.  0.
     999903    2    3    3    0    0  0.51399425204E-01  0.12335545544E+00  0.18356272212E-02  0.13498617317E+00  0.18958589637E-01 0.  0.
         14    1    1    2    0    0 -0.85690564455E-03  0.22645000995E-02 -0.18275748719E-01  0.18435434338E-01  0.00000000000E+00 0.  1.
     999901    1    3    3    0    0 -0.50542519560E-01 -0.12561995554E+00  0.16440121498E-01  0.89050839250E+00  0.88000000000E+00 0.  1.
        -11    1    4    4    0    0  0.50175496464E-02  0.24583606735E-01  0.59357574672E-02  0.25788056582E-01  0.51100000000E-03 0.  1.
         11    1    4    4    0    0  0.46381875558E-01  0.98771848702E-01 -0.41001302460E-02  0.10919811658E+00  0.51100000000E-03 0. -1.
</event>
<event>
 8    1  0.1064884E+005  0.1043930E+01  0.7957747E-01            NaN
         13   -1    0    0    0    0  0.00000000000E+00  0.00000000000E+00  0.74505805969E-08  0.10566000000E+00  0.10566000000E+00 0. -1.
     999900   -1    0    0    0    0 -0.00000000000E+00 -0.00000000000E+00 -0.74505805969E-08  0.93827000000E+00  0.93827000000E+00 0.  1.
     999902    2    1    2    0    0 -0.75433161219E-02 -0.12691612598E-01 -0.19204748699E-01  0.10197060238E+01  0.10194182527E+01 0.  0.
     999903    2    3    3    0    0  0.84643905318E-01 -0.41808514022E-02 -0.98312776573E-01  0.13132041110E+00  0.19939360750E-01 0.  0.
         14    1    1    2    0    0  0.75433161219E-02  0.12691612598E-01  0.19204748699E-01  0.24223976161E-01  0.00000000000E+00 0. -1.
     999901    1    3    3    0    0 -0.92187221440E-01 -0.85107611962E-02  0.79108027874E-01  0.88838561274E+00  0.88000000000E+00 0. -1.
        -11    1    4    4    0    0  0.80247572723E-01 -0.41495246091E-02 -0.83604501547E-01  0.11596061953E+00  0.51100000000E-03 0. -1.
         11    1    4    4    0    0  0.43963325954E-02 -0.31326793092E-04 -0.14708275026E-01  0.15359791564E-01  0.51100000000E-03 0.  1.
</event>
<event>
 8    1  0.1064884E+005  0.1043930E+01  0.7957747E-01            NaN
         13   -1    0    0    0    0  0.00000000000E+00  0.00000000000E+00  0.74505805969E-08  0.10566000000E+00  0.10566000000E+00 0. -1.
     999900   -1    0    0    0    0 -0.00000000000E+00 -0.00000000000E+00 -0.74505805969E-08  0.93827000000E+00  0.93827000000E+00 0. -1.
     999902    2    1    2    0    0 -0.84703854837E-02 -0.19792332054E-01  0.98579286840E-02  0.10202516851E+01  0.10199768813E+01 0.  0.
     999903    2    3    3    0    0 -0.10058389323E-01 -0.92255055541E-01 -0.90400927522E-01  0.13159809326E+00  0.23099003958E-01 0.  0.
         14    1    1    2    0    0  0.84703854837E-02  0.19792332054E-01 -0.98579286840E-02  0.23678314896E-01  0.00000000000E+00 0.  1.
     999901    1    3    3    0    0  0.15880038395E-02  0.72462723487E-01  0.10025885621E+00  0.88865359184E+00  0.88000000000E+00 0.  1.
        -11    1    4    4    0    0 -0.72182655226E-02 -0.62646102719E-02 -0.81977595038E-02  0.12602106209E-01  0.51100000000E-03 0. -1.
         11    1    4    4    0    0 -0.28401238006E-02 -0.85990445269E-01 -0.82203168018E-01  0.11899598705E+00  0.51100000000E-03 0.  1.
</event>
<event>
 8    1  0.1064884E+005  0.1043930E+01  0.7957747E-01            NaN
         13   -1    0    0    0    0  0.00000000000E+00  0.00000000000E+00  0.74505805969E-08  0.10566000000E+00  0.10566000000E+00 0. -1.
     999900   -1    0    0    0    0 -0.00000000000E+00 -0.00000000000E+00 -0.74505805969E-08  0.93827000000E+00  0.93827000000E+00 0.  1.
     999902    2    1    2    0    0  0.72222697409E-02  0.18733686273E-01  0.12959444097E-01  0.10200331514E+01  0.10197531910E+01 0.  0.
     999903    2    3    3    0    0  0.73947671322E-01  0.69500350979E-01 -0.80381040762E-01  0.13113384351E+00  0.20890579675E-01 0.  0.
         14    1    1    2    0    0 -0.72222697409E-02 -0.18733686273E-01 -0.12959444097E-01  0.23896848597E-01  0.00000000000E+00 0. -1.
     999901    1    3    3    0    0 -0.66725401581E-01 -0.50766664706E-01  0.93340484859E-01  0.88889930789E+00  0.88000000000E+00 0. -1.
        -11    1    4    4    0    0  0.36552293815E-01  0.43356491769E-01 -0.34267924239E-01  0.66260148764E-01  0.51100000000E-03 0. -1.
         11    1    4    4    0    0  0.37395377507E-01  0.26143859210E-01 -0.46113116523E-01  0.64873694744E-01  0.51100000000E-03 0.  1.
</event>
<event>
 8    1  0.1064884E+005  0.1043930E+01  0.7957747E-01            NaN
         13   -1    0    0    0    0  0.00000000000E+00  0.00000000000E+00  0.74505805969E-08  0.10566000000E+00  0.10566000000E+00 0. -1.
     999900   -1    0    0    0    0 -0.00000000000E+00 -0.00000000000E+00 -0.74505805969E-08  0.93827000000E+00  0.93827000000E+00 0.  1.
     999902    2    1    2    0    0 -0.67895604118E-02 -0.79859814830E-02  0.20940306842E-01  0.10205126884E+01  0.10202439790E+01 0.  0.
     999903    2    3    3    0    0 -0.17935130315E-01  0.11604507534E+00 -0.47008005346E-01  0.12915142613E+00  0.26119148041E-01 0.  0.
         14    1    1    2    0    0  0.67895604118E-02  0.79859814830E-02 -0.20940306842E-01  0.23417311577E-01  0.00000000000E+00 0.  1.
     999901    1    3    3    0    0  0.11145569903E-01 -0.12403105683E+00  0.67948312188E-01  0.89136126229E+00  0.88000000000E+00 0. -1.
        -11    1    4    4    0    0 -0.10124011705E-01  0.61318051964E-01 -0.38784565959E-01  0.73259148147E-01  0.51100000000E-03 0. -1.
         11    1    4    4    0    0 -0.78111186099E-02  0.54727023379E-01 -0.82234393864E-02  0.55892277984E-01  0.51100000000E-03 0.  1.
</event>
<event>
 8    1  0.1064884E+005  0.1043930E+01  0.7957747E-01            NaN
         13   -1    0    0    0    0  0.00000000000E+00  0.00000000000E+00  0.74505805969E-08  0.10566000000E+00  0.10566000000E+00 0. -1.
     999900   -1    0    0    0    0 -0.00000000000E+00 -0.00000000000E+00 -0.74505805969E-08  0.93827000000E+00  0.93827000000E+00 0. -1.
     999902    2    1    2    0    0 -0.20929338728E-01 -0.52495570667E-02 -0.75508151234E-02  0.10210693378E+01  0.10208133927E+01 0.  0.
     999903    2    3    3    0    0  0.22818185039E-01  0.40276725777E-01 -0.12121341563E+00  0.13151569968E+00  0.21466320749E-01 0.  0.
         14    1    1    2    0    0  0.20929338728E-01  0.52495570667E-02  0.75508151234E-02  0.22860662239E-01  0.00000000000E+00 0. -1.
     999901    1    3    3    0    0 -0.43747523767E-01 -0.45526282844E-01  0.11366260051E+00  0.88955363808E+00  0.88000000000E+00 0.  1.
        -11    1    4    4    0    0  0.17201341563E-01  0.28192976481E-01 -0.56533314806E-01  0.65475238666E-01  0.51100000000E-03 0. -1.
         11    1    4    4    0    0  0.56168434757E-02  0.12083749297E-01 -0.64680100823E-01  0.66040461016E-01  0.51100000000E-03 0.  1.
</event>
<event>
 8    1  0.1064884E+005  0.1043930E+01  0.7957747E-01            NaN
         13   -1    0    0    0    0  0.00000000000E+00  0.00000000000E+00  0.74505805969E-08  0.10566000000E+00  0.10566000000E+00 0.  1.
     999900   -1    0    0    0    0 -0.00000000000E+00 -0.00000000000E+00 -0.74505805969E-08  0.93827000000E+00  0.93827000000E+00 0. -1.
     999902    2    1    2    0    0 -0.17410656727E-01  0.16625313803E-02 -0.15954126574E-01  0.10202566155E+01  0.10199819275E+01 0.  0.
     999903    2    3    3    0    0  0.87765563427E-01 -0.80308360515E-01  0.43257003371E-01  0.12824359862E+00  0.20567580158E-01 0.  0.
         14    1    1    2    0    0  0.17410656727E-01 -0.16625313803E-02  0.15954126574E-01  0.23673384485E-01  0.00000000000E+00 0. -1.
     999901    1    3    3    0    0 -0.10517622015E+00  0.81970891895E-01 -0.59211129944E-01  0.89201301690E+00  0.88000000000E+00 0. -1.
        -11    1    4    4    0    0  0.23673888862E-01 -0.26184367008E-01  0.22366599055E-01  0.41792343363E-01  0.51100000000E-03 0. -1.
         11    1    4    4    0    0  0.64091674565E-01 -0.54123993507E-01  0.20890404315E-01  0.86451255254E-01  0.51100000000E-03 0.  1.
</event>
<event>
 7    1  0.1064884E+005  0.1043930E+01  0.7957747E-01            NaN
         13   -1    0    0    0    0  0.00000000000E+00  0.00000000000E+00  0.74505805969E-08  0.10566000000E+00  0.10566000000E+00 0. -1.
     999900   -1    0    0    0    0 -0.00000000000E+00 -0.00000000000E+00 -0.74505805969E-08  0.93827000000E+00  0.93827000000E+00 0.  1.
     999903    2    1    2    0    0 -0.63050240095E-02 -0.75681751672E-01 -0.90397700492E-01  0.11977699915E+00  0.20181784014E-01 0.  0.
         14    1    1    2    0    0  0.29733724958E-01  0.19772616984E-01  0.15393155241E-01  0.38884444326E-01  0.00000000000E+00 0.  1.
     999901    1    1    2    0    0 -0.23428700948E-01  0.55909134688E-01  0.75004545251E-01  0.88526855653E+00  0.88000000000E+00 0. -1.
        -11    1    3    3    0    0 -0.51885917292E-02 -0.29440351511E-01 -0.21643435103E-01  0.36910095980E-01  0.51100000000E-03 0. -1.
         11    1    3    3    0    0 -0.11164322803E-02 -0.46241400162E-01 -0.68754265389E-01  0.82866903165E-01  0.51100000000E-03 0.  1.
</event>
<event>
 8    1  0.1064884E+005  0.1043930E+01  0.7957747E-01            NaN
         13   -1    0    0    0    0  0.00000000000E+00  0.00000000000E+00  0.74505805969E-08  0.10566000000E+00  0.10566000000E+00 0. -1.
     999900   -1    0    0    0    0 -0.00000000000E+00 -0.00000000000E+00 -0.74505805969E-08  0.93827000000E+00  0.93827000000E+00 0. -1.
     999902    2    1    2    0    0 -0.93937811921E-02 -0.18037522626E-01  0.12839960756E-01  0.10198788059E+01  0.10195951739E+01 0.  0.
     999903    2    3    3    0    0 -0.65430745455E-01 -0.30061527201E-01  0.10978826848E+00  0.13270143215E+00  0.19269881383E-01 0.  0.
         14    1    1    2    0    0  0.93937811921E-02  0.18037522626E-01 -0.12839960756E-01  0.24051194145E-01  0.00000000000E+00 0.  1.
     999901    1    3    3    0    0  0.56036964263E-01  0.12024004575E-01 -0.96948307727E-01  0.88717737371E+00  0.88000000000E+00 0. -1.
        -11    1    4    4    0    0 -0.50157666493E-01 -0.13687479808E-01  0.80488694520E-01  0.95821864300E-01  0.51100000000E-03 0. -1.
         11    1    4    4    0    0 -0.15273078963E-01 -0.16374047393E-01  0.29299573964E-01  0.36879567846E-01  0.51100000000E-03 0.  1.
</event>
<event>
 8    1  0.1064884E+005  0.1043930E+01  0.7957747E-01            NaN
         13   -1    0    0    0    0  0.00000000000E+00  0.00000000000E+00  0.74505805969E-08  0.10566000000E+00  0.10566000000E+00 0.  1.
     999900   -1    0    0    0    0 -0.00000000000E+00 -0.00000000000E+00 -0.74505805969E-08  0.93827000000E+00  0.93827000000E+00 0.  1.
     999902    2    1    2    0    0 -0.44083536245E-02 -0.14607868538E-01  0.18407212421E-01  0.10200208203E+01  0.10197405675E+01 0.  0.
     999903    2    3    3    0    0 -0.77426974250E-01 -0.72745763916E-01 -0.73020812608E-01  0.13037436378E+00  0.19456442316E-01 0.  0.
         14    1    1    2    0    0  0.44083536245E-02  0.14607868538E-01 -0.18407212421E-01  0.23909179702E-01  0.00000000000E+00 0. -1.
     999901    1    3    3    0    0  0.73018620626E-01  0.58137895378E-01  0.91428025029E-01  0.88964645652E+00  0.88000000000E+00 0. -1.
        -11    1    4    4    0    0 -0.57877243738E-01 -0.61809356628E-01 -0.50438091657E-01  0.98561828922E-01  0.51100000000E-03 0. -1.
         11    1    4    4    0    0 -0.19549730512E-01 -0.10936407288E-01 -0.22582720951E-01  0.31812534857E-01  0.51100000000E-03 0.  1.
</event>
<event>
 8    1  0.1064884E+005  0.1043930E+01  0.7957747E-01            NaN
         13   -1    0    0    0    0  0.00000000000E+00  0.00000000000E+00  0.74505805969E-08  0.10566000000E+00  0.10566000000E+00 0.  1.
     999900   -1    0    0    0    0 -0.00000000000E+00 -0.00000000000E+00 -0.74505805969E-08  0.93827000000E+00  0.93827000000E+00 0.  1.
     999902    2    1    2    0    0 -0.19838653497E-01  0.11258793948E-02 -0.14124789473E-01  0.10195507167E+01  0.10192591989E+01 0.  0.
     999903    2    3    3    0    0  0.83180973943E-01  0.41752099555E-01  0.84321925718E-01  0.12716330691E+00  0.19950118409E-01 0.  0.
         14    1    1    2    0    0  0.19838653497E-01 -0.11258793948E-02  0.14124789473E-01  0.24379283308E-01  0.00000000000E+00 0.  1.
     999901    1    3    3    0    0 -0.10301962744E+00 -0.40626220160E-01 -0.98446715191E-01  0.89238740978E+00  0.88000000000E+00 0.  1.
        -11    1    4    4    0    0  0.44690947169E-01  0.12045962285E-01  0.36310990952E-01  0.58831412962E-01  0.51100000000E-03 0. -1.
         11    1    4    4    0    0  0.38490026774E-01  0.29706137270E-01  0.48010934766E-01  0.68331893949E-01  0.51100000000E-03 0.  1.
</event>
<event>
 8    1  0.1064884E+005  0.1043930E+01  0.7957747E-01            NaN
         13   -1    0    0    0    0  0.00000000000E+00  0.00000000000E+00  0.74505805969E-08  0.10566000000E+00  0.10566000000E+00 0. -1.
     999900   -1    0    0    0    0 -0.00000000000E+00 -0.00000000000E+00 -0.74505805969E-08  0.93827000000E+00  0.93827000000E+00 0. -1.
     999902    2    1    2    0    0  0.16607682487E-02 -0.59019775636E-02  0.22828297977E-01  0.10202926846E+01  0.10200188428E+01 0.  0.
     999903    2    3    3    0    0  0.36930354063E-01 -0.85747904010E-01 -0.86947790868E-01  0.12918657121E+00  0.20314963724E-01 0.  0.
         14    1    1    2    0    0 -0.16607682487E-02  0.59019775636E-02 -0.22828297977E-01  0.23637315390E-01  0.00000000000E+00 0.  1.
     999901    1    3    3    0    0 -0.35269585815E-01  0.79845926447E-01  0.10977608885E+00  0.89110611340E+00  0.88000000000E+00 0.  1.
        -11    1    4    4    0    0  0.11423670251E-01 -0.28559245268E-01 -0.16423743427E-01  0.34873072728E-01  0.51100000000E-03 0. -1.
         11    1    4    4    0    0  0.25506683812E-01 -0.57188658742E-01 -0.70524047441E-01  0.94313498484E-01  0.51100000000E-03 0.  1.
</event>
<event>
 8    1  0.1064884E+005  0.1043930E+01  0.7957747E-01            NaN
         13   -1    0    0    0    0  0.00000000000E+00  0.00000000000E+00  0.74505805969E-08  0.10566000000E+00  0.10566000000E+00 0.  1.
     999900   -1    0    0    0    0 -0.00000000000E+00 -0.00000000000E+00 -0.74505805969E-08  0.93827000000E+00  0.93827000000E+00 0.  1.
     999902    2    1    2    0    0  0.23817423105E-01 -0.15500613037E-02  0.31487795744E-02  0.10198553838E+01  0.10195711925E+01 0.  0.
     999903    2    3    3    0    0  0.41956062230E-01 -0.49184665441E-01  0.11212845003E+00  0.13166923532E+00  0.24177587803E-01 0.  0.
         14    1    1    2    0    0 -0.23817423105E-01  0.15500613037E-02 -0.31487795744E-02  0.24074616222E-01  0.00000000000E+00 0.  1.
     999901    1    3    3    0    0 -0.18138639125E-01  0.47634604138E-01 -0.10897967045E+00  0.88818614846E+00  0.88000000000E+00 0.  1.
        -11    1    4    4    0    0  0.25911523290E-01 -0.15785022296E-01  0.64850455767E-01  0.71598999311E-01  0.51100000000E-03 0. -1.
         11    1    4    4    0    0  0.16044538941E-01 -0.33399643145E-01  0.47277994260E-01  0.60070236010E-01  0.51100000000E-03 0.  1.
</event>
<event>
 8    1  0.1064884E+005  0.1043930E+01  0.7957747E-01            NaN
         13   -1    0    0    0    0  0.00000000000E+00  0.00000000000E+00  0.74505805969E-08  0.10566000000E+00  0.10566000000E+00 0.  1.
     999900   -1    0    0    0    0 -0.00000000000E+00 -0.00000000000E+00 -0.74505805969E-08  0.93827000000E+00  0.93827000000E+00 0. -1.
     999902    2    1    2    0    0  0.15282731685E-01 -0.18091120961E-01  0.29740099425E-02  0.10200617097E+01  0.10197824260E+01 0.  0.
     999903    2    3    3    0    0 -0.68875074028E-01 -0.96636360344E-01 -0.51720647939E-01  0.13088040286E+00  0.19294881843E-01 0.  0.
         14    1    1    2    0    0 -0.15282731685E-01  0.18091120961E-01 -0.29740099425E-02  0.23868290272E-01  0.00000000000E+00 0.  1.
     999901    1    3    3    0    0  0.84157805713E-01  0.78545239383E-01  0.54694657882E-01  0.88918130687E+00  0.88000000000E+00 0.  1.
        -11    1    4    4    0    0 -0.21130171479E-01 -0.42199007773E-01 -0.26958424966E-01  0.54353088242E-01  0.51100000000E-03 0. -1.
         11    1    4    4    0    0 -0.47744902549E-01 -0.54437352571E-01 -0.24762222973E-01  0.76527314613E-01  0.51100000000E-03 0.  1.
</event>
<event>
 8    1  0.1064884E+005  0.1043930E+01  0.7957747E-01            NaN
         13   -1    0    0    0    0  0.00000000000E+00  0.00000000000E+00  0.74505805969E-08  0.10566000000E+00  0.10566000000E+00 0.  1.
     999900   -1    0    0    0    0 -0.00000000000E+00 -0.00000000000E+00 -0.74505805969E-08  0.93827000000E+00  0.93827000000E+00 0. -1.
     999902    2    1    2    0    0  0.21654416649E-01  0.75255298772E-02 -0.56759465747E-02  0.10203129780E+01  0.10200396116E+01 0.  0.
     999903    2    3    3    0    0  0.21181619955E-01  0.10239968370E+00  0.77169007828E-01  0.13134469109E+00  0.19026714428E-01 0.  0.
         14    1    1    2    0    0 -0.21654416649E-01 -0.75255298772E-02  0.56759465747E-02  0.23617022036E-01  0.00000000000E+00 0.  1.
     999901    1    3    3    0    0  0.47279669347E-03 -0.94874153824E-01 -0.82844954403E-01  0.88896828688E+00  0.88000000000E+00 0. -1.
        -11    1    4    4    0    0  0.63303470969E-02  0.59910423062E-01  0.53067768541E-01  0.80285623027E-01  0.51100000000E-03 0.  1.
         11    1    4    4    0    0  0.14851272858E-01  0.42489260639E-01  0.24101239287E-01  0.51059068062E-01  0.51100000000E-03 0. -1.
</event>
<event>
 8    1  0.1064884E+005  0.1043930E+01  0.7957747E-01            NaN
         13   -1    0    0    0    0  0.00000000000E+00  0.00000000000E+00  0.74505805969E-08  0.10566000000E+00  0.10566000000E+00 0.  1.
     999900   -1    0    0    0    0 -0.00000000000E+00 -0.00000000000E+00 -0.74505805969E-08  0.93827000000E+00  0.93827000000E+00 0.  1.
     999902    2    1    2    0    0  0.22344760960E-01  0.31024578088E-02 -0.10280296730E-01  0.10191389111E+01  0.10188373384E+01 0.  0.
     999903    2    3    3    0    0 -0.65366297674E-01  0.10878475997E+00 -0.11164031854E-01  0.12848591484E+00  0.16646856562E-01 0.  0.
         14    1    1    2    0    0 -0.22344760960E-01 -0.31024578088E-02  0.10280296730E-01  0.24791088877E-01  0.00000000000E+00 0.  1.
     999901    1    3    3    0    0  0.87711058635E-01 -0.10568230216E+00  0.88373512402E-03  0.89065299628E+00  0.88000000000E+00 0.  1.
        -11    1    4    4    0    0 -0.16314075302E-01  0.36825885048E-01 -0.94768889071E-02  0.41380761314E-01  0.51100000000E-03 0. -1.
         11    1    4    4    0    0 -0.49052222372E-01  0.71958874917E-01 -0.16871429472E-02  0.87105153529E-01  0.51100000000E-03 0.  1.
</event>
<event>
 8    1  0.1064884E+005  0.1043930E+01  0.7957747E-01            NaN
         13   -1    0    0    0    0  0.00000000000E+00  0.00000000000E+00  0.74505805969E-08  0.10566000000E+00  0.10566000000E+00 0.  1.
     999900   -1    0    0    0    0 -0.00000000000E+00 -0.00000000000E+00 -0.74505805969E-08  0.93827000000E+00  0.93827000000E+00 0.  1.
     999902    2    1    2    0    0 -0.23166191266E-01 -0.72254174622E-03 -0.29573857688E-02  0.10205646279E+01  0.10202971229E+01 0.  0.
     999903    2    3    3    0    0  0.31256661821E-02 -0.12317380245E+00  0.38820696324E-01  0.13071577488E+00  0.19950236607E-01 0.  0.
         14    1    1    2    0    0  0.23166191266E-01  0.72254174622E-03  0.29573857688E-02  0.23365372134E-01  0.00000000000E+00 0. -1.
     999901    1    3    3    0    0 -0.26291857448E-01  0.12245126070E+00 -0.41778082092E-01  0.88984885299E+00  0.88000000000E+00 0. -1.
        -11    1    4    4    0    0 -0.69324298082E-02 -0.35979823918E-01  0.16250257036E-01  0.40086634767E-01  0.51100000000E-03 0.  1.
         11    1    4    4    0    0  0.10058095990E-01 -0.87193978532E-01  0.22570439287E-01  0.90629140114E-01  0.51100000000E-03 0. -1.
</event>
<event>
 8    1  0.1064884E+005  0.1043930E+01  0.7957747E-01            NaN
         13   -1    0    0    0    0  0.00000000000E+00  0.00000000000E+00  0.74505805969E-08  0.10566000000E+00  0.10566000000E+00 0.  1.
     999900   -1    0    0    0    0 -0.00000000000E+00 -0.00000000000E+00 -0.74505805969E-08  0.93827000000E+00  0.93827000000E+00 0.  1.
     999902    2    1    2    0    0  0.15854787938E-01 -0.63248565715E-02 -0.16271835343E-01  0.10203471516E+01  0.10200745851E+01 0.  0.
     999903    2    3    3    0    0  0.11282627733E+00  0.65623187461E-01 -0.36639985367E-02  0.13201222137E+00  0.19432707412E-01 0.  0.
         14    1    1    2    0    0 -0.15854787938E-01  0.63248565715E-02  0.16271835343E-01  0.23582848357E-01  0.00000000000E+00 0.  1.
     999901    1    3    3    0    0 -0.96971489390E-01 -0.71948044032E-01 -0.12607836807E-01  0.88833493027E+00  0.88000000000E+00 0. -1.
        -11    1    4    4    0    0  0.95550125978E-01  0.53300668181E-01  0.38901897489E-02  0.10948142537E+00  0.51100000000E-03 0.  1.
         11    1    4    4    0    0  0.17276151350E-01  0.12322519280E-01 -0.75541882856E-02  0.22530796003E-01  0.51100000000E-03 0. -1.
</event>
<event>
 8    1  0.1064884E+005  0.1043930E+01  0.7957747E-01            NaN
         13   -1    0    0    0    0  0.00000000000E+00  0.00000000000E+00  0.74505805969E-08  0.10566000000E+00  0.10566000000E+00 0. -1.
     999900   -1    0    0    0    0 -0.00000000000E+00 -0.00000000000E+00 -0.74505805969E-08  0.93827000000E+00  0.93827000000E+00 0.  1.
     999902    2    1    2    0    0 -0.18084732994E-01  0.57272512263E-03  0.18504127647E-01  0.10180497310E+01  0.10177207213E+01 0.  0.
     999903    2    3    3    0    0 -0.12465879908E+00  0.33104338535E-03 -0.31733963918E-01  0.13019729070E+00  0.20108810560E-01 0.  0.
         14    1    1    2    0    0  0.18084732994E-01 -0.57272512263E-03 -0.18504127647E-01  0.25880268961E-01  0.00000000000E+00 0.  1.
     999901    1    3    3    0    0  0.10657406608E+00  0.24168173728E-03  0.50238091565E-01  0.88785244034E+00  0.88000000000E+00 0. -1.
        -11    1    4    4    0    0 -0.10011038455E+00  0.23689806149E-02 -0.33242061627E-01  0.10551301790E+00  0.51100000000E-03 0.  1.
         11    1    4    4    0    0 -0.24548414525E-01 -0.20379372296E-02  0.15080977084E-02  0.24684272798E-01  0.51100000000E-03 0. -1.
</event>
<event>
 8    1  0.1064884E+005  0.1043930E+01  0.7957747E-01            NaN
         13   -1    0    0    0    0  0.00000000000E+00  0.00000000000E+00  0.74505805969E-08  0.10566000000E+00  0.10566000000E+00 0.  1.
     999900   -1    0    0    0    0 -0.00000000000E+00 -0.00000000000E+00 -0.74505805969E-08  0.93827000000E+00  0.93827000000E+00 0.  1.
     999902    2    1    2    0    0 -0.15489159715E-01  0.10769701652E-01  0.13638469880E-01  0.10206510738E+01  0.10203855674E+01 0.  0.
     999903    2    3    3    0    0  0.94642808413E-01 -0.29594420954E-02 -0.84223434897E-01  0.12829772892E+00  0.20017511786E-01 0.  0.
         14    1    1    2    0    0  0.15489159715E-01 -0.10769701652E-01 -0.13638469880E-01  0.23278926157E-01  0.00000000000E+00 0. -1.
     999901    1    3    3    0    0 -0.11013196813E+00  0.13729143747E-01  0.97861904777E-01  0.89235334492E+00  0.88000000000E+00 0.  1.
        -11    1    4    4    0    0  0.52881719285E-01 -0.61507649707E-02 -0.35236346793E-01  0.63844885469E-01  0.51100000000E-03 0.  1.
         11    1    4    4    0    0  0.41761089128E-01  0.31913228753E-02 -0.48987088104E-01  0.64452843449E-01  0.51100000000E-03 0. -1.
</event>
<event>
 8    1  0.1064884E+005  0.1043930E+01  0.7957747E-01            NaN
         13   -1    0    0    0    0  0.00000000000E+00  0.00000000000E+00  0.74505805969E-08  0.10566000000E+00  0.10566000000E+00 0. -1.
     999900   -1    0    0    0    0 -0.00000000000E+00 -0.00000000000E+00 -0.74505805969E-08  0.93827000000E+00  0.93827000000E+00 0.  1.
     999902    2    1    2    0    0  0.14208843429E-01  0.14222580725E-01 -0.12777127958E-01  0.10201092520E+01  0.10198310929E+01 0.  0.
     999903    2    3    3    0    0  0.49878499620E-01  0.11287193273E+00  0.42594304825E-01  0.13215091148E+00  0.20534134475E-01 0.  0.
         14    1    1    2    0    0 -0.14208843429E-01 -0.14222580725E-01  0.12777127958E-01  0.23820747951E-01  0.00000000000E+00 0. -1.
     999901    1    3    3    0    0 -0.35669656191E-01 -0.98649352002E-01 -0.55371432783E-01  0.88795834057E+00  0.88000000000E+00 0.  1.
        -11    1    4    4    0    0  0.31868218791E-01  0.79278858154E-01  0.19710356110E-01  0.87689679998E-01  0.51100000000E-03 0. -1.
         11    1    4    4    0    0  0.18010280829E-01  0.33593074574E-01  0.22883948716E-01  0.44461231479E-01  0.51100000000E-03 0.  1.
</event>
<event>
 8    1  0.1064884E+005  0.1043930E+01  0.7957747E-01            NaN
         13   -1    0    0    0    0  0.00000000000E+00  0.00000000000E+00  0.74505805969E-08  0.10566000000E+00  0.10566000000E+00 0. -1.
     999900   -1    0    0    0    0 -0.00000000000E+00 -0.00000000000E+00 -0.74505805969E-08  0.93827000000E+00  0.93827000000E+00 0.  1.
     999902    2    1    2    0    0  0.31524203730E-01  0.37461145737E-02 -0.14318714435E-02  0.10121517205E+01  0.10116527300E+01 0.  0.
     999903    2    3    3    0    0  0.12112266263E+00  0.19808804822E-02 -0.32456486418E-01  0.12705651279E+00  0.20379171746E-01 0.  0.
         14    1    1    2    0    0 -0.31524203730E-01 -0.37461145737E-02  0.14318714435E-02  0.31778279548E-01  0.00000000000E+00 0. -1.
     999901    1    3    3    0    0 -0.89598458904E-01  0.17652340915E-02  0.31024614974E-01  0.88509520766E+00  0.88000000000E+00 0.  1.
        -11    1    4    4    0    0  0.81184150826E-01 -0.72646581522E-02 -0.25979223481E-01  0.85550118510E-01  0.51100000000E-03 0. -1.
         11    1    4    4    0    0  0.39938511808E-01  0.92455386344E-02 -0.64772629365E-02  0.41506394281E-01  0.51100000000E-03 0.  1.
</event>
<event>
 8    1  0.1064884E+005  0.1043930E+01  0.7957747E-01            NaN
         13   -1    0    0    0    0  0.00000000000E+00  0.00000000000E+00  0.74505805969E-08  0.10566000000E+00  0.10566000000E+00 0. -1.
     999900   -1    0    0    0    0 -0.00000000000E+00 -0.00000000000E+00 -0.74505805969E-08  0.93827000000E+00  0.93827000000E+00 0.  1.
     999902    2    1    2    0    0 -0.60142673480E-02  0.18348370367E-01  0.13845417190E-01  0.10201701666E+01  0.10198934450E+01 0.  0.
     999903    2    3    3    0    0 -0.35038191343E-01  0.78119331336E-01 -0.97023323354E-01  0.13072830026E+00  0.18602645865E-01 0.  0.
         14    1    1    2    0    0  0.60142673480E-02 -0.18348370367E-01 -0.13845417190E-01  0.23759833417E-01  0.00000000000E+00 0.  1.
     999901    1    3    3    0    0  0.29023923995E-01 -0.59770960969E-01  0.11086874054E+00  0.88944186632E+00  0.88000000000E+00 0.  1.
        -11    1    4    4    0    0 -0.63090546125E-03  0.18617701953E-01 -0.24847911217E-01  0.31059566651E-01  0.51100000000E-03 0. -1.
         11    1    4    4    0    0 -0.34407285882E-01  0.59501629383E-01 -0.72175412137E-01  0.99668733608E-01  0.51100000000E-03 0.  1.
</event>
<event>
 8    1  0.1064884E+005  0.1043930E+01  0.7957747E-01            NaN
         13   -1    0    0    0    0  0.00000000000E+00  0.00000000000E+00  0.74505805969E-08  0.10566000000E+00  0.10566000000E+00 0. -1.
     999900   -1    0    0    0    0 -0.00000000000E+00 -0.00000000000E+00 -0.74505805969E-08  0.93827000000E+00  0.93827000000E+00 0.  1.
     999902    2    1    2    0    0 -0.18799239812E-01  0.12578966415E-01  0.56530373074E-02  0.10206147980E+01  0.10203484538E+01 0.  0.
     999903    2    3    3    0    0  0.10852671401E-01  0.95449071387E-01  0.88511795824E-01  0.13235117497E+00  0.21311729399E-01 0.  0.
         14    1    1    2    0    0  0.18799239812E-01 -0.12578966415E-01 -0.56530373074E-02  0.23315202002E-01  0.00000000000E+00 0.  1.
     999901    1    3    3    0    0 -0.29651911213E-01 -0.82870104972E-01 -0.82858758517E-01  0.88826362303E+00  0.88000000000E+00 0.  1.
        -11    1    4    4    0    0  0.16579382190E-01  0.72869087343E-01  0.62440201508E-01  0.97384904833E-01  0.51100000000E-03 0.  1.
         11    1    4    4    0    0 -0.57267107897E-02  0.22579984045E-01  0.26071594317E-01  0.34966270135E-01  0.51100000000E-03 0. -1.
</event>
<event>
 8    1  0.1064884E+005  0.1043930E+01  0.7957747E-01            NaN
         13   -1    0    0    0    0  0.00000000000E+00  0.00000000000E+00  0.74505805969E-08  0.10566000000E+00  0.10566000000E+00 0.  1.
     999900   -1    0    0    0    0 -0.00000000000E+00 -0.00000000000E+00 -0.74505805969E-08  0.93827000000E+00  0.93827000000E+00 0.  1.
     999902    2    1    2    0    0 -0.24399282313E-01  0.26651274377E-02 -0.20510715508E-01  0.10119437947E+01  0.10114381475E+01 0.  0.
     999903    2    3    3    0    0  0.65864871799E-01  0.75498998102E-01  0.63704446592E-01  0.12034714607E+00  0.19669748379E-01 0.  0.
         14    1    1    2    0    0  0.24399282313E-01 -0.26651274377E-02  0.20510715508E-01  0.31986205344E-01  0.00000000000E+00 0.  1.
     999901    1    3    3    0    0 -0.90264154112E-01 -0.72833870664E-01 -0.84215162099E-01  0.89159664858E+00  0.88000000000E+00 0.  1.
        -11    1    4    4    0    0  0.35080071486E-01  0.31435533404E-01  0.20465643413E-01  0.51360567142E-01  0.51100000000E-03 0.  1.
         11    1    4    4    0    0  0.30784800313E-01  0.44063464698E-01  0.43238803179E-01  0.68986578933E-01  0.51100000000E-03 0. -1.
</event>
<event>
 8    1  0.1064884E+005  0.1043930E+01  0.7957747E-01            NaN
         13   -1    0    0    0    0  0.00000000000E+00  0.00000000000E+00  0.74505805969E-08  0.10566000000E+00  0.10566000000E+00 0. -1.
     999900   -1    0    0    0    0 -0.00000000000E+00 -0.00000000000E+00 -0.74505805969E-08  0.93827000000E+00  0.93827000000E+00 0. -1.
     999902    2    1    2    0    0  0.16329861915E-02 -0.18673342919E-01 -0.14194449180E-01  0.10204173913E+01  0.10201464648E+01 0.  0.
     999903    2    3    3    0    0 -0.16231482370E-01 -0.11402710075E+00  0.61358777744E-01  0.13186814199E+00  0.18938493645E-01 0.  0.
         14    1    1    2    0    0 -0.16329861915E-02  0.18673342919E-01  0.14194449180E-01  0.23512608685E-01  0.00000000000E+00 0. -1.
     999901    1    3    3    0    0  0.17864468561E-01  0.95353757831E-01 -0.75553226925E-01  0.88854924932E+00  0.88000000000E+00 0. -1.
        -11    1    4    4    0    0  0.27879204161E-02 -0.36798138113E-01  0.23734398542E-01  0.43880044029E-01  0.51100000000E-03 0. -1.
         11    1    4    4    0    0 -0.19019402786E-01 -0.77228962636E-01  0.37624379202E-01  0.87988097965E-01  0.51100000000E-03 0.  1.
</event>
<event>
 8    1  0.1064884E+005  0.1043930E+01  0.7957747E-01            NaN
         13   -1    0    0    0    0  0.00000000000E+00  0.00000000000E+00  0.74505805969E-08  0.10566000000E+00  0.10566000000E+00 0. -1.
     999900   -1    0    0    0    0 -0.00000000000E+00 -0.00000000000E+00 -0.74505805969E-08  0.93827000000E+00  0.93827000000E+00 0.  1.
     999902    2    1    2    0    0  0.57180884831E-02  0.25221273794E-01  0.86892105377E-02  0.10166479259E+01  0.10162817984E+01 0.  0.
     999903    2    3    3    0    0 -0.10698333112E+00  0.66150095316E-01  0.16868687843E-01  0.12847920191E+00  0.20027092832E-01 0.  0.
         14    1    1    2    0    0 -0.57180884831E-02 -0.25221273794E-01 -0.86892105377E-02  0.27282074105E-01  0.00000000000E+00 0. -1.
     999901    1    3    3    0    0  0.11270141960E+00 -0.40928821522E-01 -0.81794773054E-02  0.88816872398E+00  0.88000000000E+00 0.  1.
        -11    1    4    4    0    0 -0.86175251745E-02  0.12181526319E-01  0.45358906773E-02  0.15604061933E-01  0.51100000000E-03 0.  1.
         11    1    4    4    0    0 -0.98365805943E-01  0.53968568998E-01  0.12332797166E-01  0.11287513998E+00  0.51100000000E-03 0. -1.
</event>
<event>
 8    1  0.1064884E+005  0.1043930E+01  0.7957747E-01            NaN
         13   -1    0    0    0    0  0.00000000000E+00  0.00000000000E+00  0.74505805969E-08  0.10566000000E+00  0.10566000000E+00 0.  1.
     999900   -1    0    0    0    0 -0.00000000000E+00 -0.00000000000E+00 -0.74505805969E-08  0.93827000000E+00  0.93827000000E+00 0. -1.
     999902    2    1    2    0    0  0.69991998758E-02  0.65920958994E-03  0.23052448873E-01  0.10198294034E+01  0.10195445911E+01 0.  0.
     999903    2    3    3    0    0 -0.65983324503E-01  0.67399285837E-01  0.91113079643E-01  0.13167798835E+00  0.11875878485E-01 0.  0.
         14    1    1    2    0    0 -0.69991998758E-02 -0.65920958994E-03 -0.23052448873E-01  0.24100596574E-01  0.00000000000E+00 0. -1.
     999901    1    3    3    0    0  0.72982524379E-01 -0.66740076247E-01 -0.68060630770E-01  0.88815141508E+00  0.88000000000E+00 0. -1.
        -11    1    4    4    0    0 -0.12664736763E-01  0.69795270378E-02  0.13103580277E-01  0.19521124251E-01  0.51100000000E-03 0.  1.
         11    1    4    4    0    0 -0.53318587740E-01  0.60419758799E-01  0.78009499367E-01  0.11215686410E+00  0.51100000000E-03 0. -1.
</event>
<event>
 8    1  0.1064884E+005  0.1043930E+01  0.7957747E-01            NaN
         13   -1    0    0    0    0  0.00000000000E+00  0.00000000000E+00  0.74505805969E-08  0.10566000000E+00  0.10566000000E+00 0. -1.
     999900   -1    0    0    0    0 -0.00000000000E+00 -0.00000000000E+00 -0.74505805969E-08  0.93827000000E+00  0.93827000000E+00 0. -1.
     999902    2    1    2    0    0 -0.25032692213E-02 -0.24303096712E-01  0.17496135483E-02  0.10194357555E+01  0.10191414483E+01 0.  0.
     999903    2    3    3    0    0  0.30538939847E-01 -0.12543567818E+00  0.23803054307E-01  0.13275320753E+00  0.19750759636E-01 0.  0.
         14    1    1    2    0    0  0.25032692213E-02  0.24303096712E-01 -0.17496135483E-02  0.24494244511E-01  0.00000000000E+00 0.  1.
     999901    1    3    3    0    0 -0.33042209068E-01  0.10113258147E+00 -0.22053440759E-01  0.88668254796E+00  0.88000000000E+00 0.  1.
        -11    1    4    4    0    0  0.25284327509E-01 -0.69519627151E-01  0.80020718088E-02  0.74408131619E-01  0.51100000000E-03 0.  1.
         11    1    4    4    0    0  0.52546123380E-02 -0.55916051030E-01  0.15800982498E-01  0.58345075906E-01  0.51100000000E-03 0. -1.
</event>
<event>
 8    1  0.1064884E+005  0.1043930E+01  0.7957747E-01            NaN
         13   -1    0    0    0    0  0.00000000000E+00  0.00000000000E+00  0.74505805969E-08  0.10566000000E+00  0.10566000000E+00 0. -1.
     999900   -1    0    0    0    0 -0.00000000000E+00 -0.00000000000E+00 -0.74505805969E-08  0.93827000000E+00  0.93827000000E+00 0.  1.
     999902    2    1    2    0    0  0.13828270532E-01 -0.16669357760E-01  0.10557725638E-01  0.10198353092E+01  0.10195506382E+01 0.  0.
     999903    2    3    3    0    0 -0.96974097117E-01 -0.83006841983E-01  0.16982774709E-01  0.13038654297E+00  0.20448095849E-01 0.  0.
         14    1    1    2    0    0 -0.13828270532E-01  0.16669357760E-01 -0.10557725638E-01  0.24094690799E-01  0.00000000000E+00 0.  1.
     999901    1    3    3    0    0  0.11080236765E+00  0.66337484224E-01 -0.64250490714E-02  0.88944876623E+00  0.88000000000E+00 0. -1.
        -11    1    4    4    0    0 -0.21534949061E-01 -0.30543791521E-01  0.56672059817E-02  0.37802851430E-01  0.51100000000E-03 0. -1.
         11    1    4    4    0    0 -0.75439148055E-01 -0.52463050462E-01  0.11315568728E-01  0.92583691543E-01  0.51100000000E-03 0.  1.
</event>
<event>
 8    1  0.1064884E+005  0.1043930E+01  0.7957747E-01            NaN
         13   -1    0    0    0    0  0.00000000000E+00  0.00000000000E+00  0.74505805969E-08  0.10566000000E+00  0.10566000000E+00 0. -1.
     999900   -1    0    0    0    0 -0.00000000000E+00 -0.00000000000E+00 -0.74505805969E-08  0.93827000000E+00  0.93827000000E+00 0. -1.
     999902    2    1    2    0    0  0.19244239558E-01 -0.12654404468E-01  0.56686840358E-02  0.10202106263E+01  0.10199348574E+01 0.  0.
     999903    2    3    3    0    0  0.95881619489E-01 -0.78187205619E-01  0.47877996438E-01  0.13344715049E+00  0.14467734886E-01 0.  0.
         14    1    1    2    0    0 -0.19244239558E-01  0.12654404468E-01 -0.56686840358E-02  0.23719373670E-01  0.00000000000E+00 0.  1.
     999901    1    3    3    0    0 -0.76637379931E-01  0.65532801150E-01 -0.42209312402E-01  0.88676347584E+00  0.88000000000E+00 0.  1.
        -11    1    4    4    0    0  0.39292387886E-01 -0.30332965102E-01  0.26711660539E-01  0.56371574818E-01  0.51100000000E-03 0.  1.
         11    1    4    4    0    0  0.56589231603E-01 -0.47854240517E-01  0.21166335898E-01  0.77075575673E-01  0.51100000000E-03 0. -1.
</event>
<event>
 8    1  0.1064884E+005  0.1043930E+01  0.7957747E-01            NaN
         13   -1    0    0    0    0  0.00000000000E+00  0.00000000000E+00  0.74505805969E-08  0.10566000000E+00  0.10566000000E+00 0. -1.
     999900   -1    0    0    0    0 -0.00000000000E+00 -0.00000000000E+00 -0.74505805969E-08  0.93827000000E+00  0.93827000000E+00 0. -1.
     999902    2    1    2    0    0 -0.74449990782E-02 -0.10058082058E-01  0.20128117545E-01  0.10202290688E+01  0.10199537336E+01 0.  0.
     999903    2    3    3    0    0  0.19067348184E-01 -0.61292799328E-01  0.11457286259E+00  0.13329744192E+00  0.22823149775E-01 0.  0.
         14    1    1    2    0    0  0.74449990782E-02  0.10058082058E-01 -0.20128117545E-01  0.23700931244E-01  0.00000000000E+00 0. -1.
     999901    1    3    3    0    0 -0.26512347262E-01  0.51234717270E-01 -0.94444745041E-01  0.88693162683E+00  0.88000000000E+00 0. -1.
        -11    1    4    4    0    0  0.14777351901E-01 -0.59747693891E-01  0.95017851562E-01  0.11321135231E+00  0.51100000000E-03 0. -1.
         11    1    4    4    0    0  0.42899962829E-02 -0.15451054368E-02  0.19555011024E-01  0.20086089616E-01  0.51100000000E-03 0.  1.
</event>
<event>
 8    1  0.1064884E+005  0.1043930E+01  0.7957747E-01            NaN
         13   -1    0    0    0    0  0.00000000000E+00  0.00000000000E+00  0.74505805969E-08  0.10566000000E+00  0.10566000000E+00 0.  1.
     999900   -1    0    0    0    0 -0.00000000000E+00 -0.00000000000E+00 -0.74505805969E-08  0.93827000000E+00  0.93827000000E+00 0.  1.
     999902    2    1    2    0    0 -0.91086944750E-02 -0.16514406803E-01  0.23077837559E-02  0.10249294786E+01  0.10247533441E+01 0.  0.
     999903    2    3    3    0    0 -0.16445088788E-01 -0.55688875906E-01 -0.12091789346E+00  0.13545040116E+00  0.18814419205E-01 0.  0.
         14    1    1    2    0    0  0.91086944750E-02  0.16514406803E-01 -0.23077837559E-02  0.19000521386E-01  0.00000000000E+00 0. -1.
     999901    1    3    3    0    0  0.73363943129E-02  0.39174469103E-01  0.12322567721E+00  0.88947907746E+00  0.88000000000E+00 0. -1.
        -11    1    4    4    0    0 -0.15450694177E-01 -0.33375643208E-01 -0.57960408952E-01  0.68646395659E-01  0.51100000000E-03 0. -1.
         11    1    4    4    0    0 -0.99439461125E-03 -0.22313232697E-01 -0.62957484506E-01  0.66804005496E-01  0.51100000000E-03 0.  1.
</event>
<event>
 8    1  0.1064884E+005  0.1043930E+01  0.7957747E-01            NaN
         13   -1    0    0    0    0  0.00000000000E+00  0.00000000000E+00  0.74505805969E-08  0.10566000000E+00  0.10566000000E+00 0.  1.
     999900   -1    0    0    0    0 -0.00000000000E+00 -0.00000000000E+00 -0.74505805969E-08  0.93827000000E+00  0.93827000000E+00 0.  1.
     999902    2    1    2    0    0 -0.12560582761E-01  0.48988699167E-02  0.20122518688E-01  0.10197084616E+01  0.10194207491E+01 0.  0.
     999903    2    3    3    0    0 -0.11665200259E-01  0.11949643721E+00  0.50514842129E-01  0.13175739452E+00  0.19818837826E-01 0.  0.
         14    1    1    2    0    0  0.12560582761E-01 -0.48988699167E-02 -0.20122518688E-01  0.24221538434E-01  0.00000000000E+00 0. -1.
     999901    1    3    3    0    0 -0.89538250150E-03 -0.11459756729E+00 -0.30392323441E-01  0.88795106704E+00  0.88000000000E+00 0. -1.
        -11    1    4    4    0    0 -0.16067770308E-01  0.88946583089E-01  0.42403645874E-01  0.99839862732E-01  0.51100000000E-03 0. -1.
         11    1    4    4    0    0  0.44025700492E-02  0.30549854122E-01  0.81111962554E-02  0.31917531790E-01  0.51100000000E-03 0.  1.
</event>
<event>
 8    1  0.1064884E+005  0.1043930E+01  0.7957747E-01            NaN
         13   -1    0    0    0    0  0.00000000000E+00  0.00000000000E+00  0.74505805969E-08  0.10566000000E+00  0.10566000000E+00 0. -1.
     999900   -1    0    0    0    0 -0.00000000000E+00 -0.00000000000E+00 -0.74505805969E-08  0.93827000000E+00  0.93827000000E+00 0. -1.
     999902    2    1    2    0    0  0.74362589497E-03 -0.15860991311E-01 -0.16752901952E-01  0.10208478912E+01  0.10205869062E+01 0.  0.
     999903    2    3    3    0    0 -0.12224356619E+00 -0.30483259161E-01 -0.34151002133E-01  0.13200462374E+00  0.19652256327E-01 0.  0.
         14    1    1    2    0    0 -0.74362589497E-03  0.15860991311E-01  0.16752901952E-01  0.23082108843E-01  0.00000000000E+00 0.  1.
     999901    1    3    3    0    0  0.12298719209E+00  0.14622267850E-01  0.17398100181E-01  0.88884326741E+00  0.88000000000E+00 0. -1.
        -11    1    4    4    0    0 -0.10674455235E+00 -0.29913193250E-01 -0.35563396909E-01  0.11642257044E+00  0.51100000000E-03 0.  1.
         11    1    4    4    0    0 -0.15499013842E-01 -0.57006591036E-03  0.14123947757E-02  0.15582053305E-01  0.51100000000E-03 0. -1.
</event>
<event>
 8    1  0.1064884E+005  0.1043930E+01  0.7957747E-01            NaN
         13   -1    0    0    0    0  0.00000000000E+00  0.00000000000E+00  0.74505805969E-08  0.10566000000E+00  0.10566000000E+00 0.  1.
     999900   -1    0    0    0    0 -0.00000000000E+00 -0.00000000000E+00 -0.74505805969E-08  0.93827000000E+00  0.93827000000E+00 0.  1.
     999902    2    1    2    0    0 -0.62280821434E-03  0.13978957510E-01 -0.20893111251E-01  0.10187840015E+01  0.10184736229E+01 0.  0.
     999903    2    3    3    0    0 -0.69769075090E-01 -0.74405637798E-01 -0.77848550693E-01  0.12983126653E+00  0.19794902114E-01 0.  0.
         14    1    1    2    0    0  0.62280821434E-03 -0.13978957510E-01  0.20893111251E-01  0.25145998507E-01  0.00000000000E+00 0.  1.
     999901    1    3    3    0    0  0.69146266875E-01  0.88384595308E-01  0.56955439442E-01  0.88895273496E+00  0.88000000000E+00 0.  1.
        -11    1    4    4    0    0 -0.62979297491E-01 -0.57802580637E-01 -0.68808245849E-01  0.10973771484E+00  0.51100000000E-03 0.  1.
         11    1    4    4    0    0 -0.67897775981E-02 -0.16603057161E-01 -0.90403048437E-02  0.20093551692E-01  0.51100000000E-03 0. -1.
</event>
<event>
 8    1  0.1064884E+005  0.1043930E+01  0.7957747E-01            NaN
         13   -1    0    0    0    0  0.00000000000E+00  0.00000000000E+00  0.74505805969E-08  0.10566000000E+00  0.10566000000E+00 0. -1.
     999900   -1    0    0    0    0 -0.00000000000E+00 -0.00000000000E+00 -0.74505805969E-08  0.93827000000E+00  0.93827000000E+00 0.  1.
     999902    2    1    2    0    0 -0.18639997074E-01  0.12389979673E-01  0.83557720726E-02  0.10200389972E+01  0.10197591754E+01 0.  0.
     999903    2    3    3    0    0  0.21068217029E-01  0.17385549306E-02  0.12781642380E+00  0.13101647645E+00  0.19529120988E-01 0.  0.
         14    1    1    2    0    0  0.18639997074E-01 -0.12389979673E-01 -0.83557720726E-02  0.23891002787E-01  0.00000000000E+00 0. -1.
     999901    1    3    3    0    0 -0.39708214104E-01  0.10651424743E-01 -0.11946065172E+00  0.88902252076E+00  0.88000000000E+00 0. -1.
        -11    1    4    4    0    0  0.83995999094E-02  0.46849773083E-02  0.98131762587E-01  0.98603277027E-01  0.51100000000E-03 0.  1.
         11    1    4    4    0    0  0.12668617120E-01 -0.29464223777E-02  0.29684661210E-01  0.32413199421E-01  0.51100000000E-03 0. -1.
</event>
<event>
 8    1  0.1064884E+005  0.1043930E+01  0.7957747E-01            NaN
         13   -1    0    0    0    0  0.00000000000E+00  0.00000000000E+00  0.74505805969E-08  0.10566000000E+00  0.10566000000E+00 0.  1.
     999900   -1    0    0    0    0 -0.00000000000E+00 -0.00000000000E+00 -0.74505805969E-08  0.93827000000E+00  0.93827000000E+00 0.  1.
     999902    2    1    2    0    0 -0.10047398331E-03 -0.23306005781E-01 -0.35752932493E-02  0.10203511382E+01  0.10200786649E+01 0.  0.
     999903    2    3    3    0    0 -0.30775579647E-01 -0.45142347542E-01 -0.11863021954E+00  0.13206322095E+00  0.19560099543E-01 0.  0.
         14    1    1    2    0    0  0.10047398331E-03  0.23306005781E-01  0.35752932493E-02  0.23578861769E-01  0.00000000000E+00 0.  1.
     999901    1    3    3    0    0  0.30675105664E-01  0.21836341761E-01  0.11505492629E+00  0.88828791728E+00  0.88000000000E+00 0. -1.
        -11    1    4    4    0    0 -0.11886522560E-01 -0.96921947268E-02 -0.17664063667E-01  0.23398895774E-01  0.51100000000E-03 0.  1.
         11    1    4    4    0    0 -0.18889057087E-01 -0.35450152815E-01 -0.10096615587E+00  0.10866432517E+00  0.51100000000E-03 0. -1.
</event>
<event>
 8    1  0.1064884E+005  0.1043930E+01  0.7957747E-01            NaN
         13   -1    0    0    0    0  0.00000000000E+00  0.00000000000E+00  0.74505805969E-08  0.10566000000E+00  0.10566000000E+00 0.  1.
     999900   -1    0    0    0    0 -0.00000000000E+00 -0.00000000000E+00 -0.74505805969E-08  0.93827000000E+00  0.93827000000E+00 0. -1.
     999902    2    1    2    0    0 -0.12475813707E-01 -0.12969278231E-01  0.14896386787E-01  0.10205686977E+01  0.10203012870E+01 0.  0.
     999903    2    3    3    0    0 -0.73204956544E-03 -0.16758034848E-01  0.13034831073E+00  0.13294185189E+00  0.20037121699E-01 0.  0.
         14    1    1    2    0    0  0.12475813707E-01  0.12969278231E-01 -0.14896386787E-01  0.23361302293E-01  0.00000000000E+00 0. -1.
     999901    1    3    3    0    0 -0.11743764141E-01  0.37887566172E-02 -0.11545192394E+00  0.88762684582E+00  0.88000000000E+00 0. -1.
        -11    1    4    4    0    0 -0.97964366466E-02 -0.13044588407E-01  0.81998162917E-01  0.83606765877E-01  0.51100000000E-03 0. -1.
         11    1    4    4    0    0  0.90643870812E-02 -0.37134464409E-02  0.48350147811E-01  0.49335086014E-01  0.51100000000E-03 0.  1.
</event>
<event>
 8    1  0.1064884E+005  0.1043930E+01  0.7957747E-01            NaN
         13   -1    0    0    0    0  0.00000000000E+00  0.00000000000E+00  0.74505805969E-08  0.10566000000E+00  0.10566000000E+00 0.  1.
     999900   -1    0    0    0    0 -0.00000000000E+00 -0.00000000000E+00 -0.74505805969E-08  0.93827000000E+00  0.93827000000E+00 0. -1.
     999902    2    1    2    0    0  0.75697926484E-02  0.22117774235E-01 -0.18322274814E-02  0.10204810180E+01  0.10202115729E+01 0.  0.
     999903    2    3    3    0    0 -0.80150773400E-01  0.61725151381E-01 -0.81877172455E-01  0.13162172925E+00  0.19653688013E-01 0.  0.
         14    1    1    2    0    0 -0.75697926484E-02 -0.22117774235E-01  0.18322274814E-02  0.23448981969E-01  0.00000000000E+00 0.  1.
     999901    1    3    3    0    0  0.87720566048E-01 -0.39607377146E-01  0.80044944974E-01  0.88885928878E+00  0.88000000000E+00 0.  1.
        -11    1    4    4    0    0 -0.42287670275E-01  0.40891494208E-01 -0.37997747858E-01  0.70031787919E-01  0.51100000000E-03 0. -1.
         11    1    4    4    0    0 -0.37863103125E-01  0.20833657173E-01 -0.43879424597E-01  0.61589941333E-01  0.51100000000E-03 0.  1.
</event>
<event>
 8    1  0.1064884E+005  0.1043930E+01  0.7957747E-01            NaN
         13   -1    0    0    0    0  0.00000000000E+00  0.00000000000E+00  0.74505805969E-08  0.10566000000E+00  0.10566000000E+00 0. -1.
     999900   -1    0    0    0    0 -0.00000000000E+00 -0.00000000000E+00 -0.74505805969E-08  0.93827000000E+00  0.93827000000E+00 0. -1.
     999902    2    1    2    0    0  0.12923318734E-01  0.21703513141E-01  0.53523142485E-02  0.10181094284E+01  0.10177819542E+01 0.  0.
     999903    2    3    3    0    0 -0.17984388667E-01  0.98243919631E-01  0.82401831931E-01  0.13089448918E+00  0.19183310784E-01 0.  0.
         14    1    1    2    0    0 -0.12923318734E-01 -0.21703513141E-01 -0.53523142485E-02  0.25820571597E-01  0.00000000000E+00 0. -1.
     999901    1    3    3    0    0  0.30907707401E-01 -0.76540406490E-01 -0.77049517682E-01  0.88721493922E+00  0.88000000000E+00 0. -1.
        -11    1    4    4    0    0 -0.21027616498E-01  0.94267696175E-01  0.79411508542E-01  0.12504002562E+00  0.51100000000E-03 0.  1.
         11    1    4    4    0    0  0.30432278315E-02  0.39762234561E-02  0.29903233882E-02  0.58544635598E-02  0.51100000000E-03 0. -1.
</event>
<event>
 8    1  0.1064884E+005  0.1043930E+01  0.7957747E-01            NaN
         13   -1    0    0    0    0  0.00000000000E+00  0.00000000000E+00  0.74505805969E-08  0.10566000000E+00  0.10566000000E+00 0. -1.
     999900   -1    0    0    0    0 -0.00000000000E+00 -0.00000000000E+00 -0.74505805969E-08  0.93827000000E+00  0.93827000000E+00 0.  1.
     999902    2    1    2    0    0 -0.22436167817E-01  0.35478419669E-02 -0.53148284674E-02  0.10206015579E+01  0.10203349077E+01 0.  0.
     999903    2    3    3    0    0 -0.48370177657E-01  0.93230443500E-01  0.78271652946E-01  0.13172460255E+00  0.13904300794E-01 0.  0.
         14    1    1    2    0    0  0.22436167817E-01 -0.35478419669E-02  0.53148284674E-02  0.23328442095E-01  0.00000000000E+00 0. -1.
     999901    1    3    3    0    0  0.25934009840E-01 -0.89682601533E-01 -0.83586481414E-01  0.88887695535E+00  0.88000000000E+00 0. -1.
        -11    1    4    4    0    0 -0.42290522787E-01  0.82779448152E-01  0.74252280685E-01  0.11897305435E+00  0.51100000000E-03 0.  1.
         11    1    4    4    0    0 -0.60796548701E-02  0.10450995348E-01  0.40193722614E-02  0.12751548199E-01  0.51100000000E-03 0. -1.
</event>
<event>
 8    1  0.1064884E+005  0.1043930E+01  0.7957747E-01            NaN
         13   -1    0    0    0    0  0.00000000000E+00  0.00000000000E+00  0.74505805969E-08  0.10566000000E+00  0.10566000000E+00 0.  1.
     999900   -1    0    0    0    0 -0.00000000000E+00 -0.00000000000E+00 -0.74505805969E-08  0.93827000000E+00  0.93827000000E+00 0.  1.
     999902    2    1    2    0    0 -0.67798529060E-02 -0.15625174999E-01  0.13964849009E-01  0.10219043443E+01  0.10216669514E+01 0.  0.
     999903    2    3    3    0    0  0.83395223567E-01  0.63249601021E-01  0.77127700049E-01  0.13154356328E+00  0.19993788587E-01 0.  0.
         14    1    1    2    0    0  0.67798529060E-02  0.15625174999E-01 -0.13964849009E-01  0.22025655655E-01  0.00000000000E+00 0. -1.
     999901    1    3    3    0    0 -0.90175076473E-01 -0.78874776021E-01 -0.63162851040E-01  0.89036078107E+00  0.88000000000E+00 0.  1.
        -11    1    4    4    0    0  0.44234452420E-01  0.37566458846E-01  0.30952154066E-01  0.65774026587E-01  0.51100000000E-03 0. -1.
         11    1    4    4    0    0  0.39160771147E-01  0.25683142176E-01  0.46175545984E-01  0.65769536692E-01  0.51100000000E-03 0.  1.
</event>
<event>
 8    1  0.1064884E+005  0.1043930E+01  0.7957747E-01            NaN
         13   -1    0    0    0    0  0.00000000000E+00  0.00000000000E+00  0.74505805969E-08  0.10566000000E+00  0.10566000000E+00 0.  1.
     999900   -1    0    0    0    0 -0.00000000000E+00 -0.00000000000E+00 -0.74505805969E-08  0.93827000000E+00  0.93827000000E+00 0. -1.
     999902    2    1    2    0    0 -0.76992730900E-02  0.55373915578E-02 -0.21683458258E-01  0.10202632750E+01  0.10199887433E+01 0.  0.
     999903    2    3    3    0    0 -0.12594082437E+00  0.29689495532E-01  0.10873623037E-01  0.13143013421E+00  0.20324544613E-01 0.  0.
         14    1    1    2    0    0  0.76992730900E-02 -0.55373915578E-02  0.21683458258E-01  0.23666725025E-01  0.00000000000E+00 0.  1.
     999901    1    3    3    0    0  0.11824155128E+00 -0.24152103974E-01 -0.32557081295E-01  0.88883314076E+00  0.88000000000E+00 0.  1.
        -11    1    4    4    0    0 -0.67109464975E-01  0.17157745250E-01 -0.42645258581E-02  0.69401122564E-01  0.51100000000E-03 0.  1.
         11    1    4    4    0    0 -0.58831359393E-01  0.12531750282E-01  0.15138148896E-01  0.62029011649E-01  0.51100000000E-03 0. -1.
</event>
<event>
 8    1  0.1064884E+005  0.1043930E+01  0.7957747E-01            NaN
         13   -1    0    0    0    0  0.00000000000E+00  0.00000000000E+00  0.74505805969E-08  0.10566000000E+00  0.10566000000E+00 0.  1.
     999900   -1    0    0    0    0 -0.00000000000E+00 -0.00000000000E+00 -0.74505805969E-08  0.93827000000E+00  0.93827000000E+00 0. -1.
     999902    2    1    2    0    0 -0.12578705282E-01  0.96422278947E-03  0.19168758630E-01  0.10209823452E+01  0.10207244263E+01 0.  0.
     999903    2    3    3    0    0  0.51534840068E-01  0.11045437345E+00  0.43428831252E-01  0.13155152110E+00  0.23743019273E-01 0.  0.
         14    1    1    2    0    0  0.12578705282E-01 -0.96422278947E-03 -0.19168758630E-01  0.22947654772E-01  0.00000000000E+00 0. -1.
     999901    1    3    3    0    0 -0.64113545350E-01 -0.10949015066E+00 -0.24260072622E-01  0.88943082413E+00  0.88000000000E+00 0.  1.
        -11    1    4    4    0    0  0.16845915659E-01  0.19795115314E-01  0.16585511795E-01  0.30837830455E-01  0.51100000000E-03 0. -1.
         11    1    4    4    0    0  0.34688924409E-01  0.90659258136E-01  0.26843319456E-01  0.10071369064E+00  0.51100000000E-03 0.  1.
</event>
<event>
 8    1  0.1064884E+005  0.1043930E+01  0.7957747E-01            NaN
         13   -1    0    0    0    0  0.00000000000E+00  0.00000000000E+00  0.74505805969E-08  0.10566000000E+00  0.10566000000E+00 0.  1.
     999900   -1    0    0    0    0 -0.00000000000E+00 -0.00000000000E+00 -0.74505805969E-08  0.93827000000E+00  0.93827000000E+00 0. -1.
     999902    2    1    2    0    0 -0.58545004713E-02 -0.21877205924E-01  0.55145954946E-02  0.10206212446E+01  0.10203550494E+01 0.  0.
     999903    2    3    3    0    0  0.11275716072E+00 -0.37448220825E-01 -0.50806495915E-01  0.13074302371E+00  0.19897027078E-01 0.  0.
         14    1    1    2    0    0  0.58545004713E-02  0.21877205924E-01 -0.55145954946E-02  0.23308755399E-01  0.00000000000E+00 0. -1.
     999901    1    3    3    0    0 -0.11861166119E+00  0.15571014901E-01  0.56321091410E-01  0.88987822089E+00  0.88000000000E+00 0.  1.
        -11    1    4    4    0    0  0.32512186554E-01 -0.15096721482E-01 -0.24364930549E-01  0.43345867573E-01  0.51100000000E-03 0. -1.
         11    1    4    4    0    0  0.80244974162E-01 -0.22351499343E-01 -0.26441565366E-01  0.87397156139E-01  0.51100000000E-03 0.  1.
</event>
<event>
 8    1  0.1064884E+005  0.1043930E+01  0.7957747E-01            NaN
         13   -1    0    0    0    0  0.00000000000E+00  0.00000000000E+00  0.74505805969E-08  0.10566000000E+00  0.10566000000E+00 0.  1.
     999900   -1    0    0    0    0 -0.00000000000E+00 -0.00000000000E+00 -0.74505805969E-08  0.93827000000E+00  0.93827000000E+00 0.  1.
     999902    2    1    2    0    0 -0.12565033926E-01 -0.17421498204E-01 -0.10539976269E-01  0.10200034504E+01  0.10197227854E+01 0.  0.
     999903    2    3    3    0    0 -0.22664455479E-01 -0.12886267430E+00  0.10050046753E-01  0.13267877299E+00  0.19580270476E-01 0.  0.
         14    1    1    2    0    0  0.12565033926E-01  0.17421498204E-01  0.10539976269E-01  0.23926549625E-01  0.00000000000E+00 0. -1.
     999901    1    3    3    0    0  0.10099421553E-01  0.11144117610E+00 -0.20590023022E-01  0.88732467738E+00  0.88000000000E+00 0. -1.
        -11    1    4    4    0    0 -0.61384212993E-02 -0.77286822159E-01  0.12143351239E-01  0.78477099818E-01  0.51100000000E-03 0. -1.
         11    1    4    4    0    0 -0.16526034179E-01 -0.51575852144E-01 -0.20933044861E-02  0.54201673173E-01  0.51100000000E-03 0.  1.
</event>
<event>
 8    1  0.1064884E+005  0.1043930E+01  0.7957747E-01            NaN
         13   -1    0    0    0    0  0.00000000000E+00  0.00000000000E+00  0.74505805969E-08  0.10566000000E+00  0.10566000000E+00 0.  1.
     999900   -1    0    0    0    0 -0.00000000000E+00 -0.00000000000E+00 -0.74505805969E-08  0.93827000000E+00  0.93827000000E+00 0. -1.
     999902    2    1    2    0    0  0.38944466455E-03  0.85403264735E-02 -0.19258728471E-01  0.10228589899E+01  0.10226419343E+01 0.  0.
     999903    2    3    3    0    0  0.64749708198E-01  0.43932151680E-01 -0.10830972290E+00  0.13532031222E+00  0.21401685927E-01 0.  0.
         14    1    1    2    0    0 -0.38944466455E-03 -0.85403264735E-02  0.19258728471E-01  0.21071010079E-01  0.00000000000E+00 0.  1.
     999901    1    3    3    0    0 -0.64360263534E-01 -0.35391825206E-01  0.89050994429E-01  0.88753867770E+00  0.88000000000E+00 0.  1.
        -11    1    4    4    0    0  0.49793456121E-01  0.26703156624E-01 -0.63263133900E-01  0.84822945469E-01  0.51100000000E-03 0.  1.
         11    1    4    4    0    0  0.14956252077E-01  0.17228995056E-01 -0.45046589000E-01  0.50497366747E-01  0.51100000000E-03 0. -1.
</event>
<event>
 8    1  0.1064884E+005  0.1043930E+01  0.7957747E-01            NaN
         13   -1    0    0    0    0  0.00000000000E+00  0.00000000000E+00  0.74505805969E-08  0.10566000000E+00  0.10566000000E+00 0. -1.
     999900   -1    0    0    0    0 -0.00000000000E+00 -0.00000000000E+00 -0.74505805969E-08  0.93827000000E+00  0.93827000000E+00 0.  1.
     999902    2    1    2    0    0  0.21836198214E-01 -0.69242984461E-02 -0.79142402324E-02  0.10196936500E+01  0.10194055813E+01 0.  0.
     999903    2    3    3    0    0 -0.10429910053E+00  0.24117257284E-01 -0.68047083440E-01  0.12812780804E+00  0.18066132922E-01 0.  0.
         14    1    1    2    0    0 -0.21836198214E-01  0.69242984461E-02  0.79142402324E-02  0.24236349970E-01  0.00000000000E+00 0. -1.
     999901    1    3    3    0    0  0.12613529874E+00 -0.31041555731E-01  0.60132843208E-01  0.89156584199E+00  0.88000000000E+00 0. -1.
        -11    1    4    4    0    0 -0.75625394011E-01  0.11391920708E-01 -0.54719456208E-01  0.94039651666E-01  0.51100000000E-03 0.  1.
         11    1    4    4    0    0 -0.28673706516E-01  0.12725336577E-01 -0.13327627233E-01  0.34088156375E-01  0.51100000000E-03 0. -1.
</event>
<event>
 8    1  0.1064884E+005  0.1043930E+01  0.7957747E-01            NaN
         13   -1    0    0    0    0  0.00000000000E+00  0.00000000000E+00  0.74505805969E-08  0.10566000000E+00  0.10566000000E+00 0. -1.
     999900   -1    0    0    0    0 -0.00000000000E+00 -0.00000000000E+00 -0.74505805969E-08  0.93827000000E+00  0.93827000000E+00 0. -1.
     999902    2    1    2    0    0  0.17415127002E-01 -0.11831021291E-01  0.58917104718E-02  0.10220674300E+01  0.10218335772E+01 0.  0.
     999903    2    3    3    0    0 -0.12696029254E+00 -0.16601102364E-01 -0.12514254817E-01  0.13010005675E+00  0.19362482023E-01 0.  0.
         14    1    1    2    0    0 -0.17415127002E-01  0.11831021291E-01 -0.58917104718E-02  0.21862569967E-01  0.00000000000E+00 0.  1.
     999901    1    3    3    0    0  0.14437541955E+00  0.47700810724E-02  0.18405965289E-01  0.89196737328E+00  0.88000000000E+00 0. -1.
        -11    1    4    4    0    0 -0.11181188412E+00 -0.16321957574E-01 -0.17048406683E-01  0.11427691377E+00  0.51100000000E-03 0.  1.
         11    1    4    4    0    0 -0.15148408424E-01 -0.27914478990E-03  0.45341518659E-02  0.15823142980E-01  0.51100000000E-03 0. -1.
</event>
<event>
 8    1  0.1064884E+005  0.1043930E+01  0.7957747E-01            NaN
         13   -1    0    0    0    0  0.00000000000E+00  0.00000000000E+00  0.74505805969E-08  0.10566000000E+00  0.10566000000E+00 0.  1.
     999900   -1    0    0    0    0 -0.00000000000E+00 -0.00000000000E+00 -0.74505805969E-08  0.93827000000E+00  0.93827000000E+00 0. -1.
     999902    2    1    2    0    0 -0.11580908783E-02  0.23681670036E-01  0.14135856320E-02  0.10201779286E+01  0.10199013899E+01 0.  0.
     999903    2    3    3    0    0  0.76629488028E-01 -0.82496000668E-01  0.58590487047E-01  0.12855367860E+00  0.20384664493E-01 0.  0.
         14    1    1    2    0    0  0.11580908783E-02 -0.23681670036E-01 -0.14135856320E-02  0.23752071373E-01  0.00000000000E+00 0.  1.
     999901    1    3    3    0    0 -0.77787578906E-01  0.10617767070E+00 -0.57176901415E-01  0.89162425003E+00  0.88000000000E+00 0. -1.
        -11    1    4    4    0    0  0.30661285744E-01 -0.31124066706E-01  0.33993682765E-01  0.55359313225E-01  0.51100000000E-03 0. -1.
         11    1    4    4    0    0  0.45968202284E-01 -0.51371933962E-01  0.24596804282E-01  0.73194365371E-01  0.51100000000E-03 0.  1.
</event>
<event>
 8    1  0.1064884E+005  0.1043930E+01  0.7957747E-01            NaN
         13   -1    0    0    0    0  0.00000000000E+00  0.00000000000E+00  0.74505805969E-08  0.10566000000E+00  0.10566000000E+00 0.  1.
     999900   -1    0    0    0    0 -0.00000000000E+00 -0.00000000000E+00 -0.74505805969E-08  0.93827000000E+00  0.93827000000E+00 0. -1.
     999902    2    1    2    0    0 -0.52226769784E-02  0.16246711340E-01  0.15173463166E-01  0.10210943706E+01  0.10208389921E+01 0.  0.
     999903    2    3    3    0    0  0.29895256516E-02  0.13125320519E+00  0.14542985596E-01  0.13357291658E+00  0.19846523090E-01 0.  0.
         14    1    1    2    0    0  0.52226769784E-02 -0.16246711340E-01 -0.15173463166E-01  0.22835629368E-01  0.00000000000E+00 0. -1.
     999901    1    3    3    0    0 -0.82122026300E-02 -0.11500649385E+00  0.63047756911E-03  0.88752145405E+00  0.88000000000E+00 0.  1.
        -11    1    4    4    0    0 -0.40603079044E-02  0.10708449247E+00  0.74968511405E-02  0.10742457133E+00  0.51100000000E-03 0.  1.
         11    1    4    4    0    0  0.70498335561E-02  0.24168712718E-01  0.70461344559E-02  0.26148345252E-01  0.51100000000E-03 0. -1.
</event>
<event>
 8    1  0.1064884E+005  0.1043930E+01  0.7957747E-01            NaN
         13   -1    0    0    0    0  0.00000000000E+00  0.00000000000E+00  0.74505805969E-08  0.10566000000E+00  0.10566000000E+00 0.  1.
     999900   -1    0    0    0    0 -0.00000000000E+00 -0.00000000000E+00 -0.74505805969E-08  0.93827000000E+00  0.93827000000E+00 0.  1.
     999902    2    1    2    0    0  0.17544176833E-01 -0.12940325904E-01  0.99951965065E-02  0.10199476288E+01  0.10196656370E+01 0.  0.
     999903    2    3    3    0    0  0.72047768283E-01 -0.98297802330E-01 -0.47288431866E-01  0.13228893631E+00  0.20268893049E-01 0.  0.
         14    1    1    2    0    0 -0.17544176833E-01  0.12940325904E-01 -0.99951965065E-02  0.23982371202E-01  0.00000000000E+00 0.  1.
     999901    1    3    3    0    0 -0.54503591450E-01  0.85357476426E-01  0.57283628372E-01  0.88765869248E+00  0.88000000000E+00 0. -1.
        -11    1    4    4    0    0  0.39884654437E-01 -0.69795439970E-01 -0.34202855549E-01  0.87362952954E-01  0.51100000000E-03 0.  1.
         11    1    4    4    0    0  0.32163113845E-01 -0.28502362360E-01 -0.13085576316E-01  0.44925983360E-01  0.51100000000E-03 0. -1.
</event>
<event>
 8    1  0.1064884E+005  0.1043930E+01  0.7957747E-01            NaN
         13   -1    0    0    0    0  0.00000000000E+00  0.00000000000E+00  0.74505805969E-08  0.10566000000E+00  0.10566000000E+00 0. -1.
     999900   -1    0    0    0    0 -0.00000000000E+00 -0.00000000000E+00 -0.74505805969E-08  0.93827000000E+00  0.93827000000E+00 0.  1.
     999902    2    1    2    0    0  0.41492560237E-02  0.21692211831E-01 -0.16012570086E-01  0.10166505062E+01  0.10162844489E+01 0.  0.
     999903    2    3    3    0    0  0.44174496522E-01  0.12000825414E+00 -0.15021469215E-01  0.13027076462E+00  0.19785357534E-01 0.  0.
         14    1    1    2    0    0 -0.41492560237E-02 -0.21692211831E-01  0.16012570086E-01  0.27279493772E-01  0.00000000000E+00 0.  1.
     999901    1    3    3    0    0 -0.40025240498E-01 -0.98316042309E-01 -0.99110087128E-03  0.88637974161E+00  0.88000000000E+00 0. -1.
        -11    1    4    4    0    0  0.45063400917E-02  0.38191156598E-01 -0.35733932063E-02  0.38625144703E-01  0.51100000000E-03 0. -1.
         11    1    4    4    0    0  0.39668156430E-01  0.81817097542E-01 -0.11448076008E-01  0.91645619917E-01  0.51100000000E-03 0.  1.
</event>
<event>
 8    1  0.1064884E+005  0.1043930E+01  0.7957747E-01            NaN
         13   -1    0    0    0    0  0.00000000000E+00  0.00000000000E+00  0.74505805969E-08  0.10566000000E+00  0.10566000000E+00 0. -1.
     999900   -1    0    0    0    0 -0.00000000000E+00 -0.00000000000E+00 -0.74505805969E-08  0.93827000000E+00  0.93827000000E+00 0.  1.
     999902    2    1    2    0    0  0.15806637115E-01 -0.75292975796E-02  0.15465548269E-01  0.10205692791E+01  0.10203018819E+01 0.  0.
     999903    2    3    3    0    0  0.23243511649E-01 -0.11459676921E+00  0.59924370291E-01  0.13293459214E+00  0.20198893186E-01 0.  0.
         14    1    1    2    0    0 -0.15806637115E-01  0.75292975796E-02 -0.15465548269E-01  0.23360720926E-01  0.00000000000E+00 0.  1.
     999901    1    3    3    0    0 -0.74368745340E-02  0.10706747163E+00 -0.44458822022E-01  0.88763468693E+00  0.88000000000E+00 0.  1.
        -11    1    4    4    0    0  0.25130878650E-01 -0.78104896126E-01  0.43521177745E-01  0.92877822400E-01  0.51100000000E-03 0.  1.
         11    1    4    4    0    0 -0.18873670008E-02 -0.36491873087E-01  0.16403192547E-01  0.40056769744E-01  0.51100000000E-03 0. -1.
</event>
<event>
 8    1  0.1064884E+005  0.1043930E+01  0.7957747E-01            NaN
         13   -1    0    0    0    0  0.00000000000E+00  0.00000000000E+00  0.74505805969E-08  0.10566000000E+00  0.10566000000E+00 0. -1.
     999900   -1    0    0    0    0 -0.00000000000E+00 -0.00000000000E+00 -0.74505805969E-08  0.93827000000E+00  0.93827000000E+00 0.  1.
     999902    2    1    2    0    0  0.11174737477E-01 -0.19512889420E-01  0.49056373972E-02  0.10209149421E+01  0.10206554885E+01 0.  0.
     999903    2    3    3    0    0  0.11262428699E+00  0.50103688552E-01  0.42006483592E-01  0.13158094872E+00  0.18825296146E-01 0.  0.
         14    1    1    2    0    0 -0.11174737477E-01  0.19512889420E-01 -0.49056373972E-02  0.23015057886E-01  0.00000000000E+00 0.  1.
     999901    1    3    3    0    0 -0.10144954951E+00 -0.69616577972E-01 -0.37100846195E-01  0.88933399340E+00  0.88000000000E+00 0.  1.
        -11    1    4    4    0    0  0.19102837395E-01  0.14665323371E-01  0.13369278382E-01  0.27549751933E-01  0.51100000000E-03 0.  1.
         11    1    4    4    0    0  0.93521449594E-01  0.35438365181E-01  0.28637205210E-01  0.10403119678E+00  0.51100000000E-03 0. -1.
</event>
<event>
 8    1  0.1064884E+005  0.1043930E+01  0.7957747E-01            NaN
         13   -1    0    0    0    0  0.00000000000E+00  0.00000000000E+00  0.74505805969E-08  0.10566000000E+00  0.10566000000E+00 0.  1.
     999900   -1    0    0    0    0 -0.00000000000E+00 -0.00000000000E+00 -0.74505805969E-08  0.93827000000E+00  0.93827000000E+00 0. -1.
     999902    2    1    2    0    0 -0.15599878230E-01  0.17000914437E-01 -0.53755286189E-02  0.10202385754E+01  0.10199634636E+01 0.  0.
     999903    2    3    3    0    0  0.24273855778E-01  0.67257983802E-01 -0.10890935617E+00  0.13184961714E+00  0.20253819820E-01 0.  0.
         14    1    1    2    0    0  0.15599878230E-01 -0.17000914437E-01  0.53755286189E-02  0.23691424618E-01  0.00000000000E+00 0.  1.
     999901    1    3    3    0    0 -0.39873734008E-01 -0.50257069366E-01  0.10353382756E+00  0.88838895825E+00  0.88000000000E+00 0.  1.
        -11    1    4    4    0    0  0.20321685671E-01  0.66284076752E-01 -0.96823712085E-01  0.11908669985E+00  0.51100000000E-03 0. -1.
         11    1    4    4    0    0  0.39521701065E-02  0.97390705033E-03 -0.12085644089E-01  0.12762917281E-01  0.51100000000E-03 0.  1.
</event>
<event>
 8    1  0.1064884E+005  0.1043930E+01  0.7957747E-01            NaN
         13   -1    0    0    0    0  0.00000000000E+00  0.00000000000E+00  0.74505805969E-08  0.10566000000E+00  0.10566000000E+00 0. -1.
     999900   -1    0    0    0    0 -0.00000000000E+00 -0.00000000000E+00 -0.74505805969E-08  0.93827000000E+00  0.93827000000E+00 0. -1.
     999902    2    1    2    0    0 -0.17008218567E-01 -0.11718584551E-01 -0.10488144588E-01  0.10207652445E+01  0.10205023657E+01 0.  0.
     999903    2    3    3    0    0  0.11374086797E+00  0.39273607504E-01 -0.42445733687E-01  0.12907201538E+00  0.19456195733E-01 0.  0.
         14    1    1    2    0    0  0.17008218567E-01  0.11718584551E-01  0.10488144588E-01  0.23164755548E-01  0.00000000000E+00 0. -1.
     999901    1    3    3    0    0 -0.13074908653E+00 -0.50992192055E-01  0.31957589099E-01  0.89169322908E+00  0.88000000000E+00 0.  1.
        -11    1    4    4    0    0  0.55572213731E-01  0.10932298777E-01 -0.25911819024E-01  0.62285388188E-01  0.51100000000E-03 0. -1.
         11    1    4    4    0    0  0.58168654236E-01  0.28341308727E-01 -0.16533914663E-01  0.66786627188E-01  0.51100000000E-03 0.  1.
</event>
<event>
 8    1  0.1064884E+005  0.1043930E+01  0.7957747E-01            NaN
         13   -1    0    0    0    0  0.00000000000E+00  0.00000000000E+00  0.74505805969E-08  0.10566000000E+00  0.10566000000E+00 0.  1.
     999900   -1    0    0    0    0 -0.00000000000E+00 -0.00000000000E+00 -0.74505805969E-08  0.93827000000E+00  0.93827000000E+00 0.  1.
     999902    2    1    2    0    0  0.11048530175E-01  0.21632888869E-01 -0.47832829217E-02  0.10191725426E+01  0.10188717976E+01 0.  0.
     999903    2    3    3    0    0 -0.11186705075E+00 -0.52485180042E-01 -0.22707399441E-01  0.12736370542E+00  0.20903499714E-01 0.  0.
         14    1    1    2    0    0 -0.11048530175E-01 -0.21632888869E-01  0.47832829217E-02  0.24757457369E-01  0.00000000000E+00 0.  1.
     999901    1    3    3    0    0  0.12291558093E+00  0.74118068911E-01  0.17924116520E-01  0.89180883721E+00  0.88000000000E+00 0. -1.
        -11    1    4    4    0    0 -0.95345976776E-01 -0.40485108656E-01 -0.11936009513E-01  0.10427189820E+00  0.51100000000E-03 0.  1.
         11    1    4    4    0    0 -0.16521073979E-01 -0.12000071386E-01 -0.10771389928E-01  0.23091807220E-01  0.51100000000E-03 0. -1.
</event>
<event>
 8    1  0.1064884E+005  0.1043930E+01  0.7957747E-01            NaN
         13   -1    0    0    0    0  0.00000000000E+00  0.00000000000E+00  0.74505805969E-08  0.10566000000E+00  0.10566000000E+00 0. -1.
     999900   -1    0    0    0    0 -0.00000000000E+00 -0.00000000000E+00 -0.74505805969E-08  0.93827000000E+00  0.93827000000E+00 0. -1.
     999902    2    1    2    0    0 -0.10889011646E-01  0.20787334979E-01 -0.17270453791E-02  0.10203998798E+01  0.10201285449E+01 0.  0.
     999903    2    3    3    0    0 -0.12668789971E-01  0.31268701315E-01  0.12536092853E+00  0.13120677381E+00  0.19016444757E-01 0.  0.
         14    1    1    2    0    0  0.10889011646E-01 -0.20787334979E-01  0.17270453791E-02  0.23530120185E-01  0.00000000000E+00 0.  1.
     999901    1    3    3    0    0  0.17797783249E-02 -0.10481366336E-01 -0.12708797391E+00  0.88919310600E+00  0.88000000000E+00 0. -1.
        -11    1    4    4    0    0 -0.37516349848E-02  0.20674016809E-01  0.45082765328E-01  0.49741397113E-01  0.51100000000E-03 0.  1.
         11    1    4    4    0    0 -0.89171549866E-02  0.10594684506E-01  0.80278163201E-01  0.81465376699E-01  0.51100000000E-03 0. -1.
</event>
<event>
 8    1  0.1064884E+005  0.1043930E+01  0.7957747E-01            NaN
         13   -1    0    0    0    0  0.00000000000E+00  0.00000000000E+00  0.74505805969E-08  0.10566000000E+00  0.10566000000E+00 0.  1.
     999900   -1    0    0    0    0 -0.00000000000E+00 -0.00000000000E+00 -0.74505805969E-08  0.93827000000E+00  0.93827000000E+00 0. -1.
     999902    2    1    2    0    0  0.32185172147E-02 -0.99983011280E-02 -0.22053229958E-01  0.10195031740E+01  0.10192105042E+01 0.  0.
     999903    2    3    3    0    0  0.11252160585E+00 -0.62614552398E-01 -0.12382623262E-01  0.13112872830E+00  0.21441083713E-01 0.  0.
         14    1    1    2    0    0 -0.32185172147E-02  0.99983011280E-02  0.22053229958E-01  0.24426826034E-01  0.00000000000E+00 0.  1.
     999901    1    3    3    0    0 -0.10930308864E+00  0.52616251270E-01 -0.96706066965E-02  0.88837444567E+00  0.88000000000E+00 0.  1.
        -11    1    4    4    0    0  0.49881604052E-01 -0.22315529381E-01  0.42362838279E-02  0.54812083486E-01  0.51100000000E-03 0.  1.
         11    1    4    4    0    0  0.62640001798E-01 -0.40299023017E-01 -0.16618907090E-01  0.76316644811E-01  0.51100000000E-03 0. -1.
</event>
<event>
 8    1  0.1064884E+005  0.1043930E+01  0.7957747E-01            NaN
         13   -1    0    0    0    0  0.00000000000E+00  0.00000000000E+00  0.74505805969E-08  0.10566000000E+00  0.10566000000E+00 0. -1.
     999900   -1    0    0    0    0 -0.00000000000E+00 -0.00000000000E+00 -0.74505805969E-08  0.93827000000E+00  0.93827000000E+00 0.  1.
     999902    2    1    2    0    0 -0.23558301621E-01 -0.44931586467E-02 -0.34546787945E-03  0.10199445586E+01  0.10196624938E+01 0.  0.
     999903    2    3    3    0    0 -0.97085359696E-01  0.72074581107E-01  0.49465495567E-01  0.13216644495E+00  0.20020529717E-01 0.  0.
         14    1    1    2    0    0  0.23558301621E-01  0.44931586467E-02  0.34546787945E-03  0.23985441375E-01  0.00000000000E+00 0. -1.
     999901    1    3    3    0    0  0.73527058075E-01 -0.76567739753E-01 -0.49810963446E-01  0.88777811367E+00  0.88000000000E+00 0. -1.
        -11    1    4    4    0    0 -0.42579735219E-01  0.31395869400E-01  0.11028040607E-01  0.54042698557E-01  0.51100000000E-03 0. -1.
         11    1    4    4    0    0 -0.54505624477E-01  0.40678711707E-01  0.38437454960E-01  0.78123746394E-01  0.51100000000E-03 0.  1.
</event>
<event>
 8    1  0.1064884E+005  0.1043930E+01  0.7957747E-01            NaN
         13   -1    0    0    0    0  0.00000000000E+00  0.00000000000E+00  0.74505805969E-08  0.10566000000E+00  0.10566000000E+00 0. -1.
     999900   -1    0    0    0    0 -0.00000000000E+00 -0.00000000000E+00 -0.74505805969E-08  0.93827000000E+00  0.93827000000E+00 0. -1.
     999902    2    1    2    0    0 -0.33863648107E-01  0.39346315023E-02  0.42426892301E-02  0.10095755476E+01  0.10089908612E+01 0.  0.
     999903    2    3    3    0    0 -0.10091418306E+00  0.19828622071E-01  0.67553897361E-01  0.12461413474E+00  0.19705505115E-01 0.  0.
         14    1    1    2    0    0  0.33863648107E-01 -0.39346315023E-02 -0.42426892301E-02  0.34354452406E-01  0.00000000000E+00 0. -1.
     999901    1    3    3    0    0  0.67050534951E-01 -0.15893990569E-01 -0.63311208131E-01  0.88496141286E+00  0.88000000000E+00 0. -1.
        -11    1    4    4    0    0 -0.44182065220E-01  0.15816132084E-01  0.38747354155E-01  0.60859046133E-01  0.51100000000E-03 0. -1.
         11    1    4    4    0    0 -0.56732117838E-01  0.40124899868E-02  0.28806543206E-01  0.63755088603E-01  0.51100000000E-03 0.  1.
</event>
<event>
 8    1  0.1064884E+005  0.1043930E+01  0.7957747E-01            NaN
         13   -1    0    0    0    0  0.00000000000E+00  0.00000000000E+00  0.74505805969E-08  0.10566000000E+00  0.10566000000E+00 0.  1.
     999900   -1    0    0    0    0 -0.00000000000E+00 -0.00000000000E+00 -0.74505805969E-08  0.93827000000E+00  0.93827000000E+00 0. -1.
     999902    2    1    2    0    0  0.20609404937E-01 -0.80304738225E-02 -0.37879648887E-02  0.10214893057E+01  0.10212427806E+01 0.  0.
     999903    2    3    3    0    0 -0.11442977417E+00  0.49666041681E-01  0.25185398781E-01  0.12885056379E+00  0.20181044684E-01 0.  0.
         14    1    1    2    0    0 -0.20609404937E-01  0.80304738225E-02  0.37879648887E-02  0.22440694278E-01  0.00000000000E+00 0.  1.
     999901    1    3    3    0    0  0.13503917911E+00 -0.57696515504E-01 -0.28973363670E-01  0.89263874193E+00  0.88000000000E+00 0.  1.
        -11    1    4    4    0    0 -0.48153234110E-01  0.26762496300E-01  0.19711445776E-01  0.58512967615E-01  0.51100000000E-03 0.  1.
         11    1    4    4    0    0 -0.66276540060E-01  0.22903545382E-01  0.54739530045E-02  0.70337596176E-01  0.51100000000E-03 0. -1.
</event>
<event>
 8    1  0.1064884E+005  0.1043930E+01  0.7957747E-01            NaN
         13   -1    0    0    0    0  0.00000000000E+00  0.00000000000E+00  0.74505805969E-08  0.10566000000E+00  0.10566000000E+00 0.  1.
     999900   -1    0    0    0    0 -0.00000000000E+00 -0.00000000000E+00 -0.74505805969E-08  0.93827000000E+00  0.93827000000E+00 0. -1.
     999902    2    1    2    0    0 -0.47885307900E-02 -0.21365289557E-01 -0.90108865044E-02  0.10202529710E+01  0.10199781974E+01 0.  0.
     999903    2    3    3    0    0 -0.97027850742E-01 -0.86564828708E-01  0.16334946895E-01  0.13267115322E+00  0.20662309092E-01 0.  0.
         14    1    1    2    0    0  0.47885307900E-02  0.21365289557E-01  0.90108865044E-02  0.23677028965E-01  0.00000000000E+00 0.  1.
     999901    1    3    3    0    0  0.92239319952E-01  0.65199539151E-01 -0.25345833399E-01  0.88758181782E+00  0.88000000000E+00 0. -1.
        -11    1    4    4    0    0 -0.42447925576E-01 -0.24513865601E-01  0.60414494377E-02  0.49391459026E-01  0.51100000000E-03 0.  1.
         11    1    4    4    0    0 -0.54579925166E-01 -0.62050963108E-01  0.10293497457E-01  0.83279694191E-01  0.51100000000E-03 0. -1.
</event>
<event>
 8    1  0.1064884E+005  0.1043930E+01  0.7957747E-01            NaN
         13   -1    0    0    0    0  0.00000000000E+00  0.00000000000E+00  0.74505805969E-08  0.10566000000E+00  0.10566000000E+00 0.  1.
     999900   -1    0    0    0    0 -0.00000000000E+00 -0.00000000000E+00 -0.74505805969E-08  0.93827000000E+00  0.93827000000E+00 0.  1.
     999902    2    1    2    0    0  0.22964174436E-02  0.23503260977E-01  0.22368498944E-02  0.10202091166E+01  0.10199333122E+01 0.  0.
     999903    2    3    3    0    0 -0.78852555916E-01 -0.53913035890E-01  0.84895480072E-01  0.12924846205E+00  0.19328253725E-01 0.  0.
         14    1    1    2    0    0 -0.22964174436E-02 -0.23503260977E-01 -0.22368498944E-02  0.23720883354E-01  0.00000000000E+00 0. -1.
     999901    1    3    3    0    0  0.81148973359E-01  0.77416296867E-01 -0.82658630178E-01  0.89096065460E+00  0.88000000000E+00 0.  1.
        -11    1    4    4    0    0 -0.61398381720E-01 -0.31558861290E-01  0.62131288624E-01  0.92877775334E-01  0.51100000000E-03 0. -1.
         11    1    4    4    0    0 -0.17454174195E-01 -0.22354174600E-01  0.22764191447E-01  0.36370686715E-01  0.51100000000E-03 0.  1.
</event>
<event>
 8    1  0.1064884E+005  0.1043930E+01  0.7957747E-01            NaN
         13   -1    0    0    0    0  0.00000000000E+00  0.00000000000E+00  0.74505805969E-08  0.10566000000E+00  0.10566000000E+00 0.  1.
     999900   -1    0    0    0    0 -0.00000000000E+00 -0.00000000000E+00 -0.74505805969E-08  0.93827000000E+00  0.93827000000E+00 0. -1.
     999902    2    1    2    0    0 -0.66042896635E-02  0.21464703483E-01  0.52196097356E-02  0.10208736676E+01  0.10206132719E+01 0.  0.
     999903    2    3    3    0    0 -0.38217943049E-01  0.11092750527E+00  0.61451519127E-01  0.13398864484E+00  0.20276714355E-01 0.  0.
         14    1    1    2    0    0  0.66042896635E-02 -0.21464703483E-01 -0.52196097356E-02  0.23056332392E-01  0.00000000000E+00 0. -1.
     999901    1    3    3    0    0  0.31613653385E-01 -0.89462801789E-01 -0.56231909392E-01  0.88688502277E+00  0.88000000000E+00 0. -1.
        -11    1    4    4    0    0 -0.10845871370E-01  0.13668196736E-01  0.13926505269E-01  0.22330723181E-01  0.51100000000E-03 0. -1.
         11    1    4    4    0    0 -0.27372071679E-01  0.97259308536E-01  0.47525013858E-01  0.11165792165E+00  0.51100000000E-03 0.  1.
</event>
<event>
 8    1  0.1064884E+005  0.1043930E+01  0.7957747E-01            NaN
         13   -1    0    0    0    0  0.00000000000E+00  0.00000000000E+00  0.74505805969E-08  0.10566000000E+00  0.10566000000E+00 0. -1.
     999900   -1    0    0    0    0 -0.00000000000E+00 -0.00000000000E+00 -0.74505805969E-08  0.93827000000E+00  0.93827000000E+00 0.  1.
     999902    2    1    2    0    0 -0.82214454206E-02  0.13465574961E-01  0.18064059095E-01  0.10199461699E+01  0.10196641435E+01 0.  0.
     999903    2    3    3    0    0  0.24057064956E-02  0.68665554106E-01 -0.10768374101E+00  0.12923157856E+00  0.19602731307E-01 0.  0.
         14    1    1    2    0    0  0.82214454206E-02 -0.13465574961E-01 -0.18064059095E-01  0.23983830070E-01  0.00000000000E+00 0. -1.
     999901    1    3    3    0    0 -0.10627151916E-01 -0.55199979145E-01  0.12574780010E+00  0.89071459137E+00  0.88000000000E+00 0. -1.
        -11    1    4    4    0    0 -0.70852353669E-02  0.15522532294E-01 -0.31965890717E-01  0.36238499684E-01  0.51100000000E-03 0. -1.
         11    1    4    4    0    0  0.94909418625E-02  0.53143021812E-01 -0.75717850289E-01  0.92993078872E-01  0.51100000000E-03 0.  1.
</event>
<event>
 8    1  0.1064884E+005  0.1043930E+01  0.7957747E-01            NaN
         13   -1    0    0    0    0  0.00000000000E+00  0.00000000000E+00  0.74505805969E-08  0.10566000000E+00  0.10566000000E+00 0. -1.
     999900   -1    0    0    0    0 -0.00000000000E+00 -0.00000000000E+00 -0.74505805969E-08  0.93827000000E+00  0.93827000000E+00 0.  1.
     999902    2    1    2    0    0  0.10472354897E-01 -0.20482718363E-01 -0.17924923791E-02  0.10208556637E+01  0.10205948565E+01 0.  0.
     999903    2    3    3    0    0 -0.31648457609E-01 -0.12652557420E+00  0.18557672700E-01  0.13325587809E+00  0.20059811408E-01 0.  0.
         14    1    1    2    0    0 -0.10472354897E-01  0.20482718363E-01  0.17924923791E-02  0.23074336340E-01  0.00000000000E+00 0. -1.
     999901    1    3    3    0    0  0.42120812506E-01  0.10604285584E+00 -0.20350165079E-01  0.88759978557E+00  0.88000000000E+00 0. -1.
        -11    1    4    4    0    0 -0.21461436486E-01 -0.53287940133E-01  0.20226968619E-02  0.57485217607E-01  0.51100000000E-03 0.  1.
         11    1    4    4    0    0 -0.10187021123E-01 -0.73237634069E-01  0.16534975838E-01  0.75770660485E-01  0.51100000000E-03 0. -1.
</event>
<event>
 8    1  0.1064884E+005  0.1043930E+01  0.7957747E-01            NaN
         13   -1    0    0    0    0  0.00000000000E+00  0.00000000000E+00  0.74505805969E-08  0.10566000000E+00  0.10566000000E+00 0.  1.
     999900   -1    0    0    0    0 -0.00000000000E+00 -0.00000000000E+00 -0.74505805969E-08  0.93827000000E+00  0.93827000000E+00 0.  1.
     999902    2    1    2    0    0 -0.30180711297E-02 -0.10115129061E-01 -0.20536033846E-01  0.10208398879E+01  0.10205787199E+01 0.  0.
     999903    2    3    3    0    0 -0.88568366990E-01 -0.74219267702E-01 -0.62956165297E-01  0.13335599441E+00  0.21621451519E-01 0.  0.
         14    1    1    2    0    0  0.30180711297E-02  0.10115129061E-01  0.20536033846E-01  0.23090112069E-01  0.00000000000E+00 0.  1.
     999901    1    3    3    0    0  0.85550295860E-01  0.64104138642E-01  0.42420131451E-01  0.88748389352E+00  0.88000000000E+00 0.  1.
        -11    1    4    4    0    0 -0.25144402684E-01 -0.33264435319E-01 -0.27442674406E-01  0.49921189319E-01  0.51100000000E-03 0.  1.
         11    1    4    4    0    0 -0.63423964306E-01 -0.40954832383E-01 -0.35513490891E-01  0.83434805088E-01  0.51100000000E-03 0. -1.
</event>
<event>
 8    1  0.1064884E+005  0.1043930E+01  0.7957747E-01            NaN
         13   -1    0    0    0    0  0.00000000000E+00  0.00000000000E+00  0.74505805969E-08  0.10566000000E+00  0.10566000000E+00 0.  1.
     999900   -1    0    0    0    0 -0.00000000000E+00 -0.00000000000E+00 -0.74505805969E-08  0.93827000000E+00  0.93827000000E+00 0. -1.
     999902    2    1    2    0    0  0.23758886390E-02 -0.19795571576E-01  0.12937968601E-01  0.10201623638E+01  0.10198854582E+01 0.  0.
     999903    2    3    3    0    0  0.53047550445E-01  0.24196976322E-01  0.11608742333E+00  0.13160017033E+00  0.21042307480E-01 0.  0.
         14    1    1    2    0    0 -0.23758886390E-02  0.19795571576E-01 -0.12937968601E-01  0.23767636238E-01  0.00000000000E+00 0. -1.
     999901    1    3    3    0    0 -0.50671661805E-01 -0.43992547898E-01 -0.10314945473E+00  0.88856219343E+00  0.88000000000E+00 0. -1.
        -11    1    4    4    0    0  0.48342737150E-01  0.26509061480E-01  0.94772718073E-01  0.10964433313E+00  0.51100000000E-03 0.  1.
         11    1    4    4    0    0  0.47048132942E-02 -0.23120851572E-02  0.21314705259E-01  0.21955837201E-01  0.51100000000E-03 0. -1.
</event>
<event>
 8    1  0.1064884E+005  0.1043930E+01  0.7957747E-01            NaN
         13   -1    0    0    0    0  0.00000000000E+00  0.00000000000E+00  0.74505805969E-08  0.10566000000E+00  0.10566000000E+00 0.  1.
     999900   -1    0    0    0    0 -0.00000000000E+00 -0.00000000000E+00 -0.74505805969E-08  0.93827000000E+00  0.93827000000E+00 0.  1.
     999902    2    1    2    0    0  0.14410562633E-01 -0.18784307170E-01  0.11931064132E-02  0.10202247682E+01  0.10199493319E+01 0.  0.
     999903    2    3    3    0    0 -0.64408697449E-01  0.10770477616E+00  0.13015065983E-01  0.12761526642E+00  0.19169380921E-01 0.  0.
         14    1    1    2    0    0 -0.14410562633E-01  0.18784307170E-01 -0.11931064132E-02  0.23705231789E-01  0.00000000000E+00 0. -1.
     999901    1    3    3    0    0  0.78819260083E-01 -0.12648908333E+00 -0.11821959569E-01  0.89260950179E+00  0.88000000000E+00 0.  1.
        -11    1    4    4    0    0 -0.15471089274E-01  0.40018228679E-01  0.98786541793E-02  0.44030241418E-01  0.51100000000E-03 0. -1.
         11    1    4    4    0    0 -0.48937608175E-01  0.67686547485E-01  0.31364118034E-02  0.83585025000E-01  0.51100000000E-03 0.  1.
</event>
<event>
 8    1  0.1064884E+005  0.1043930E+01  0.7957747E-01            NaN
         13   -1    0    0    0    0  0.00000000000E+00  0.00000000000E+00  0.74505805969E-08  0.10566000000E+00  0.10566000000E+00 0.  1.
     999900   -1    0    0    0    0 -0.00000000000E+00 -0.00000000000E+00 -0.74505805969E-08  0.93827000000E+00  0.93827000000E+00 0. -1.
     999902    2    1    2    0    0  0.52759551781E-03 -0.46621260795E-02 -0.23564641364E-01  0.10199028050E+01  0.10196197456E+01 0.  0.
     999903    2    3    3    0    0 -0.44781356889E-01  0.11782991204E+00 -0.22287606771E-01  0.13026308501E+00  0.24134535552E-01 0.  0.
         14    1    1    2    0    0 -0.52759551781E-03  0.46621260795E-02  0.23564641364E-01  0.24027194993E-01  0.00000000000E+00 0.  1.
     999901    1    3    3    0    0  0.45308952407E-01 -0.12249203812E+00 -0.12770345930E-02  0.88963971999E+00  0.88000000000E+00 0. -1.
        -11    1    4    4    0    0 -0.15532779185E-01  0.54847250408E-01 -0.21166856740E-01  0.60809415815E-01  0.51100000000E-03 0. -1.
         11    1    4    4    0    0 -0.29248577704E-01  0.62982661630E-01 -0.11207500315E-02  0.69453669199E-01  0.51100000000E-03 0.  1.
</event>
<event>
 8    1  0.1064884E+005  0.1043930E+01  0.7957747E-01            NaN
         13   -1    0    0    0    0  0.00000000000E+00  0.00000000000E+00  0.74505805969E-08  0.10566000000E+00  0.10566000000E+00 0. -1.
     999900   -1    0    0    0    0 -0.00000000000E+00 -0.00000000000E+00 -0.74505805969E-08  0.93827000000E+00  0.93827000000E+00 0. -1.
     999902    2    1    2    0    0  0.22603331355E-01  0.46639795865E-02 -0.74008563309E-02  0.10196929216E+01  0.10194048354E+01 0.  0.
     999903    2    3    3    0    0 -0.90167332829E-01  0.66041539587E-01  0.58888338705E-01  0.12790893155E+00  0.20030613414E-01 0.  0.
         14    1    1    2    0    0 -0.22603331355E-01 -0.46639795865E-02  0.74008563309E-02  0.24237078379E-01  0.00000000000E+00 0.  1.
     999901    1    3    3    0    0  0.11277066418E+00 -0.61377560000E-01 -0.66289195036E-01  0.89178399007E+00  0.88000000000E+00 0.  1.
        -11    1    4    4    0    0 -0.54410423467E-01  0.34403829918E-01  0.23717919389E-01  0.68606985913E-01  0.51100000000E-03 0. -1.
         11    1    4    4    0    0 -0.35756909362E-01  0.31637709668E-01  0.35170419317E-01  0.59301945635E-01  0.51100000000E-03 0.  1.
</event>
<event>
 8    1  0.1064884E+005  0.1043930E+01  0.7957747E-01            NaN
         13   -1    0    0    0    0  0.00000000000E+00  0.00000000000E+00  0.74505805969E-08  0.10566000000E+00  0.10566000000E+00 0.  1.
     999900   -1    0    0    0    0 -0.00000000000E+00 -0.00000000000E+00 -0.74505805969E-08  0.93827000000E+00  0.93827000000E+00 0. -1.
     999902    2    1    2    0    0  0.13305174326E-01 -0.18862608696E-01  0.61678642355E-02  0.10200371513E+01  0.10197572857E+01 0.  0.
     999903    2    3    3    0    0 -0.59778137550E-01  0.29180501633E-01  0.10952842676E+00  0.12968176336E+00  0.19898645044E-01 0.  0.
         14    1    1    2    0    0 -0.13305174326E-01  0.18862608696E-01 -0.61678642355E-02  0.23892848718E-01  0.00000000000E+00 0. -1.
     999901    1    3    3    0    0  0.73083311875E-01 -0.48043110329E-01 -0.10336056252E+00  0.89035538793E+00  0.88000000000E+00 0. -1.
        -11    1    4    4    0    0 -0.34673831797E-01  0.65282200071E-02  0.49619158140E-01  0.60886897141E-01  0.51100000000E-03 0.  1.
         11    1    4    4    0    0 -0.25104305753E-01  0.22652281626E-01  0.59909268617E-01  0.68794866214E-01  0.51100000000E-03 0. -1.
</event>
<event>
 8    1  0.1064884E+005  0.1043930E+01  0.7957747E-01            NaN
         13   -1    0    0    0    0  0.00000000000E+00  0.00000000000E+00  0.74505805969E-08  0.10566000000E+00  0.10566000000E+00 0.  1.
     999900   -1    0    0    0    0 -0.00000000000E+00 -0.00000000000E+00 -0.74505805969E-08  0.93827000000E+00  0.93827000000E+00 0. -1.
     999902    2    1    2    0    0  0.33065246853E-02 -0.80663619680E-02 -0.22121493122E-01  0.10201527050E+01  0.10198755717E+01 0.  0.
     999903    2    3    3    0    0 -0.19794727309E-01 -0.75733430399E-01  0.10035617798E+00  0.12879796083E+00  0.19752684493E-01 0.  0.
         14    1    1    2    0    0 -0.33065246853E-02  0.80663619680E-02  0.22121493122E-01  0.23777295028E-01  0.00000000000E+00 0.  1.
     999901    1    3    3    0    0  0.23101251995E-01  0.67667068431E-01 -0.12247767110E+00  0.89135474415E+00  0.88000000000E+00 0. -1.
        -11    1    4    4    0    0 -0.16293318770E-01 -0.43359863089E-01  0.45054907538E-01  0.64620088037E-01  0.51100000000E-03 0.  1.
         11    1    4    4    0    0 -0.35014085395E-02 -0.32373567311E-01  0.55301270442E-01  0.64177872788E-01  0.51100000000E-03 0. -1.
</event>
<event>
 8    1  0.1064884E+005  0.1043930E+01  0.7957747E-01            NaN
         13   -1    0    0    0    0  0.00000000000E+00  0.00000000000E+00  0.74505805969E-08  0.10566000000E+00  0.10566000000E+00 0. -1.
     999900   -1    0    0    0    0 -0.00000000000E+00 -0.00000000000E+00 -0.74505805969E-08  0.93827000000E+00  0.93827000000E+00 0.  1.
     999902    2    1    2    0    0 -0.67556907569E-02 -0.22158816260E-01 -0.49341622448E-02  0.10202445941E+01  0.10199696237E+01 0.  0.
     999903    2    3    3    0    0  0.24745890524E-01 -0.11010497301E+00  0.66297549960E-01  0.13243783983E+00  0.20222564332E-01 0.  0.
         14    1    1    2    0    0  0.67556907569E-02  0.22158816260E-01  0.49341622448E-02  0.23685405902E-01  0.00000000000E+00 0. -1.
     999901    1    3    3    0    0 -0.31501581281E-01  0.87946156747E-01 -0.71231712204E-01  0.88780675427E+00  0.88000000000E+00 0.  1.
        -11    1    4    4    0    0 -0.10191903185E-02 -0.39010977219E-01  0.22308112470E-01  0.44953399153E-01  0.51100000000E-03 0. -1.
         11    1    4    4    0    0  0.25765080843E-01 -0.71093995789E-01  0.43989437490E-01  0.87484440672E-01  0.51100000000E-03 0.  1.
</event>
<event>
 8    1  0.1064884E+005  0.1043930E+01  0.7957747E-01            NaN
         13   -1    0    0    0    0  0.00000000000E+00  0.00000000000E+00  0.74505805969E-08  0.10566000000E+00  0.10566000000E+00 0. -1.
     999900   -1    0    0    0    0 -0.00000000000E+00 -0.00000000000E+00 -0.74505805969E-08  0.93827000000E+00  0.93827000000E+00 0.  1.
     999902    2    1    2    0    0 -0.14841621376E-01  0.17812929315E-01 -0.13859259386E-02  0.10207029691E+01  0.10204386587E+01 0.  0.
     999903    2    3    3    0    0 -0.10313442820E+00 -0.77723032650E-01  0.10285546600E-01  0.13106317507E+00  0.19854050116E-01 0.  0.
         14    1    1    2    0    0  0.14841621376E-01 -0.17812929315E-01  0.13859259386E-02  0.23227030946E-01  0.00000000000E+00 0.  1.
     999901    1    3    3    0    0  0.88292806826E-01  0.95535961965E-01 -0.11671472538E-01  0.88963979398E+00  0.88000000000E+00 0. -1.
        -11    1    4    4    0    0 -0.90305819699E-02 -0.14219813951E-01  0.42244564665E-02  0.17374166828E-01  0.51100000000E-03 0.  1.
         11    1    4    4    0    0 -0.94103846233E-01 -0.63503218699E-01  0.60610901331E-02  0.11368900824E+00  0.51100000000E-03 0. -1.
</event>
<event>
 8    1  0.1064884E+005  0.1043930E+01  0.7957747E-01            NaN
         13   -1    0    0    0    0  0.00000000000E+00  0.00000000000E+00  0.74505805969E-08  0.10566000000E+00  0.10566000000E+00 0. -1.
     999900   -1    0    0    0    0 -0.00000000000E+00 -0.00000000000E+00 -0.74505805969E-08  0.93827000000E+00  0.93827000000E+00 0.  1.
     999902    2    1    2    0    0  0.16438723914E-01 -0.66018186298E-02  0.14592193527E-01  0.10209790139E+01  0.10207210192E+01 0.  0.
     999903    2    3    3    0    0 -0.11305863029E+00  0.56268708405E-01  0.19430433122E-01  0.12926960128E+00  0.19612920587E-01 0.  0.
         14    1    1    2    0    0 -0.16438723914E-01  0.66018186298E-02 -0.14592193527E-01  0.22950986146E-01  0.00000000000E+00 0.  1.
     999901    1    3    3    0    0  0.12949735421E+00 -0.62870527035E-01 -0.48382395949E-02  0.89170941258E+00  0.88000000000E+00 0.  1.
        -11    1    4    4    0    0 -0.18141480718E-01  0.69058252582E-02  0.10069840165E-01  0.21873878191E-01  0.51100000000E-03 0.  1.
         11    1    4    4    0    0 -0.94917149574E-01  0.49362883147E-01  0.93605929568E-02  0.10739572309E+00  0.51100000000E-03 0. -1.
</event>
<event>
 8    1  0.1064884E+005  0.1043930E+01  0.7957747E-01            NaN
         13   -1    0    0    0    0  0.00000000000E+00  0.00000000000E+00  0.74505805969E-08  0.10566000000E+00  0.10566000000E+00 0.  1.
     999900   -1    0    0    0    0 -0.00000000000E+00 -0.00000000000E+00 -0.74505805969E-08  0.93827000000E+00  0.93827000000E+00 0.  1.
     999902    2    1    2    0    0  0.12347817398E-02 -0.99787271253E-02 -0.21073702762E-01  0.10205804683E+01  0.10203133302E+01 0.  0.
     999903    2    3    3    0    0  0.10905836233E+00 -0.70888740506E-01 -0.81490531238E-02  0.13181559457E+00  0.19748518455E-01 0.  0.
         14    1    1    2    0    0 -0.12347817398E-02  0.99787271253E-02  0.21073702762E-01  0.23349531667E-01  0.00000000000E+00 0.  1.
     999901    1    3    3    0    0 -0.10782358059E+00  0.60910013380E-01 -0.12924649638E-01  0.88876487376E+00  0.88000000000E+00 0.  1.
        -11    1    4    4    0    0  0.54703850804E-01 -0.43040838454E-01 -0.11931976457E-01  0.70623354854E-01  0.51100000000E-03 0.  1.
         11    1    4    4    0    0  0.54354511526E-01 -0.27847902052E-01  0.37829233330E-02  0.61192239719E-01  0.51100000000E-03 0. -1.
</event>
<event>
 8    1  0.1064884E+005  0.1043930E+01  0.7957747E-01            NaN
         13   -1    0    0    0    0  0.00000000000E+00  0.00000000000E+00  0.74505805969E-08  0.10566000000E+00  0.10566000000E+00 0. -1.
     999900   -1    0    0    0    0 -0.00000000000E+00 -0.00000000000E+00 -0.74505805969E-08  0.93827000000E+00  0.93827000000E+00 0.  1.
     999902    2    1    2    0    0  0.18387318587E-01  0.14794736677E-01 -0.39286301008E-02  0.10200048699E+01  0.10197242385E+01 0.  0.
     999903    2    3    3    0    0  0.27955959013E-01  0.14628852777E-01 -0.12621710623E+00  0.13149709960E+00  0.19109953465E-01 0.  0.
         14    1    1    2    0    0 -0.18387318587E-01 -0.14794736677E-01  0.39286301008E-02  0.23925130149E-01  0.00000000000E+00 0. -1.
     999901    1    3    3    0    0 -0.95686404258E-02  0.16588389977E-03  0.12228847613E+00  0.88850777025E+00  0.88000000000E+00 0. -1.
        -11    1    4    4    0    0  0.94626484521E-02  0.13735486734E-01 -0.40527670154E-01  0.43828740350E-01  0.51100000000E-03 0.  1.
         11    1    4    4    0    0  0.18493310561E-01  0.89336604313E-03 -0.85689436074E-01  0.87668359253E-01  0.51100000000E-03 0. -1.
</event>
<event>
 8    1  0.1064884E+005  0.1043930E+01  0.7957747E-01            NaN
         13   -1    0    0    0    0  0.00000000000E+00  0.00000000000E+00  0.74505805969E-08  0.10566000000E+00  0.10566000000E+00 0.  1.
     999900   -1    0    0    0    0 -0.00000000000E+00 -0.00000000000E+00 -0.74505805969E-08  0.93827000000E+00  0.93827000000E+00 0.  1.
     999902    2    1    2    0    0  0.35133610217E-02 -0.17649846610E-01 -0.16640175238E-01  0.10194196711E+01  0.10191249725E+01 0.  0.
     999903    2    3    3    0    0  0.42937350544E-01  0.11916239247E+00 -0.40282211931E-02  0.12788677709E+00  0.17190385042E-01 0.  0.
         14    1    1    2    0    0 -0.35133610217E-02  0.17649846610E-01  0.16640175238E-01  0.24510328904E-01  0.00000000000E+00 0.  1.
     999901    1    3    3    0    0 -0.39423989522E-01 -0.13681223908E+00 -0.12611954045E-01  0.89153289401E+00  0.88000000000E+00 0. -1.
        -11    1    4    4    0    0  0.36194269809E-01  0.89892033007E-01  0.33068645732E-02  0.96962875573E-01  0.51100000000E-03 0. -1.
         11    1    4    4    0    0  0.67430807350E-02  0.29270359461E-01 -0.73350857664E-02  0.30923901516E-01  0.51100000000E-03 0.  1.
</event>
<event>
 8    1  0.1064884E+005  0.1043930E+01  0.7957747E-01            NaN
         13   -1    0    0    0    0  0.00000000000E+00  0.00000000000E+00  0.74505805969E-08  0.10566000000E+00  0.10566000000E+00 0. -1.
     999900   -1    0    0    0    0 -0.00000000000E+00 -0.00000000000E+00 -0.74505805969E-08  0.93827000000E+00  0.93827000000E+00 0. -1.
     999902    2    1    2    0    0 -0.17190590284E-01  0.15174961784E-01  0.65808247930E-02  0.10200741178E+01  0.10197951278E+01 0.  0.
     999903    2    3    3    0    0 -0.11199171118E+00  0.62296552931E-01  0.30870500184E-01  0.13339622523E+00  0.20458769367E-01 0.  0.
         14    1    1    2    0    0  0.17190590284E-01 -0.15174961784E-01 -0.65808247930E-02  0.23855882177E-01  0.00000000000E+00 0.  1.
     999901    1    3    3    0    0  0.94801120900E-01 -0.47121591147E-01 -0.24289675391E-01  0.88667789259E+00  0.88000000000E+00 0. -1.
        -11    1    4    4    0    0 -0.61385340703E-01  0.45583043432E-01  0.19253115372E-01  0.78847431628E-01  0.51100000000E-03 0.  1.
         11    1    4    4    0    0 -0.50606370481E-01  0.16713509500E-01  0.11617384812E-01  0.54548793606E-01  0.51100000000E-03 0. -1.
</event>
<event>
 8    1  0.1064884E+005  0.1043930E+01  0.7957747E-01            NaN
         13   -1    0    0    0    0  0.00000000000E+00  0.00000000000E+00  0.74505805969E-08  0.10566000000E+00  0.10566000000E+00 0.  1.
     999900   -1    0    0    0    0 -0.00000000000E+00 -0.00000000000E+00 -0.74505805969E-08  0.93827000000E+00  0.93827000000E+00 0.  1.
     999902    2    1    2    0    0  0.12516934588E-01  0.58077736923E-02 -0.23488717221E-01  0.10166880521E+01  0.10163230154E+01 0.  0.
     999903    2    3    3    0    0 -0.49379289803E-01  0.77701239907E-01  0.82435731520E-01  0.12527355712E+00  0.20543060592E-01 0.  0.
         14    1    1    2    0    0 -0.12516934588E-01 -0.58077736923E-02  0.23488717221E-01  0.27241947864E-01  0.00000000000E+00 0.  1.
     999901    1    3    3    0    0  0.61896224390E-01 -0.71893466215E-01 -0.10592444874E+00  0.89141449501E+00  0.88000000000E+00 0.  1.
        -11    1    4    4    0    0 -0.11625921028E-01  0.35839024591E-01  0.37743163924E-01  0.53332966047E-01  0.51100000000E-03 0.  1.
         11    1    4    4    0    0 -0.37753368775E-01  0.41862215316E-01  0.44692567596E-01  0.71940591076E-01  0.51100000000E-03 0. -1.
</event>
<event>
 8    1  0.1064884E+005  0.1043930E+01  0.7957747E-01            NaN
         13   -1    0    0    0    0  0.00000000000E+00  0.00000000000E+00  0.74505805969E-08  0.10566000000E+00  0.10566000000E+00 0.  1.
     999900   -1    0    0    0    0 -0.00000000000E+00 -0.00000000000E+00 -0.74505805969E-08  0.93827000000E+00  0.93827000000E+00 0.  1.
     999902    2    1    2    0    0 -0.15816504049E-01 -0.15118844058E-01 -0.15686296416E-01  0.10170078689E+01  0.10166514665E+01 0.  0.
     999903    2    3    3    0    0 -0.12420582941E+00  0.23260100104E-01  0.18535398990E-01  0.12886806370E+00  0.17184193608E-01 0.  0.
         14    1    1    2    0    0  0.15816504049E-01  0.15118844058E-01  0.15686296416E-01  0.26922131068E-01  0.00000000000E+00 0.  1.
     999901    1    3    3    0    0  0.10838932536E+00 -0.38378944162E-01 -0.34221695406E-01  0.88813980524E+00  0.88000000000E+00 0.  1.
        -11    1    4    4    0    0 -0.88037890818E-01  0.86163008495E-02  0.14432457634E-01  0.89629614605E-01  0.51100000000E-03 0.  1.
         11    1    4    4    0    0 -0.36167938589E-01  0.14643799254E-01  0.41029413562E-02  0.39238449092E-01  0.51100000000E-03 0. -1.
</event>
<event>
 8    1  0.1064884E+005  0.1043930E+01  0.7957747E-01            NaN
         13   -1    0    0    0    0  0.00000000000E+00  0.00000000000E+00  0.74505805969E-08  0.10566000000E+00  0.10566000000E+00 0. -1.
     999900   -1    0    0    0    0 -0.00000000000E+00 -0.00000000000E+00 -0.74505805969E-08  0.93827000000E+00  0.93827000000E+00 0. -1.
     999902    2    1    2    0    0 -0.17872546474E-01 -0.13259041077E-01  0.74319064847E-02  0.10204680452E+01  0.10201982984E+01 0.  0.
     999903    2    3    3    0    0 -0.45725452313E-01 -0.59558729298E-01  0.10786127981E+00  0.13310932153E+00  0.21118157385E-01 0.  0.
         14    1    1    2    0    0  0.17872546474E-01  0.13259041077E-01 -0.74319064847E-02  0.23461954772E-01  0.00000000000E+00 0. -1.
     999901    1    3    3    0    0  0.27852905839E-01  0.46299688220E-01 -0.10042937333E+00  0.88735872370E+00  0.88000000000E+00 0. -1.
        -11    1    4    4    0    0 -0.59932387224E-02 -0.24569693702E-02  0.20076882178E-01  0.21102083496E-01  0.51100000000E-03 0. -1.
         11    1    4    4    0    0 -0.39732213591E-01 -0.57101759928E-01  0.87784397633E-01  0.11200723804E+00  0.51100000000E-03 0.  1.
</event>
<event>
 8    1  0.1064884E+005  0.1043930E+01  0.7957747E-01            NaN
         13   -1    0    0    0    0  0.00000000000E+00  0.00000000000E+00  0.74505805969E-08  0.10566000000E+00  0.10566000000E+00 0.  1.
     999900   -1    0    0    0    0 -0.00000000000E+00 -0.00000000000E+00 -0.74505805969E-08  0.93827000000E+00  0.93827000000E+00 0. -1.
     999902    2    1    2    0    0 -0.17071240092E-01 -0.11217430011E-01 -0.42829238318E-03  0.10234986171E+01  0.10232946681E+01 0.  0.
     999903    2    3    3    0    0  0.40701606219E-01  0.73515423793E-01 -0.99921120331E-01  0.13197397854E+00  0.19281142049E-01 0.  0.
         14    1    1    2    0    0  0.17071240092E-01  0.11217430011E-01  0.42829238318E-03  0.20431382937E-01  0.00000000000E+00 0.  1.
     999901    1    3    3    0    0 -0.57772846311E-01 -0.84732853804E-01  0.99492827948E-01  0.89152463853E+00  0.88000000000E+00 0.  1.
        -11    1    4    4    0    0  0.45467517500E-02  0.24341878453E-01 -0.34870658642E-01  0.42771765842E-01  0.51100000000E-03 0.  1.
         11    1    4    4    0    0  0.36154854469E-01  0.49173545339E-01 -0.65050461689E-01  0.89202212696E-01  0.51100000000E-03 0. -1.
</event>
<event>
 8    1  0.1064884E+005  0.1043930E+01  0.7957747E-01            NaN
         13   -1    0    0    0    0  0.00000000000E+00  0.00000000000E+00  0.74505805969E-08  0.10566000000E+00  0.10566000000E+00 0.  1.
     999900   -1    0    0    0    0 -0.00000000000E+00 -0.00000000000E+00 -0.74505805969E-08  0.93827000000E+00  0.93827000000E+00 0.  1.
     999902    2    1    2    0    0  0.15300816753E-01 -0.15902361223E-01 -0.40429129325E-02  0.10214946433E+01  0.10212482367E+01 0.  0.
     999903    2    3    3    0    0  0.21719131933E-01  0.84883551893E-01 -0.95247433290E-01  0.13103562706E+00  0.20526176862E-01 0.  0.
         14    1    1    2    0    0 -0.15300816753E-01  0.15902361223E-01  0.40429129325E-02  0.22435356711E-01  0.00000000000E+00 0.  1.
     999901    1    3    3    0    0 -0.64183151796E-02 -0.10078591312E+00  0.91204520357E-01  0.89045901623E+00  0.88000000000E+00 0. -1.
        -11    1    4    4    0    0  0.57053928663E-02  0.50021894756E-01 -0.42985328221E-01  0.66202273571E-01  0.51100000000E-03 0.  1.
         11    1    4    4    0    0  0.16013739066E-01  0.34861657137E-01 -0.52262105069E-01  0.64833353487E-01  0.51100000000E-03 0. -1.
</event>
<event>
 8    1  0.1064884E+005  0.1043930E+01  0.7957747E-01            NaN
         13   -1    0    0    0    0  0.00000000000E+00  0.00000000000E+00  0.74505805969E-08  0.10566000000E+00  0.10566000000E+00 0.  1.
     999900   -1    0    0    0    0 -0.00000000000E+00 -0.00000000000E+00 -0.74505805969E-08  0.93827000000E+00  0.93827000000E+00 0. -1.
     999902    2    1    2    0    0  0.11056715778E-01  0.16384056196E-01  0.14377205793E-01  0.10194883898E+01  0.10191953614E+01 0.  0.
     999903    2    3    3    0    0  0.11087268342E+00 -0.34591103954E-01 -0.54310091333E-01  0.12972457896E+00  0.19737881473E-01 0.  0.
         14    1    1    2    0    0 -0.11056715778E-01 -0.16384056196E-01 -0.14377205793E-01  0.24441610169E-01  0.00000000000E+00 0. -1.
     999901    1    3    3    0    0 -0.99815967640E-01  0.50975160150E-01  0.68687297126E-01  0.88976381087E+00  0.88000000000E+00 0. -1.
        -11    1    4    4    0    0  0.98718375670E-01 -0.33468096877E-01 -0.42001667260E-01  0.11238252701E+00  0.51100000000E-03 0.  1.
         11    1    4    4    0    0  0.12154307747E-01 -0.11230070775E-02 -0.12308424073E-01  0.17342051951E-01  0.51100000000E-03 0. -1.
</event>
<event>
 8    1  0.1064884E+005  0.1043930E+01  0.7957747E-01            NaN
         13   -1    0    0    0    0  0.00000000000E+00  0.00000000000E+00  0.74505805969E-08  0.10566000000E+00  0.10566000000E+00 0. -1.
     999900   -1    0    0    0    0 -0.00000000000E+00 -0.00000000000E+00 -0.74505805969E-08  0.93827000000E+00  0.93827000000E+00 0.  1.
     999902    2    1    2    0    0 -0.81006267927E-02  0.14970257630E-01 -0.15980251842E-01  0.10205826829E+01  0.10203155960E+01 0.  0.
     999903    2    3    3    0    0  0.89834098896E-01 -0.18161048359E-01 -0.91733198459E-01  0.13129791248E+00  0.20595463603E-01 0.  0.
         14    1    1    2    0    0  0.81006267927E-02 -0.14970257630E-01  0.15980251842E-01  0.23347317123E-01  0.00000000000E+00 0. -1.
     999901    1    3    3    0    0 -0.97934725689E-01  0.33131305989E-01  0.75752946617E-01  0.88928477039E+00  0.88000000000E+00 0. -1.
        -11    1    4    4    0    0  0.47656396381E-01 -0.99242477726E-03 -0.55045005505E-01  0.72817104962E-01  0.51100000000E-03 0.  1.
         11    1    4    4    0    0  0.42177702515E-01 -0.17168623582E-01 -0.36688192954E-01  0.58480807521E-01  0.51100000000E-03 0. -1.
</event>
<event>
 8    1  0.1064884E+005  0.1043930E+01  0.7957747E-01            NaN
         13   -1    0    0    0    0  0.00000000000E+00  0.00000000000E+00  0.74505805969E-08  0.10566000000E+00  0.10566000000E+00 0. -1.
     999900   -1    0    0    0    0 -0.00000000000E+00 -0.00000000000E+00 -0.74505805969E-08  0.93827000000E+00  0.93827000000E+00 0. -1.
     999902    2    1    2    0    0  0.40386693772E-02  0.30553880798E-03 -0.24136336919E-01  0.10194561984E+01  0.10191623882E+01 0.  0.
     999903    2    3    3    0    0  0.10024283674E+00 -0.78931518526E-01  0.13061086818E-01  0.12989596919E+00  0.20580570692E-01 0.  0.
         14    1    1    2    0    0 -0.40386693772E-02 -0.30553880798E-03  0.24136336919E-01  0.24473801588E-01  0.00000000000E+00 0. -1.
     999901    1    3    3    0    0 -0.96204167361E-01  0.79237057334E-01 -0.37197423738E-01  0.88956022922E+00  0.88000000000E+00 0.  1.
        -11    1    4    4    0    0  0.84311582344E-01 -0.73721531745E-01  0.75827131782E-02  0.11225446904E+00  0.51100000000E-03 0. -1.
         11    1    4    4    0    0  0.15931254394E-01 -0.52099867813E-02  0.54783736402E-02  0.17641500151E-01  0.51100000000E-03 0.  1.
</event>
<event>
 8    1  0.1064884E+005  0.1043930E+01  0.7957747E-01            NaN
         13   -1    0    0    0    0  0.00000000000E+00  0.00000000000E+00  0.74505805969E-08  0.10566000000E+00  0.10566000000E+00 0.  1.
     999900   -1    0    0    0    0 -0.00000000000E+00 -0.00000000000E+00 -0.74505805969E-08  0.93827000000E+00  0.93827000000E+00 0.  1.
     999902    2    1    2    0    0  0.18217869273E-01 -0.13260617280E-01 -0.84090374329E-02  0.10198790823E+01  0.10195954570E+01 0.  0.
     999903    2    3    3    0    0  0.13014226666E+00  0.10654552683E-02  0.10539319930E-01  0.13247199008E+00  0.22351870737E-01 0.  0.
         14    1    1    2    0    0 -0.18217869273E-01  0.13260617280E-01  0.84090374329E-02  0.24050917697E-01  0.00000000000E+00 0. -1.
     999901    1    3    3    0    0 -0.11192439738E+00 -0.14326072548E-01 -0.18948357363E-01  0.88740709222E+00  0.88000000000E+00 0.  1.
        -11    1    4    4    0    0  0.84917089056E-01 -0.56951633235E-02  0.15373196626E-01  0.86486664837E-01  0.51100000000E-03 0. -1.
         11    1    4    4    0    0  0.45225177600E-01  0.67606185917E-02 -0.48338766961E-02  0.45985325242E-01  0.51100000000E-03 0.  1.
</event>
<event>
 8    1  0.1064884E+005  0.1043930E+01  0.7957747E-01            NaN
         13   -1    0    0    0    0  0.00000000000E+00  0.00000000000E+00  0.74505805969E-08  0.10566000000E+00  0.10566000000E+00 0.  1.
     999900   -1    0    0    0    0 -0.00000000000E+00 -0.00000000000E+00 -0.74505805969E-08  0.93827000000E+00  0.93827000000E+00 0.  1.
     999902    2    1    2    0    0 -0.13352265271E-01  0.91806875955E-02 -0.16689072392E-01  0.10206685910E+01  0.10204034886E+01 0.  0.
     999903    2    3    3    0    0 -0.12311108670E+00 -0.97758133178E-02 -0.45450130773E-01  0.13318138189E+00  0.20485602275E-01 0.  0.
         14    1    1    2    0    0  0.13352265271E-01 -0.91806875955E-02  0.16689072392E-01  0.23261409027E-01  0.00000000000E+00 0.  1.
     999901    1    3    3    0    0  0.10975882143E+00  0.18956500913E-01  0.28761058381E-01  0.88748720908E+00  0.88000000000E+00 0.  1.
        -11    1    4    4    0    0 -0.68828425822E-01 -0.11848771905E-01 -0.17106361143E-01  0.71907122799E-01  0.51100000000E-03 0.  1.
         11    1    4    4    0    0 -0.54282660877E-01  0.20729585875E-02 -0.28343769630E-01  0.61274259090E-01  0.51100000000E-03 0. -1.
</event>
<event>
 8    1  0.1064884E+005  0.1043930E+01  0.7957747E-01            NaN
         13   -1    0    0    0    0  0.00000000000E+00  0.00000000000E+00  0.74505805969E-08  0.10566000000E+00  0.10566000000E+00 0.  1.
     999900   -1    0    0    0    0 -0.00000000000E+00 -0.00000000000E+00 -0.74505805969E-08  0.93827000000E+00  0.93827000000E+00 0. -1.
     999902    2    1    2    0    0  0.17580732828E-01  0.87988339600E-02 -0.13175409504E-01  0.10202637147E+01  0.10199891933E+01 0.  0.
     999903    2    3    3    0    0 -0.12541164601E+00 -0.16375296618E-01 -0.15309135966E-02  0.12829053596E+00  0.21444967363E-01 0.  0.
         14    1    1    2    0    0 -0.17580732828E-01 -0.87988339600E-02  0.13175409504E-01  0.23666285333E-01  0.00000000000E+00 0.  1.
     999901    1    3    3    0    0  0.14299237884E+00  0.25174130578E-01 -0.11644495908E-01  0.89197317871E+00  0.88000000000E+00 0.  1.
        -11    1    4    4    0    0 -0.47548267910E-01 -0.15868041599E-01 -0.47794157039E-02  0.50356096561E-01  0.51100000000E-03 0.  1.
         11    1    4    4    0    0 -0.77863378100E-01 -0.50725501822E-03  0.32485021072E-02  0.77934439394E-01  0.51100000000E-03 0. -1.
</event>
<event>
 8    1  0.1064884E+005  0.1043930E+01  0.7957747E-01            NaN
         13   -1    0    0    0    0  0.00000000000E+00  0.00000000000E+00  0.74505805969E-08  0.10566000000E+00  0.10566000000E+00 0. -1.
     999900   -1    0    0    0    0 -0.00000000000E+00 -0.00000000000E+00 -0.74505805969E-08  0.93827000000E+00  0.93827000000E+00 0.  1.
     999902    2    1    2    0    0 -0.23877021360E-01  0.48807414881E-03 -0.65406290220E-02  0.10191685341E+01  0.10188676905E+01 0.  0.
     999903    2    3    3    0    0 -0.11342226483E+00 -0.55339892920E-01  0.29887203128E-01  0.13211605567E+00  0.25185181106E-01 0.  0.
         14    1    1    2    0    0  0.23877021360E-01 -0.48807414881E-03  0.65406290220E-02  0.24761465898E-01  0.00000000000E+00 0. -1.
     999901    1    3    3    0    0  0.89545243471E-01  0.55827967069E-01 -0.36427832150E-01  0.88705247843E+00  0.88000000000E+00 0.  1.
        -11    1    4    4    0    0 -0.31353954766E-01 -0.81359445362E-02  0.16940427927E-01  0.36558217850E-01  0.51100000000E-03 0.  1.
         11    1    4    4    0    0 -0.82068310065E-01 -0.47203948384E-01  0.12946775201E-01  0.95557837821E-01  0.51100000000E-03 0. -1.
</event>
<event>
 8    1  0.1064884E+005  0.1043930E+01  0.7957747E-01            NaN
         13   -1    0    0    0    0  0.00000000000E+00  0.00000000000E+00  0.74505805969E-08  0.10566000000E+00  0.10566000000E+00 0.  1.
     999900   -1    0    0    0    0 -0.00000000000E+00 -0.00000000000E+00 -0.74505805969E-08  0.93827000000E+00  0.93827000000E+00 0.  1.
     999902    2    1    2    0    0  0.24889947773E-01 -0.13269744831E-01 -0.87471509913E-02  0.10143985206E+01  0.10139685647E+01 0.  0.
     999903    2    3    3    0    0  0.95688115770E-01 -0.36367202424E-01 -0.75485982222E-01  0.12873495873E+00  0.19893897962E-01 0.  0.
         14    1    1    2    0    0 -0.24889947773E-01  0.13269744831E-01  0.87471509913E-02  0.29531479449E-01  0.00000000000E+00 0.  1.
     999901    1    3    3    0    0 -0.70798167997E-01  0.23097457593E-01  0.66738831230E-01  0.88566356182E+00  0.88000000000E+00 0. -1.
        -11    1    4    4    0    0  0.33500241320E-01 -0.34372501674E-02 -0.20485771191E-01  0.39420918298E-01  0.51100000000E-03 0.  1.
         11    1    4    4    0    0  0.62187874450E-01 -0.32929952256E-01 -0.55000211030E-01  0.89314040434E-01  0.51100000000E-03 0. -1.
</event>
<event>
 8    1  0.1064884E+005  0.1043930E+01  0.7957747E-01            NaN
         13   -1    0    0    0    0  0.00000000000E+00  0.00000000000E+00  0.74505805969E-08  0.10566000000E+00  0.10566000000E+00 0.  1.
     999900   -1    0    0    0    0 -0.00000000000E+00 -0.00000000000E+00 -0.74505805969E-08  0.93827000000E+00  0.93827000000E+00 0. -1.
     999902    2    1    2    0    0  0.18501801180E-01  0.15075129812E-01 -0.61045868247E-02  0.10192958334E+01  0.10189981127E+01 0.  0.
     999903    2    3    3    0    0 -0.58178594463E-01 -0.10592770655E+00  0.32652594282E-01  0.12687010055E+00  0.20601034745E-01 0.  0.
         14    1    1    2    0    0 -0.18501801180E-01 -0.15075129812E-01  0.61045868247E-02  0.24634166641E-01  0.00000000000E+00 0.  1.
     999901    1    3    3    0    0  0.76680395643E-01  0.12100283636E+00 -0.38757181107E-01  0.89242573280E+00  0.88000000000E+00 0.  1.
        -11    1    4    4    0    0 -0.18232456769E-01 -0.19640510076E-01  0.16388360824E-02  0.26853659352E-01  0.51100000000E-03 0.  1.
         11    1    4    4    0    0 -0.39946137693E-01 -0.86287196476E-01  0.31013758200E-01  0.10001644120E+00  0.51100000000E-03 0. -1.
</event>
<event>
 8    1  0.1064884E+005  0.1043930E+01  0.7957747E-01            NaN
         13   -1    0    0    0    0  0.00000000000E+00  0.00000000000E+00  0.74505805969E-08  0.10566000000E+00  0.10566000000E+00 0.  1.
     999900   -1    0    0    0    0 -0.00000000000E+00 -0.00000000000E+00 -0.74505805969E-08  0.93827000000E+00  0.93827000000E+00 0.  1.
     999902    2    1    2    0    0 -0.32616391530E-02  0.21308367153E-01 -0.10720594433E-01  0.10198547857E+01  0.10195705801E+01 0.  0.
     999903    2    3    3    0    0  0.63717351414E-03 -0.75349783453E-01  0.10105196407E+00  0.12752575237E+00  0.19321548001E-01 0.  0.
         14    1    1    2    0    0  0.32616391530E-02 -0.21308367153E-01  0.10720594433E-01  0.24075214344E-01  0.00000000000E+00 0.  1.
     999901    1    3    3    0    0 -0.38988126671E-02  0.96658150606E-01 -0.11177255850E+00  0.89232903329E+00  0.88000000000E+00 0.  1.
        -11    1    4    4    0    0  0.41316503488E-02 -0.28085572962E-02  0.85943510016E-02  0.99540202345E-02  0.51100000000E-03 0.  1.
         11    1    4    4    0    0 -0.34944768347E-02 -0.72541226157E-01  0.92457613070E-01  0.11757173213E+00  0.51100000000E-03 0. -1.
</event>
<event>
 8    1  0.1064884E+005  0.1043930E+01  0.7957747E-01            NaN
         13   -1    0    0    0    0  0.00000000000E+00  0.00000000000E+00  0.74505805969E-08  0.10566000000E+00  0.10566000000E+00 0.  1.
     999900   -1    0    0    0    0 -0.00000000000E+00 -0.00000000000E+00 -0.74505805969E-08  0.93827000000E+00  0.93827000000E+00 0. -1.
     999902    2    1    2    0    0  0.33306739647E-02  0.91297842744E-02  0.23179580629E-01  0.10187955752E+01  0.10184854858E+01 0.  0.
     999903    2    3    3    0    0  0.86616956263E-01 -0.14615183731E-01 -0.89735966977E-01  0.12736394622E+00  0.21282159654E-01 0.  0.
         14    1    1    2    0    0 -0.33306739647E-02 -0.91297842744E-02 -0.23179580629E-01  0.25134424761E-01  0.00000000000E+00 0. -1.
     999901    1    3    3    0    0 -0.83286282298E-01  0.23744968006E-01  0.11291554761E+00  0.89143162902E+00  0.88000000000E+00 0.  1.
        -11    1    4    4    0    0  0.14235710879E-01  0.54156987279E-02 -0.16573913380E-01  0.22515349935E-01  0.51100000000E-03 0. -1.
         11    1    4    4    0    0  0.72381245383E-01 -0.20030882459E-01 -0.73162053597E-01  0.10484859628E+00  0.51100000000E-03 0.  1.
</event>
<event>
 8    1  0.1064884E+005  0.1043930E+01  0.7957747E-01            NaN
         13   -1    0    0    0    0  0.00000000000E+00  0.00000000000E+00  0.74505805969E-08  0.10566000000E+00  0.10566000000E+00 0. -1.
     999900   -1    0    0    0    0 -0.00000000000E+00 -0.00000000000E+00 -0.74505805969E-08  0.93827000000E+00  0.93827000000E+00 0.  1.
     999902    2    1    2    0    0  0.14595927575E-01  0.80116882614E-02 -0.16028932019E-01  0.10208182084E+01  0.10205565441E+01 0.  0.
     999903    2    3    3    0    0 -0.70199132073E-02  0.65856103089E-02 -0.13121351139E+00  0.13304753663E+00  0.19799292615E-01 0.  0.
         14    1    1    2    0    0 -0.14595927575E-01 -0.80116882614E-02  0.16028932019E-01  0.23111791628E-01  0.00000000000E+00 0. -1.
     999901    1    3    3    0    0  0.21615840783E-01  0.14260779525E-02  0.11518457937E+00  0.88777067174E+00  0.88000000000E+00 0. -1.
        -11    1    4    4    0    0  0.65692214952E-02  0.45228912403E-02 -0.58645233309E-01  0.59187293628E-01  0.51100000000E-03 0.  1.
         11    1    4    4    0    0 -0.13589134703E-01  0.20627190686E-02 -0.72568278084E-01  0.73860243006E-01  0.51100000000E-03 0. -1.
</event>
<event>
 8    1  0.1064884E+005  0.1043930E+01  0.7957747E-01            NaN
         13   -1    0    0    0    0  0.00000000000E+00  0.00000000000E+00  0.74505805969E-08  0.10566000000E+00  0.10566000000E+00 0.  1.
     999900   -1    0    0    0    0 -0.00000000000E+00 -0.00000000000E+00 -0.74505805969E-08  0.93827000000E+00  0.93827000000E+00 0.  1.
     999902    2    1    2    0    0 -0.84395333257E-02 -0.13074550432E-01 -0.17199993340E-01  0.10207349712E+01  0.10204713970E+01 0.  0.
     999903    2    3    3    0    0  0.18558349308E-01 -0.10136268566E+00  0.77955830403E-01  0.13080333824E+00  0.20337045693E-01 0.  0.
         14    1    1    2    0    0  0.84395333257E-02  0.13074550432E-01  0.17199993340E-01  0.23195028835E-01  0.00000000000E+00 0.  1.
     999901    1    3    3    0    0 -0.26997882633E-01  0.88288135229E-01 -0.95155823743E-01  0.88993163293E+00  0.88000000000E+00 0.  1.
        -11    1    4    4    0    0  0.90609626931E-02 -0.18584593114E-01  0.23295989614E-01  0.31152084990E-01  0.51100000000E-03 0. -1.
         11    1    4    4    0    0  0.94973866147E-02 -0.82778092547E-01  0.54659840789E-01  0.99651253250E-01  0.51100000000E-03 0.  1.
</event>
<event>
 8    1  0.1064884E+005  0.1043930E+01  0.7957747E-01            NaN
         13   -1    0    0    0    0  0.00000000000E+00  0.00000000000E+00  0.74505805969E-08  0.10566000000E+00  0.10566000000E+00 0.  1.
     999900   -1    0    0    0    0 -0.00000000000E+00 -0.00000000000E+00 -0.74505805969E-08  0.93827000000E+00  0.93827000000E+00 0.  1.
     999902    2    1    2    0    0  0.16529863974E-01  0.21364317433E-01 -0.97978733059E-02  0.10151955471E+01  0.10147888106E+01 0.  0.
     999903    2    3    3    0    0  0.98146341900E-01  0.47744516688E-01  0.63771307215E-01  0.12796976484E+00  0.19930825032E-01 0.  0.
         14    1    1    2    0    0 -0.16529863974E-01 -0.21364317433E-01  0.97978733059E-02  0.28734452904E-01  0.00000000000E+00 0.  1.
     999901    1    3    3    0    0 -0.81616477926E-01 -0.26380199255E-01 -0.73569180521E-01  0.88722578226E+00  0.88000000000E+00 0.  1.
        -11    1    4    4    0    0  0.67611145891E-01  0.34891689758E-01  0.33662477359E-01  0.83199282243E-01  0.51100000000E-03 0. -1.
         11    1    4    4    0    0  0.30535196009E-01  0.12852826930E-01  0.30108829856E-01  0.44770482594E-01  0.51100000000E-03 0.  1.
</event>
<event>
 8    1  0.1064884E+005  0.1043930E+01  0.7957747E-01            NaN
         13   -1    0    0    0    0  0.00000000000E+00  0.00000000000E+00  0.74505805969E-08  0.10566000000E+00  0.10566000000E+00 0.  1.
     999900   -1    0    0    0    0 -0.00000000000E+00 -0.00000000000E+00 -0.74505805969E-08  0.93827000000E+00  0.93827000000E+00 0. -1.
     999902    2    1    2    0    0 -0.77478946483E-02  0.69720150992E-02  0.20323279319E-01  0.10210898041E+01  0.10208343223E+01 0.  0.
     999903    2    3    3    0    0 -0.12766496405E+00 -0.26928392646E-01  0.88595274111E-02  0.13223618355E+00  0.19607030309E-01 0.  0.
         14    1    1    2    0    0  0.77478946483E-02 -0.69720150992E-02 -0.20323279319E-01  0.22840195890E-01  0.00000000000E+00 0. -1.
     999901    1    3    3    0    0  0.11991706940E+00  0.33900407745E-01  0.11463751908E-01  0.88885362056E+00  0.88000000000E+00 0. -1.
        -11    1    4    4    0    0 -0.35933724730E-01 -0.85008079594E-02  0.11362057509E-01  0.38637466025E-01  0.51100000000E-03 0.  1.
         11    1    4    4    0    0 -0.91731239317E-01 -0.18427584687E-01 -0.25025300983E-02  0.93598717523E-01  0.51100000000E-03 0. -1.
</event>
<event>
 8    1  0.1064884E+005  0.1043930E+01  0.7957747E-01            NaN
         13   -1    0    0    0    0  0.00000000000E+00  0.00000000000E+00  0.74505805969E-08  0.10566000000E+00  0.10566000000E+00 0.  1.
     999900   -1    0    0    0    0 -0.00000000000E+00 -0.00000000000E+00 -0.74505805969E-08  0.93827000000E+00  0.93827000000E+00 0. -1.
     999902    2    1    2    0    0 -0.42500737842E-02  0.77787455031E-02  0.21204391865E-01  0.10209474361E+01  0.10206887229E+01 0.  0.
     999903    2    3    3    0    0 -0.10079264283E+00 -0.50171878369E-01 -0.63732564707E-01  0.12971624891E+00  0.93856911033E-02 0.  0.
         14    1    1    2    0    0  0.42500737842E-02 -0.77787455031E-02 -0.21204391865E-01  0.22982563894E-01  0.00000000000E+00 0. -1.
     999901    1    3    3    0    0  0.96542569050E-01  0.57950623872E-01  0.84936956573E-01  0.89123118720E+00  0.88000000000E+00 0.  1.
        -11    1    4    4    0    0 -0.62507409122E-01 -0.35314678324E-01 -0.43332830988E-01  0.83858798362E-01  0.51100000000E-03 0. -1.
         11    1    4    4    0    0 -0.38285233712E-01 -0.14857200045E-01 -0.20399733719E-01  0.45857450544E-01  0.51100000000E-03 0.  1.
</event>
<event>
 8    1  0.1064884E+005  0.1043930E+01  0.7957747E-01            NaN
         13   -1    0    0    0    0  0.00000000000E+00  0.00000000000E+00  0.74505805969E-08  0.10566000000E+00  0.10566000000E+00 0. -1.
     999900   -1    0    0    0    0 -0.00000000000E+00 -0.00000000000E+00 -0.74505805969E-08  0.93827000000E+00  0.93827000000E+00 0.  1.
     999902    2    1    2    0    0 -0.23298096104E-01 -0.68101697712E-02 -0.11270038467E-02  0.10196308265E+01  0.10193412444E+01 0.  0.
     999903    2    3    3    0    0 -0.11694625617E+00 -0.18453301673E-01 -0.57522650539E-01  0.13279036207E+00  0.17534929718E-01 0.  0.
         14    1    1    2    0    0  0.23298096104E-01  0.68101697712E-02  0.11270038467E-02  0.24299173485E-01  0.00000000000E+00 0.  1.
     999901    1    3    3    0    0  0.93648160064E-01  0.11643131902E-01  0.56395646693E-01  0.88684046444E+00  0.88000000000E+00 0.  1.
        -11    1    4    4    0    0 -0.91230824469E-01 -0.17031719623E-01 -0.37228621140E-01  0.99996870749E-01  0.51100000000E-03 0. -1.
         11    1    4    4    0    0 -0.25715431699E-01 -0.14215820499E-02 -0.20294029399E-01  0.32793491325E-01  0.51100000000E-03 0.  1.
</event>
<event>
 8    1  0.1064884E+005  0.1043930E+01  0.7957747E-01            NaN
         13   -1    0    0    0    0  0.00000000000E+00  0.00000000000E+00  0.74505805969E-08  0.10566000000E+00  0.10566000000E+00 0. -1.
     999900   -1    0    0    0    0 -0.00000000000E+00 -0.00000000000E+00 -0.74505805969E-08  0.93827000000E+00  0.93827000000E+00 0. -1.
     999902    2    1    2    0    0 -0.14486003981E-01  0.15470552963E-01 -0.13922626812E-01  0.10185721243E+01  0.10182564268E+01 0.  0.
     999903    2    3    3    0    0  0.47334193366E-01 -0.11091352687E+00  0.31388863591E-01  0.12624494018E+00  0.20253095085E-01 0.  0.
         14    1    1    2    0    0  0.14486003981E-01 -0.15470552963E-01  0.13922626812E-01  0.25357875653E-01  0.00000000000E+00 0. -1.
     999901    1    3    3    0    0 -0.61820197347E-01  0.12638407983E+00 -0.45311490403E-01  0.89232718416E+00  0.88000000000E+00 0. -1.
        -11    1    4    4    0    0  0.11867701243E-02 -0.13716915963E-01  0.86619925613E-02  0.16274318511E-01  0.51100000000E-03 0.  1.
         11    1    4    4    0    0  0.46147423242E-01 -0.97196610904E-01  0.22726871030E-01  0.10997062167E+00  0.51100000000E-03 0. -1.
</event>
<event>
 8    1  0.1064884E+005  0.1043930E+01  0.7957747E-01            NaN
         13   -1    0    0    0    0  0.00000000000E+00  0.00000000000E+00  0.74505805969E-08  0.10566000000E+00  0.10566000000E+00 0. -1.
     999900   -1    0    0    0    0 -0.00000000000E+00 -0.00000000000E+00 -0.74505805969E-08  0.93827000000E+00  0.93827000000E+00 0.  1.
     999902    2    1    2    0    0  0.19204923089E-01  0.14137406949E-01  0.10475511038E-02  0.10200596688E+01  0.10197803368E+01 0.  0.
     999903    2    3    3    0    0  0.90760784408E-01 -0.27998560920E-01 -0.88885128887E-01  0.13158706487E+00  0.19828013140E-01 0.  0.
         14    1    1    2    0    0 -0.19204923089E-01 -0.14137406949E-01 -0.10475511038E-02  0.23870331154E-01  0.00000000000E+00 0. -1.
     999901    1    3    3    0    0 -0.71555861319E-01  0.42135967868E-01  0.89932679991E-01  0.88847260397E+00  0.88000000000E+00 0.  1.
        -11    1    4    4    0    0  0.54089101655E-01 -0.15577921216E-01 -0.39196088559E-01  0.68592251943E-01  0.51100000000E-03 0. -1.
         11    1    4    4    0    0  0.36671682753E-01 -0.12420639703E-01 -0.49689040328E-01  0.62994812932E-01  0.51100000000E-03 0.  1.
</event>
<event>
 8    1  0.1064884E+005  0.1043930E+01  0.7957747E-01            NaN
         13   -1    0    0    0    0  0.00000000000E+00  0.00000000000E+00  0.74505805969E-08  0.10566000000E+00  0.10566000000E+00 0.  1.
     999900   -1    0    0    0    0 -0.00000000000E+00 -0.00000000000E+00 -0.74505805969E-08  0.93827000000E+00  0.93827000000E+00 0. -1.
     999902    2    1    2    0    0  0.22227316781E-01 -0.12057038463E-01 -0.15563475070E-01  0.10142374497E+01  0.10138027209E+01 0.  0.
     999903    2    3    3    0    0 -0.65018645663E-01 -0.98195041408E-01  0.34826436684E-01  0.12431006123E+00  0.19246303300E-01 0.  0.
         14    1    1    2    0    0 -0.22227316781E-01  0.12057038463E-01  0.15563475070E-01  0.29692550313E-01  0.00000000000E+00 0. -1.
     999901    1    3    3    0    0  0.87245962445E-01  0.86138002945E-01 -0.50389911754E-01  0.88992738845E+00  0.88000000000E+00 0. -1.
        -11    1    4    4    0    0 -0.14943289640E-01 -0.39158509957E-01  0.12438702154E-01  0.43722685640E-01  0.51100000000E-03 0. -1.
         11    1    4    4    0    0 -0.50075356023E-01 -0.59036531451E-01  0.22387734530E-01  0.80587375593E-01  0.51100000000E-03 0.  1.
</event>
<event>
 8    1  0.1064884E+005  0.1043930E+01  0.7957747E-01            NaN
         13   -1    0    0    0    0  0.00000000000E+00  0.00000000000E+00  0.74505805969E-08  0.10566000000E+00  0.10566000000E+00 0.  1.
     999900   -1    0    0    0    0 -0.00000000000E+00 -0.00000000000E+00 -0.74505805969E-08  0.93827000000E+00  0.93827000000E+00 0.  1.
     999902    2    1    2    0    0  0.10321031990E-01 -0.14760409406E-01  0.14226157449E-01  0.10209783782E+01  0.10207203691E+01 0.  0.
     999903    2    3    3    0    0 -0.31081247595E-01 -0.10524750238E+00  0.72877013238E-01  0.13343007776E+00  0.21200138723E-01 0.  0.
         14    1    1    2    0    0 -0.10321031990E-01  0.14760409406E-01 -0.14226157449E-01  0.22951621793E-01  0.00000000000E+00 0.  1.
     999901    1    3    3    0    0  0.41402279585E-01  0.90487092974E-01 -0.58650855790E-01  0.88754830045E+00  0.88000000000E+00 0. -1.
        -11    1    4    4    0    0 -0.10493853008E-01 -0.61364759081E-01  0.49890488063E-01  0.79781429720E-01  0.51100000000E-03 0. -1.
         11    1    4    4    0    0 -0.20587394587E-01 -0.43882743299E-01  0.22986525175E-01  0.53648648035E-01  0.51100000000E-03 0.  1.
</event>
<event>
 8    1  0.1064884E+005  0.1043930E+01  0.7957747E-01            NaN
         13   -1    0    0    0    0  0.00000000000E+00  0.00000000000E+00  0.74505805969E-08  0.10566000000E+00  0.10566000000E+00 0. -1.
     999900   -1    0    0    0    0 -0.00000000000E+00 -0.00000000000E+00 -0.74505805969E-08  0.93827000000E+00  0.93827000000E+00 0.  1.
     999902    2    1    2    0    0 -0.10730292189E-01  0.23266732970E-02  0.21088117152E-01  0.10201547763E+01  0.10198776918E+01 0.  0.
     999903    2    3    3    0    0  0.57116406073E-01 -0.11428614472E+00  0.18998852786E-01  0.12987050210E+00  0.13482736740E-01 0.  0.
         14    1    1    2    0    0  0.10730292189E-01 -0.23266732970E-02 -0.21088117152E-01  0.23775223745E-01  0.00000000000E+00 0.  1.
     999901    1    3    3    0    0 -0.67846698262E-01  0.11661281802E+00  0.20892643662E-02  0.89028427416E+00  0.88000000000E+00 0. -1.
        -11    1    4    4    0    0  0.19057372833E-01 -0.49560703542E-01  0.36191550916E-02  0.53224112951E-01  0.51100000000E-03 0. -1.
         11    1    4    4    0    0  0.38059033240E-01 -0.64725441177E-01  0.15379697694E-01  0.76646389144E-01  0.51100000000E-03 0.  1.
</event>
<event>
 8    1  0.1064884E+005  0.1043930E+01  0.7957747E-01            NaN
         13   -1    0    0    0    0  0.00000000000E+00  0.00000000000E+00  0.74505805969E-08  0.10566000000E+00  0.10566000000E+00 0.  1.
     999900   -1    0    0    0    0 -0.00000000000E+00 -0.00000000000E+00 -0.74505805969E-08  0.93827000000E+00  0.93827000000E+00 0.  1.
     999902    2    1    2    0    0  0.17299539084E-02 -0.17830611055E-01 -0.15574286532E-01  0.10201922277E+01  0.10199160258E+01 0.  0.
     999903    2    3    3    0    0 -0.68794649937E-01  0.10489983889E+00  0.16992732464E-01  0.12828578992E+00  0.20780059681E-01 0.  0.
         14    1    1    2    0    0 -0.17299539084E-02  0.17830611055E-01  0.15574286532E-01  0.23737772265E-01  0.00000000000E+00 0. -1.
     999901    1    3    3    0    0  0.70524603845E-01 -0.12273044994E+00 -0.32567018996E-01  0.89190643782E+00  0.88000000000E+00 0.  1.
        -11    1    4    4    0    0 -0.62423161518E-01  0.84509764278E-01  0.19192672501E-01  0.10680435923E+00  0.51100000000E-03 0. -1.
         11    1    4    4    0    0 -0.63714884186E-02  0.20390074610E-01 -0.21999400369E-02  0.21481430688E-01  0.51100000000E-03 0.  1.
</event>
<event>
 8    1  0.1064884E+005  0.1043930E+01  0.7957747E-01            NaN
         13   -1    0    0    0    0  0.00000000000E+00  0.00000000000E+00  0.74505805969E-08  0.10566000000E+00  0.10566000000E+00 0. -1.
     999900   -1    0    0    0    0 -0.00000000000E+00 -0.00000000000E+00 -0.74505805969E-08  0.93827000000E+00  0.93827000000E+00 0. -1.
     999902    2    1    2    0    0 -0.96679637923E-02  0.17937737818E-01 -0.12459639428E-01  0.10200453904E+01  0.10197657201E+01 0.  0.
     999903    2    3    3    0    0  0.85750073148E-01 -0.58601168425E-01  0.71936376073E-01  0.12758503083E+00  0.17774304580E-01 0.  0.
         14    1    1    2    0    0  0.96679637923E-02 -0.17937737818E-01  0.12459639428E-01  0.23884609617E-01  0.00000000000E+00 0.  1.
     999901    1    3    3    0    0 -0.95418036940E-01  0.76538906243E-01 -0.84396015501E-01  0.89246035955E+00  0.88000000000E+00 0.  1.
        -11    1    4    4    0    0  0.22862577020E-01 -0.78234965693E-02  0.21210036979E-01  0.32156357322E-01  0.51100000000E-03 0.  1.
         11    1    4    4    0    0  0.62887496128E-01 -0.50777671856E-01  0.50726339094E-01  0.95428673507E-01  0.51100000000E-03 0. -1.
</event>
<event>
 8    1  0.1064884E+005  0.1043930E+01  0.7957747E-01            NaN
         13   -1    0    0    0    0  0.00000000000E+00  0.00000000000E+00  0.74505805969E-08  0.10566000000E+00  0.10566000000E+00 0. -1.
     999900   -1    0    0    0    0 -0.00000000000E+00 -0.00000000000E+00 -0.74505805969E-08  0.93827000000E+00  0.93827000000E+00 0.  1.
     999902    2    1    2    0    0  0.20411206558E-01  0.15746018223E-01 -0.17518588374E-02  0.10180915896E+01  0.10177636569E+01 0.  0.
     999903    2    3    3    0    0 -0.85527222972E-01 -0.88215245420E-01  0.18500262389E-01  0.12543205561E+00  0.17149503578E-01 0.  0.
         14    1    1    2    0    0 -0.20411206558E-01 -0.15746018223E-01  0.17518588374E-02  0.25838410408E-01  0.00000000000E+00 0.  1.
     999901    1    3    3    0    0  0.10593842953E+00  0.10396126364E+00 -0.20252121226E-01  0.89265953398E+00  0.88000000000E+00 0.  1.
        -11    1    4    4    0    0 -0.31719466807E-01 -0.43842493267E-01  0.11603406116E-01  0.55346083375E-01  0.51100000000E-03 0. -1.
         11    1    4    4    0    0 -0.53807756165E-01 -0.44372752152E-01  0.68968562728E-02  0.70085972238E-01  0.51100000000E-03 0.  1.
</event>
<event>
 8    1  0.1064884E+005  0.1043930E+01  0.7957747E-01            NaN
         13   -1    0    0    0    0  0.00000000000E+00  0.00000000000E+00  0.74505805969E-08  0.10566000000E+00  0.10566000000E+00 0.  1.
     999900   -1    0    0    0    0 -0.00000000000E+00 -0.00000000000E+00 -0.74505805969E-08  0.93827000000E+00  0.93827000000E+00 0. -1.
     999902    2    1    2    0    0 -0.18152589976E-01 -0.11671220651E-01 -0.79855142933E-02  0.10209190819E+01  0.10206597226E+01 0.  0.
     999903    2    3    3    0    0  0.49385255168E-01  0.35964196414E-01  0.11174909287E+00  0.12897352881E+00  0.20346609686E-01 0.  0.
         14    1    1    2    0    0  0.18152589976E-01  0.11671220651E-01  0.79855142933E-02  0.23010918123E-01  0.00000000000E+00 0.  1.
     999901    1    3    3    0    0 -0.67537845144E-01 -0.47635417065E-01 -0.11973460716E+00  0.89194555307E+00  0.88000000000E+00 0. -1.
        -11    1    4    4    0    0  0.27496715264E-01  0.12114737176E-01  0.38121083779E-01  0.48541882500E-01  0.51100000000E-03 0. -1.
         11    1    4    4    0    0  0.21888539904E-01  0.23849459237E-01  0.73628009086E-01  0.80431646310E-01  0.51100000000E-03 0.  1.
</event>
<event>
 8    1  0.1064884E+005  0.1043930E+01  0.7957747E-01            NaN
         13   -1    0    0    0    0  0.00000000000E+00  0.00000000000E+00  0.74505805969E-08  0.10566000000E+00  0.10566000000E+00 0. -1.
     999900   -1    0    0    0    0 -0.00000000000E+00 -0.00000000000E+00 -0.74505805969E-08  0.93827000000E+00  0.93827000000E+00 0. -1.
     999902    2    1    2    0    0  0.65942910277E-02 -0.12897070594E-01 -0.11167790927E-01  0.10256396020E+01  0.10254765012E+01 0.  0.
     999903    2    3    3    0    0 -0.82258839763E-02 -0.11517524945E+00  0.69048020565E-01  0.13596829200E+00  0.19665808735E-01 0.  0.
         14    1    1    2    0    0 -0.65942910277E-02  0.12897070594E-01  0.11167790927E-01  0.18290397980E-01  0.00000000000E+00 0. -1.
     999901    1    3    3    0    0  0.14820175004E-01  0.10227817885E+00 -0.80215811492E-01  0.88967131002E+00  0.88000000000E+00 0.  1.
        -11    1    4    4    0    0 -0.18812283841E-02 -0.88825161861E-01  0.60707299214E-01  0.10760616013E+00  0.51100000000E-03 0.  1.
         11    1    4    4    0    0 -0.63446555921E-02 -0.26350087587E-01  0.83407213514E-02  0.28362131868E-01  0.51100000000E-03 0. -1.
</event>
<event>
 8    1  0.1064884E+005  0.1043930E+01  0.7957747E-01            NaN
         13   -1    0    0    0    0  0.00000000000E+00  0.00000000000E+00  0.74505805969E-08  0.10566000000E+00  0.10566000000E+00 0. -1.
     999900   -1    0    0    0    0 -0.00000000000E+00 -0.00000000000E+00 -0.74505805969E-08  0.93827000000E+00  0.93827000000E+00 0.  1.
     999902    2    1    2    0    0 -0.17807994075E-01  0.19054955159E-01  0.27814641081E-02  0.10177011512E+01  0.10173631016E+01 0.  0.
     999903    2    3    3    0    0  0.38532140204E-01  0.99346226373E-01 -0.70660523921E-01  0.12921106986E+00  0.18659914504E-01 0.  0.
         14    1    1    2    0    0  0.17807994075E-01 -0.19054955159E-01 -0.27814641081E-02  0.26228848844E-01  0.00000000000E+00 0. -1.
     999901    1    3    3    0    0 -0.56340134279E-01 -0.80291271213E-01  0.73441988029E-01  0.88849008130E+00  0.88000000000E+00 0.  1.
        -11    1    4    4    0    0  0.15847051057E-01  0.20129744823E-01 -0.13897459230E-01  0.29150234097E-01  0.51100000000E-03 0.  1.
         11    1    4    4    0    0  0.22685089147E-01  0.79216481549E-01 -0.56763064690E-01  0.10006083576E+00  0.51100000000E-03 0. -1.
</event>
<event>
 8    1  0.1064884E+005  0.1043930E+01  0.7957747E-01            NaN
         13   -1    0    0    0    0  0.00000000000E+00  0.00000000000E+00  0.74505805969E-08  0.10566000000E+00  0.10566000000E+00 0. -1.
     999900   -1    0    0    0    0 -0.00000000000E+00 -0.00000000000E+00 -0.74505805969E-08  0.93827000000E+00  0.93827000000E+00 0.  1.
     999902    2    1    2    0    0  0.72823511457E-02  0.18358113906E-01 -0.12870054306E-01  0.10203568949E+01  0.10200845562E+01 0.  0.
     999903    2    3    3    0    0  0.91549777419E-01  0.62583594957E-01 -0.71100997176E-01  0.13331251329E+00  0.20464757448E-01 0.  0.
         14    1    1    2    0    0 -0.72823511457E-02 -0.18358113906E-01  0.12870054306E-01  0.23573105061E-01  0.00000000000E+00 0. -1.
     999901    1    3    3    0    0 -0.84267426273E-01 -0.44225481051E-01  0.58230942870E-01  0.88704438165E+00  0.88000000000E+00 0. -1.
        -11    1    4    4    0    0  0.54386576941E-01  0.37390964056E-01 -0.30227072112E-01  0.72594221216E-01  0.51100000000E-03 0.  1.
         11    1    4    4    0    0  0.37163200478E-01  0.25192630901E-01 -0.40873925064E-01  0.60718292076E-01  0.51100000000E-03 0. -1.
</event>
<event>
 8    1  0.1064884E+005  0.1043930E+01  0.7957747E-01            NaN
         13   -1    0    0    0    0  0.00000000000E+00  0.00000000000E+00  0.74505805969E-08  0.10566000000E+00  0.10566000000E+00 0. -1.
     999900   -1    0    0    0    0 -0.00000000000E+00 -0.00000000000E+00 -0.74505805969E-08  0.93827000000E+00  0.93827000000E+00 0. -1.
     999902    2    1    2    0    0  0.65906125506E-02 -0.52988338748E-03  0.23092474235E-01  0.10199096062E+01  0.10196267089E+01 0.  0.
     999903    2    3    3    0    0  0.41743123898E-02 -0.51712773186E-01 -0.11493279849E+00  0.12767841275E+00  0.20014822517E-01 0.  0.
         14    1    1    2    0    0 -0.65906125506E-02  0.52988338748E-03 -0.23092474235E-01  0.24020393763E-01  0.00000000000E+00 0.  1.
     999901    1    3    3    0    0  0.24163001608E-02  0.51182889799E-01  0.13802527272E+00  0.89223119348E+00  0.88000000000E+00 0.  1.
        -11    1    4    4    0    0 -0.66459583648E-02 -0.74048504383E-02 -0.22306936182E-01  0.24430740787E-01  0.51100000000E-03 0. -1.
         11    1    4    4    0    0  0.10820270755E-01 -0.44307922748E-01 -0.92625862307E-01  0.10324767197E+00  0.51100000000E-03 0.  1.
</event>
<event>
 8    1  0.1064884E+005  0.1043930E+01  0.7957747E-01            NaN
         13   -1    0    0    0    0  0.00000000000E+00  0.00000000000E+00  0.74505805969E-08  0.10566000000E+00  0.10566000000E+00 0.  1.
     999900   -1    0    0    0    0 -0.00000000000E+00 -0.00000000000E+00 -0.74505805969E-08  0.93827000000E+00  0.93827000000E+00 0. -1.
     999902    2    1    2    0    0 -0.22657121910E-01  0.14713770576E-01 -0.53762198954E-02  0.10163846926E+01  0.10160113678E+01 0.  0.
     999903    2    3    3    0    0  0.63738061559E-01  0.10662822099E+00 -0.20331919743E-01  0.12726374086E+00  0.18723108020E-01 0.  0.
         14    1    1    2    0    0  0.22657121910E-01 -0.14713770576E-01  0.53762198954E-02  0.27545307371E-01  0.00000000000E+00 0.  1.
     999901    1    3    3    0    0 -0.86395183469E-01 -0.91914450413E-01  0.14955699848E-01  0.88912095177E+00  0.88000000000E+00 0. -1.
        -11    1    4    4    0    0  0.15754844169E-01  0.41663127381E-01 -0.11574331673E-01  0.46024532291E-01  0.51100000000E-03 0. -1.
         11    1    4    4    0    0  0.47983217390E-01  0.64965093608E-01 -0.87575880705E-02  0.81239208566E-01  0.51100000000E-03 0.  1.
</event>
<event>
 8    1  0.1064884E+005  0.1043930E+01  0.7957747E-01            NaN
         13   -1    0    0    0    0  0.00000000000E+00  0.00000000000E+00  0.74505805969E-08  0.10566000000E+00  0.10566000000E+00 0. -1.
     999900   -1    0    0    0    0 -0.00000000000E+00 -0.00000000000E+00 -0.74505805969E-08  0.93827000000E+00  0.93827000000E+00 0. -1.
     999902    2    1    2    0    0  0.14907771589E-01 -0.69396989994E-02  0.15615081221E-01  0.10212533195E+01  0.10210015234E+01 0.  0.
     999903    2    3    3    0    0  0.97751950176E-01 -0.83510561425E-01 -0.27651834200E-01  0.13299756757E+00  0.19856268869E-01 0.  0.
         14    1    1    2    0    0 -0.14907771589E-01  0.69396989994E-02 -0.15615081221E-01  0.22676680478E-01  0.00000000000E+00 0.  1.
     999901    1    3    3    0    0 -0.82844178587E-01  0.76570862426E-01  0.43266915421E-01  0.88825575195E+00  0.88000000000E+00 0.  1.
        -11    1    4    4    0    0  0.65699959372E-01 -0.60440347467E-01 -0.10322889887E-01  0.89868478568E-01  0.51100000000E-03 0.  1.
         11    1    4    4    0    0  0.32051990804E-01 -0.23070213958E-01 -0.17328944313E-01  0.43129089007E-01  0.51100000000E-03 0. -1.
</event>
<event>
 8    1  0.1064884E+005  0.1043930E+01  0.7957747E-01            NaN
         13   -1    0    0    0    0  0.00000000000E+00  0.00000000000E+00  0.74505805969E-08  0.10566000000E+00  0.10566000000E+00 0.  1.
     999900   -1    0    0    0    0 -0.00000000000E+00 -0.00000000000E+00 -0.74505805969E-08  0.93827000000E+00  0.93827000000E+00 0. -1.
     999902    2    1    2    0    0  0.11469744280E-02  0.22202663499E-01  0.11879366039E-02  0.10216660154E+01  0.10214234000E+01 0.  0.
     999903    2    3    3    0    0 -0.12551569568E+00  0.29371724966E-01 -0.22039484958E-01  0.13226490198E+00  0.19783258343E-01 0.  0.
         14    1    1    2    0    0 -0.11469744280E-02 -0.22202663499E-01 -0.11879366039E-02  0.22263984597E-01  0.00000000000E+00 0. -1.
     999901    1    3    3    0    0  0.12666267010E+00 -0.71690614674E-02  0.23227421562E-01  0.88940111342E+00  0.88000000000E+00 0. -1.
        -11    1    4    4    0    0 -0.62875878918E-01  0.22401853519E-01 -0.48023465051E-02  0.66921916019E-01  0.51100000000E-03 0. -1.
         11    1    4    4    0    0 -0.62639816759E-01  0.69698714475E-02 -0.17237138453E-01  0.65342985963E-01  0.51100000000E-03 0.  1.
</event>
<event>
 8    1  0.1064884E+005  0.1043930E+01  0.7957747E-01            NaN
         13   -1    0    0    0    0  0.00000000000E+00  0.00000000000E+00  0.74505805969E-08  0.10566000000E+00  0.10566000000E+00 0.  1.
     999900   -1    0    0    0    0 -0.00000000000E+00 -0.00000000000E+00 -0.74505805969E-08  0.93827000000E+00  0.93827000000E+00 0. -1.
     999902    2    1    2    0    0 -0.12466985949E-01  0.19503789489E-01 -0.26958308402E-02  0.10206256861E+01  0.10203595935E+01 0.  0.
     999903    2    3    3    0    0 -0.33093812297E-01  0.73814436733E-02 -0.12588549110E+00  0.13172293008E+00  0.18817208039E-01 0.  0.
         14    1    1    2    0    0  0.12466985949E-01 -0.19503789489E-01  0.26958308402E-02  0.23304313914E-01  0.00000000000E+00 0. -1.
     999901    1    3    3    0    0  0.20626826348E-01  0.12122345816E-01  0.12318966026E+00  0.88890275600E+00  0.88000000000E+00 0.  1.
        -11    1    4    4    0    0 -0.97280770380E-02 -0.37935488164E-02 -0.60427994940E-01  0.61325607938E-01  0.51100000000E-03 0.  1.
         11    1    4    4    0    0 -0.23365735259E-01  0.11174992490E-01 -0.65457496156E-01  0.70397322147E-01  0.51100000000E-03 0. -1.
</event>
<event>
 8    1  0.1064884E+005  0.1043930E+01  0.7957747E-01            NaN
         13   -1    0    0    0    0  0.00000000000E+00  0.00000000000E+00  0.74505805969E-08  0.10566000000E+00  0.10566000000E+00 0.  1.
     999900   -1    0    0    0    0 -0.00000000000E+00 -0.00000000000E+00 -0.74505805969E-08  0.93827000000E+00  0.93827000000E+00 0.  1.
     999902    2    1    2    0    0 -0.16488673917E-01  0.74044638322E-02 -0.15312555474E-01  0.10202408293E+01  0.10199657705E+01 0.  0.
     999903    2    3    3    0    0  0.11509212148E+00  0.49665940011E-01 -0.25104281205E-01  0.12940110413E+00  0.20037933847E-01 0.  0.
         14    1    1    2    0    0  0.16488673917E-01 -0.74044638322E-02  0.15312555474E-01  0.23689170676E-01  0.00000000000E+00 0.  1.
     999901    1    3    3    0    0 -0.13158079539E+00 -0.42261476179E-01  0.97917257314E-02  0.89083972519E+00  0.88000000000E+00 0.  1.
        -11    1    4    4    0    0  0.33121915871E-01  0.18708331870E-01  0.72517808440E-03  0.38050624129E-01  0.51100000000E-03 0. -1.
         11    1    4    4    0    0  0.81970205606E-01  0.30957608141E-01 -0.25829459289E-01  0.91350480005E-01  0.51100000000E-03 0.  1.
</event>
<event>
 8    1  0.1064884E+005  0.1043930E+01  0.7957747E-01            NaN
         13   -1    0    0    0    0  0.00000000000E+00  0.00000000000E+00  0.74505805969E-08  0.10566000000E+00  0.10566000000E+00 0.  1.
     999900   -1    0    0    0    0 -0.00000000000E+00 -0.00000000000E+00 -0.74505805969E-08  0.93827000000E+00  0.93827000000E+00 0.  1.
     999902    2    1    2    0    0 -0.22747189843E-01  0.41293642317E-03 -0.47730142613E-02  0.10206837782E+01  0.10204190258E+01 0.  0.
     999903    2    3    3    0    0 -0.51656727457E-01 -0.72355862317E-01  0.94992507482E-01  0.13159198387E+00  0.19725248760E-01 0.  0.
         14    1    1    2    0    0  0.22747189843E-01 -0.41293642317E-03  0.47730142613E-02  0.23246221787E-01  0.00000000000E+00 0.  1.
     999901    1    3    3    0    0  0.28909537614E-01  0.72768798740E-01 -0.99765521743E-01  0.88909179434E+00  0.88000000000E+00 0.  1.
        -11    1    4    4    0    0 -0.19976138580E-01 -0.16199232452E-01  0.19298738809E-01  0.32158415465E-01  0.51100000000E-03 0.  1.
         11    1    4    4    0    0 -0.31680588877E-01 -0.56156629864E-01  0.75693768673E-01  0.99433568407E-01  0.51100000000E-03 0. -1.
</event>
<event>
 8    1  0.1064884E+005  0.1043930E+01  0.7957747E-01            NaN
         13   -1    0    0    0    0  0.00000000000E+00  0.00000000000E+00  0.74505805969E-08  0.10566000000E+00  0.10566000000E+00 0. -1.
     999900   -1    0    0    0    0 -0.00000000000E+00 -0.00000000000E+00 -0.74505805969E-08  0.93827000000E+00  0.93827000000E+00 0.  1.
     999902    2    1    2    0    0 -0.14555202337E-01  0.65283942721E-02 -0.17118338167E-01  0.10205310396E+01  0.10202627561E+01 0.  0.
     999903    2    3    3    0    0  0.92553521283E-01  0.70557188276E-01 -0.56366312853E-01  0.13086123081E+00  0.20075591751E-01 0.  0.
         14    1    1    2    0    0  0.14555202337E-01 -0.65283942721E-02  0.17118338167E-01  0.23398960414E-01  0.00000000000E+00 0. -1.
     999901    1    3    3    0    0 -0.10710872362E+00 -0.64028794004E-01  0.39247974685E-01  0.88966980878E+00  0.88000000000E+00 0. -1.
        -11    1    4    4    0    0  0.22191930560E-01  0.82077591710E-02 -0.15882714174E-01  0.28502119625E-01  0.51100000000E-03 0. -1.
         11    1    4    4    0    0  0.70361590723E-01  0.62349429105E-01 -0.40483598679E-01  0.10235911118E+00  0.51100000000E-03 0.  1.
</event>
<event>
 8    1  0.1064884E+005  0.1043930E+01  0.7957747E-01            NaN
         13   -1    0    0    0    0  0.00000000000E+00  0.00000000000E+00  0.74505805969E-08  0.10566000000E+00  0.10566000000E+00 0.  1.
     999900   -1    0    0    0    0 -0.00000000000E+00 -0.00000000000E+00 -0.74505805969E-08  0.93827000000E+00  0.93827000000E+00 0. -1.
     999902    2    1    2    0    0  0.84021124479E-02  0.79457541657E-02  0.20653613456E-01  0.10202592955E+01  0.10199846704E+01 0.  0.
     999903    2    3    3    0    0 -0.82955016962E-01  0.11854663962E-02  0.10065990460E+00  0.13189403661E+00  0.19511030945E-01 0.  0.
         14    1    1    2    0    0 -0.84021124479E-02 -0.79457541657E-02 -0.20653613456E-01  0.23670704502E-01  0.00000000000E+00 0. -1.
     999901    1    3    3    0    0  0.91357129410E-01  0.67602877695E-02 -0.80006291142E-01  0.88836525889E+00  0.88000000000E+00 0. -1.
        -11    1    4    4    0    0 -0.61429392864E-01 -0.52805471405E-02  0.82495035130E-01  0.10299100168E+00  0.51100000000E-03 0.  1.
         11    1    4    4    0    0 -0.21525624098E-01  0.64660135367E-02  0.18164869468E-01  0.28903034922E-01  0.51100000000E-03 0. -1.
</event>
<event>
 8    1  0.1064884E+005  0.1043930E+01  0.7957747E-01            NaN
         13   -1    0    0    0    0  0.00000000000E+00  0.00000000000E+00  0.74505805969E-08  0.10566000000E+00  0.10566000000E+00 0. -1.
     999900   -1    0    0    0    0 -0.00000000000E+00 -0.00000000000E+00 -0.74505805969E-08  0.93827000000E+00  0.93827000000E+00 0.  1.
     999902    2    1    2    0    0  0.16413316539E-01 -0.13546100212E-01 -0.10233249298E-01  0.10203161655E+01  0.10200428738E+01 0.  0.
     999903    2    3    3    0    0  0.87996902758E-01 -0.79223577677E-01 -0.57809682443E-01  0.13369265017E+00  0.22625984413E-01 0.  0.
         14    1    1    2    0    0 -0.16413316539E-01  0.13546100212E-01  0.10233249298E-01  0.23613834546E-01  0.00000000000E+00 0. -1.
     999901    1    3    3    0    0 -0.71583586218E-01  0.65677477466E-01  0.47576433145E-01  0.88662351528E+00  0.88000000000E+00 0. -1.
        -11    1    4    4    0    0  0.46235112036E-01 -0.49133770460E-01 -0.21918394518E-01  0.70940045981E-01  0.51100000000E-03 0.  1.
         11    1    4    4    0    0  0.41761790722E-01 -0.30089807217E-01 -0.35891287925E-01  0.62752604190E-01  0.51100000000E-03 0. -1.
</event>
<event>
 8    1  0.1064884E+005  0.1043930E+01  0.7957747E-01            NaN
         13   -1    0    0    0    0  0.00000000000E+00  0.00000000000E+00  0.74505805969E-08  0.10566000000E+00  0.10566000000E+00 0.  1.
     999900   -1    0    0    0    0 -0.00000000000E+00 -0.00000000000E+00 -0.74505805969E-08  0.93827000000E+00  0.93827000000E+00 0. -1.
     999902    2    1    2    0    0 -0.11640195292E-01 -0.17549782238E-01  0.10803414763E-01  0.10202613969E+01  0.10199868211E+01 0.  0.
     999903    2    3    3    0    0  0.17641868536E-01  0.12221537692E+00  0.29603725680E-01  0.12855225671E+00  0.20036672596E-01 0.  0.
         14    1    1    2    0    0  0.11640195292E-01  0.17549782238E-01 -0.10803414763E-01  0.23668603118E-01  0.00000000000E+00 0.  1.
     999901    1    3    3    0    0 -0.29282063828E-01 -0.13976515916E+00 -0.18800310918E-01  0.89170914017E+00  0.88000000000E+00 0.  1.
        -11    1    4    4    0    0 -0.14461902565E-02  0.30468039472E-01  0.13932802895E-01  0.33537695404E-01  0.51100000000E-03 0. -1.
         11    1    4    4    0    0  0.19088058792E-01  0.91747337452E-01  0.15670922786E-01  0.95014561305E-01  0.51100000000E-03 0.  1.
</event>
<event>
 8    1  0.1064884E+005  0.1043930E+01  0.7957747E-01            NaN
         13   -1    0    0    0    0  0.00000000000E+00  0.00000000000E+00  0.74505805969E-08  0.10566000000E+00  0.10566000000E+00 0. -1.
     999900   -1    0    0    0    0 -0.00000000000E+00 -0.00000000000E+00 -0.74505805969E-08  0.93827000000E+00  0.93827000000E+00 0.  1.
     999902    2    1    2    0    0  0.19619255601E-01 -0.13517269435E-01 -0.11489581808E-02  0.10200772880E+01  0.10197983731E+01 0.  0.
     999903    2    3    3    0    0  0.73482189723E-02 -0.95669353969E-01  0.87857974550E-01  0.13169573858E+00  0.20448037975E-01 0.  0.
         14    1    1    2    0    0 -0.19619255601E-01  0.13517269435E-01  0.11489581808E-02  0.23852711968E-01  0.00000000000E+00 0. -1.
     999901    1    3    3    0    0  0.12271036629E-01  0.82152084535E-01 -0.89006932731E-01  0.88838154945E+00  0.88000000000E+00 0.  1.
        -11    1    4    4    0    0  0.43265585766E-02 -0.52027597091E-01  0.61283493981E-01  0.80507873675E-01  0.51100000000E-03 0. -1.
         11    1    4    4    0    0  0.30216603958E-02 -0.43641756879E-01  0.26574480570E-01  0.51187864905E-01  0.51100000000E-03 0.  1.
</event>
<event>
 8    1  0.1064884E+005  0.1043930E+01  0.7957747E-01            NaN
         13   -1    0    0    0    0  0.00000000000E+00  0.00000000000E+00  0.74505805969E-08  0.10566000000E+00  0.10566000000E+00 0. -1.
     999900   -1    0    0    0    0 -0.00000000000E+00 -0.00000000000E+00 -0.74505805969E-08  0.93827000000E+00  0.93827000000E+00 0. -1.
     999902    2    1    2    0    0  0.21440679429E-01 -0.71179112743E-02  0.82619381741E-02  0.10198753327E+01  0.10195916179E+01 0.  0.
     999903    2    3    3    0    0  0.11877473338E+00  0.40917769424E-01 -0.35521921886E-01  0.13212628537E+00  0.20343234901E-01 0.  0.
         14    1    1    2    0    0 -0.21440679429E-01  0.71179112743E-02 -0.82619381741E-02  0.24054667274E-01  0.00000000000E+00 0.  1.
     999901    1    3    3    0    0 -0.97334053955E-01 -0.48035680698E-01  0.43783860060E-01  0.88774904736E+00  0.88000000000E+00 0.  1.
        -11    1    4    4    0    0  0.74495420423E-01  0.22288778323E-01 -0.31565008839E-01  0.83922393955E-01  0.51100000000E-03 0. -1.
         11    1    4    4    0    0  0.44279312961E-01  0.18628991101E-01 -0.39569130475E-02  0.48203891415E-01  0.51100000000E-03 0.  1.
</event>
<event>
 8    1  0.1064884E+005  0.1043930E+01  0.7957747E-01            NaN
         13   -1    0    0    0    0  0.00000000000E+00  0.00000000000E+00  0.74505805969E-08  0.10566000000E+00  0.10566000000E+00 0.  1.
     999900   -1    0    0    0    0 -0.00000000000E+00 -0.00000000000E+00 -0.74505805969E-08  0.93827000000E+00  0.93827000000E+00 0.  1.
     999902    2    1    2    0    0  0.93168862524E-02 -0.24814637910E-01  0.46398287089E-03  0.10174198905E+01  0.10170744554E+01 0.  0.
     999903    2    3    3    0    0 -0.98802262810E-03 -0.12548735874E+00 -0.31850679866E-01  0.13103090972E+00  0.20163831537E-01 0.  0.
         14    1    1    2    0    0 -0.93168862524E-02  0.24814637910E-01 -0.46398287089E-03  0.26510109471E-01  0.00000000000E+00 0.  1.
     999901    1    3    3    0    0  0.10304908881E-01  0.10067272083E+00  0.32314662737E-01  0.88638898081E+00  0.88000000000E+00 0. -1.
        -11    1    4    4    0    0  0.21467390370E-02 -0.86748545156E-01 -0.12702062770E-01  0.87701323221E-01  0.51100000000E-03 0. -1.
         11    1    4    4    0    0 -0.31347616651E-02 -0.38738813586E-01 -0.19148617096E-01  0.43329586502E-01  0.51100000000E-03 0.  1.
</event>
<event>
 8    1  0.1064884E+005  0.1043930E+01  0.7957747E-01            NaN
         13   -1    0    0    0    0  0.00000000000E+00  0.00000000000E+00  0.74505805969E-08  0.10566000000E+00  0.10566000000E+00 0.  1.
     999900   -1    0    0    0    0 -0.00000000000E+00 -0.00000000000E+00 -0.74505805969E-08  0.93827000000E+00  0.93827000000E+00 0.  1.
     999902    2    1    2    0    0  0.22038806235E-01 -0.77808471511E-02  0.26184654036E-02  0.10204117746E+01  0.10201407172E+01 0.  0.
     999903    2    3    3    0    0  0.40265966526E-01  0.12243468458E+00 -0.32197399347E-02  0.13062393549E+00  0.20991563755E-01 0.  0.
         14    1    1    2    0    0 -0.22038806235E-01  0.77808471511E-02 -0.26184654036E-02  0.23518225353E-01  0.00000000000E+00 0.  1.
     999901    1    3    3    0    0 -0.18227160291E-01 -0.13021553173E+00  0.58382053383E-02  0.88978783916E+00  0.88000000000E+00 0. -1.
        -11    1    4    4    0    0  0.21208227485E-01  0.87981488305E-01 -0.84736577540E-02  0.90898818442E-01  0.51100000000E-03 0. -1.
         11    1    4    4    0    0  0.19057739041E-01  0.34453196273E-01  0.52539178193E-02  0.39725117045E-01  0.51100000000E-03 0.  1.
</event>
<event>
 8    1  0.1064884E+005  0.1043930E+01  0.7957747E-01            NaN
         13   -1    0    0    0    0  0.00000000000E+00  0.00000000000E+00  0.74505805969E-08  0.10566000000E+00  0.10566000000E+00 0.  1.
     999900   -1    0    0    0    0 -0.00000000000E+00 -0.00000000000E+00 -0.74505805969E-08  0.93827000000E+00  0.93827000000E+00 0. -1.
     999902    2    1    2    0    0  0.14371204198E-01 -0.14950952366E-01 -0.79030042944E-02  0.10217372092E+01  0.10214961599E+01 0.  0.
     999903    2    3    3    0    0 -0.11349308340E+00  0.52721587704E-01 -0.27175085551E-01  0.12971688329E+00  0.20681845809E-01 0.  0.
         14    1    1    2    0    0 -0.14371204198E-01  0.14950952366E-01  0.79030042944E-02  0.22192790803E-01  0.00000000000E+00 0.  1.
     999901    1    3    3    0    0  0.12786428759E+00 -0.67672540070E-01  0.19272081256E-01  0.89202032591E+00  0.88000000000E+00 0. -1.
        -11    1    4    4    0    0 -0.92307362586E-01  0.36080575653E-01 -0.27191791582E-01  0.10277213522E+00  0.51100000000E-03 0.  1.
         11    1    4    4    0    0 -0.21185720810E-01  0.16641012051E-01  0.16706031507E-04  0.26944748067E-01  0.51100000000E-03 0. -1.
</event>
<event>
 8    1  0.1064884E+005  0.1043930E+01  0.7957747E-01            NaN
         13   -1    0    0    0    0  0.00000000000E+00  0.00000000000E+00  0.74505805969E-08  0.10566000000E+00  0.10566000000E+00 0. -1.
     999900   -1    0    0    0    0 -0.00000000000E+00 -0.00000000000E+00 -0.74505805969E-08  0.93827000000E+00  0.93827000000E+00 0. -1.
     999902    2    1    2    0    0 -0.89347830676E-02 -0.21963687356E-01 -0.28318933792E-02  0.10200500182E+01  0.10197704576E+01 0.  0.
     999903    2    3    3    0    0 -0.29629626474E-01 -0.69118402346E-01 -0.10718950673E+00  0.13238884683E+00  0.19543492662E-01 0.  0.
         14    1    1    2    0    0  0.89347830676E-02  0.21963687356E-01  0.28318933792E-02  0.23879981802E-01  0.00000000000E+00 0.  1.
     999901    1    3    3    0    0  0.20694843406E-01  0.47154714989E-01  0.10435761335E+00  0.88766117137E+00  0.88000000000E+00 0.  1.
        -11    1    4    4    0    0 -0.82239849297E-04 -0.21641887042E-01 -0.26571698692E-01  0.34273814065E-01  0.51100000000E-03 0.  1.
         11    1    4    4    0    0 -0.29547386625E-01 -0.47476515303E-01 -0.80617808033E-01  0.98115032766E-01  0.51100000000E-03 0. -1.
</event>
<event>
 8    1  0.1064884E+005  0.1043930E+01  0.7957747E-01            NaN
         13   -1    0    0    0    0  0.00000000000E+00  0.00000000000E+00  0.74505805969E-08  0.10566000000E+00  0.10566000000E+00 0. -1.
     999900   -1    0    0    0    0 -0.00000000000E+00 -0.00000000000E+00 -0.74505805969E-08  0.93827000000E+00  0.93827000000E+00 0.  1.
     999902    2    1    2    0    0  0.16741199234E-01  0.17181091569E-01  0.49683423020E-03  0.10199361570E+01  0.10196538922E+01 0.  0.
     999903    2    3    3    0    0 -0.90819539092E-01 -0.30244630345E-01 -0.83050547181E-01  0.12819702669E+00  0.19343162068E-01 0.  0.
         14    1    1    2    0    0 -0.16741199234E-01 -0.17181091569E-01 -0.49683423020E-03  0.23993843035E-01  0.00000000000E+00 0.  1.
     999901    1    3    3    0    0  0.10756073833E+00  0.47425721914E-01  0.83547381411E-01  0.89173913028E+00  0.88000000000E+00 0. -1.
        -11    1    4    4    0    0 -0.34952482163E-01 -0.17261959344E-01 -0.44110645584E-01  0.58869868563E-01  0.51100000000E-03 0.  1.
         11    1    4    4    0    0 -0.55867056929E-01 -0.12982671001E-01 -0.38939901597E-01  0.69327158125E-01  0.51100000000E-03 0. -1.
</event>
<event>
 8    1  0.1064884E+005  0.1043930E+01  0.7957747E-01            NaN
         13   -1    0    0    0    0  0.00000000000E+00  0.00000000000E+00  0.74505805969E-08  0.10566000000E+00  0.10566000000E+00 0.  1.
     999900   -1    0    0    0    0 -0.00000000000E+00 -0.00000000000E+00 -0.74505805969E-08  0.93827000000E+00  0.93827000000E+00 0.  1.
     999902    2    1    2    0    0 -0.15461454007E-01 -0.84054533996E-02  0.15361272475E-01  0.10205702719E+01  0.10203028976E+01 0.  0.
     999903    2    3    3    0    0 -0.99812657399E-01 -0.15516344097E-01  0.85279300686E-01  0.13374772989E+00  0.20311883536E-01 0.  0.
         14    1    1    2    0    0  0.15461454007E-01  0.84054533996E-02 -0.15361272475E-01  0.23359728143E-01  0.00000000000E+00 0.  1.
     999901    1    3    3    0    0  0.84351203392E-01  0.71108906976E-02 -0.69918028211E-01  0.88682254197E+00  0.88000000000E+00 0.  1.
        -11    1    4    4    0    0 -0.60619817464E-01 -0.15823913820E-01  0.42396129448E-01  0.75649530277E-01  0.51100000000E-03 0. -1.
         11    1    4    4    0    0 -0.39192839935E-01  0.30756972286E-03  0.42883171238E-01  0.58098199609E-01  0.51100000000E-03 0.  1.
</event>
<event>
 8    1  0.1064884E+005  0.1043930E+01  0.7957747E-01            NaN
         13   -1    0    0    0    0  0.00000000000E+00  0.00000000000E+00  0.74505805969E-08  0.10566000000E+00  0.10566000000E+00 0.  1.
     999900   -1    0    0    0    0 -0.00000000000E+00 -0.00000000000E+00 -0.74505805969E-08  0.93827000000E+00  0.93827000000E+00 0. -1.
     999902    2    1    2    0    0  0.96374971593E-02 -0.15971931611E-01  0.14277819284E-01  0.10204387234E+01  0.10201682941E+01 0.  0.
     999903    2    3    3    0    0  0.76145611436E-01 -0.45897673045E-01 -0.93925888559E-01  0.13081693770E+00  0.19653196098E-01 0.  0.
         14    1    1    2    0    0 -0.96374971593E-02  0.15971931611E-01 -0.14277819284E-01  0.23491276560E-01  0.00000000000E+00 0. -1.
     999901    1    3    3    0    0 -0.66508114277E-01  0.29925741433E-01  0.10820370784E+00  0.88962178574E+00  0.88000000000E+00 0.  1.
        -11    1    4    4    0    0  0.42150632759E-01 -0.19570523609E-01 -0.60844515578E-01  0.76563682208E-01  0.51100000000E-03 0. -1.
         11    1    4    4    0    0  0.33994978677E-01 -0.26327149435E-01 -0.33081372982E-01  0.54253255497E-01  0.51100000000E-03 0.  1.
</event>
<event>
 8    1  0.1064884E+005  0.1043930E+01  0.7957747E-01            NaN
         13   -1    0    0    0    0  0.00000000000E+00  0.00000000000E+00  0.74505805969E-08  0.10566000000E+00  0.10566000000E+00 0.  1.
     999900   -1    0    0    0    0 -0.00000000000E+00 -0.00000000000E+00 -0.74505805969E-08  0.93827000000E+00  0.93827000000E+00 0.  1.
     999902    2    1    2    0    0  0.22003713720E-01 -0.81460183628E-02 -0.24339958939E-02  0.10203409057E+01  0.10200681931E+01 0.  0.
     999903    2    3    3    0    0  0.72395558167E-02  0.10096543046E+00  0.78271160217E-01  0.12981487531E+00  0.21888307730E-01 0.  0.
         14    1    1    2    0    0 -0.22003713720E-01  0.81460183628E-02  0.24339958939E-02  0.23589094273E-01  0.00000000000E+00 0. -1.
     999901    1    3    3    0    0  0.14764157903E-01 -0.10911144882E+00 -0.80705156110E-01  0.89052603041E+00  0.88000000000E+00 0.  1.
        -11    1    4    4    0    0  0.99388149716E-03  0.28548854732E-01  0.10512046597E-01  0.30443211914E-01  0.51100000000E-03 0. -1.
         11    1    4    4    0    0  0.62456743196E-02  0.72416575723E-01  0.67759113620E-01  0.99371663399E-01  0.51100000000E-03 0.  1.
</event>
<event>
 8    1  0.1064884E+005  0.1043930E+01  0.7957747E-01            NaN
         13   -1    0    0    0    0  0.00000000000E+00  0.00000000000E+00  0.74505805969E-08  0.10566000000E+00  0.10566000000E+00 0.  1.
     999900   -1    0    0    0    0 -0.00000000000E+00 -0.00000000000E+00 -0.74505805969E-08  0.93827000000E+00  0.93827000000E+00 0. -1.
     999902    2    1    2    0    0  0.37467976745E-02  0.18636647585E-01  0.17824052142E-01  0.10178712210E+01  0.10175375977E+01 0.  0.
     999903    2    3    3    0    0 -0.64376667727E-01 -0.10530788648E+00  0.19807650163E-01  0.12657610228E+00  0.19876125428E-01 0.  0.
         14    1    1    2    0    0 -0.37467976745E-02 -0.18636647585E-01 -0.17824052142E-01  0.26058778958E-01  0.00000000000E+00 0. -1.
     999901    1    3    3    0    0  0.68123465402E-01  0.12394453406E+00 -0.19835980207E-02  0.89129511876E+00  0.88000000000E+00 0.  1.
        -11    1    4    4    0    0 -0.11138670652E-01 -0.33702871833E-01  0.17797914952E-02  0.35544089980E-01  0.51100000000E-03 0.  1.
         11    1    4    4    0    0 -0.53237997075E-01 -0.71605014645E-01  0.18027858668E-01  0.91032012303E-01  0.51100000000E-03 0. -1.
</event>
<event>
 8    1  0.1064884E+005  0.1043930E+01  0.7957747E-01            NaN
         13   -1    0    0    0    0  0.00000000000E+00  0.00000000000E+00  0.74505805969E-08  0.10566000000E+00  0.10566000000E+00 0.  1.
     999900   -1    0    0    0    0 -0.00000000000E+00 -0.00000000000E+00 -0.74505805969E-08  0.93827000000E+00  0.93827000000E+00 0.  1.
     999902    2    1    2    0    0  0.30540193468E-02  0.10295732166E-01 -0.21458159777E-01  0.10199345472E+01  0.10196522440E+01 0.  0.
     999903    2    3    3    0    0  0.83736015128E-01  0.93451616049E-01  0.31988260935E-01  0.13073209253E+00  0.17964030952E-01 0.  0.
         14    1    1    2    0    0 -0.30540193468E-02 -0.10295732166E-01  0.21458159777E-01  0.23995452820E-01  0.00000000000E+00 0.  1.
     999901    1    3    3    0    0 -0.80681995781E-01 -0.83155883883E-01 -0.53446420712E-01  0.88920245465E+00  0.88000000000E+00 0.  1.
        -11    1    4    4    0    0  0.41455990002E-01  0.53792570692E-01  0.96132337009E-02  0.68592384067E-01  0.51100000000E-03 0. -1.
         11    1    4    4    0    0  0.42280025126E-01  0.39659045357E-01  0.22375027234E-01  0.62139708464E-01  0.51100000000E-03 0.  1.
</event>
<event>
 8    1  0.1064884E+005  0.1043930E+01  0.7957747E-01            NaN
         13   -1    0    0    0    0  0.00000000000E+00  0.00000000000E+00  0.74505805969E-08  0.10566000000E+00  0.10566000000E+00 0.  1.
     999900   -1    0    0    0    0 -0.00000000000E+00 -0.00000000000E+00 -0.74505805969E-08  0.93827000000E+00  0.93827000000E+00 0. -1.
     999902    2    1    2    0    0 -0.47354808624E-02  0.89766014856E-02  0.19153013476E-01  0.10222541591E+01  0.10220243264E+01 0.  0.
     999903    2    3    3    0    0  0.45780534577E-01 -0.11264214564E+00 -0.42277148295E-01  0.13033675696E+00  0.20401044760E-01 0.  0.
         14    1    1    2    0    0  0.47354808624E-02 -0.89766014856E-02 -0.19153013476E-01  0.21675840893E-01  0.00000000000E+00 0. -1.
     999901    1    3    3    0    0 -0.50516015440E-01  0.12161874713E+00  0.61430161771E-01  0.89191740214E+00  0.88000000000E+00 0. -1.
        -11    1    4    4    0    0  0.25061544576E-01 -0.38714906488E-01 -0.10877993893E-01  0.47386885032E-01  0.51100000000E-03 0. -1.
         11    1    4    4    0    0  0.20718990001E-01 -0.73927239153E-01 -0.31399154401E-01  0.82949871933E-01  0.51100000000E-03 0.  1.
</event>
<event>
 8    1  0.1064884E+005  0.1043930E+01  0.7957747E-01            NaN
         13   -1    0    0    0    0  0.00000000000E+00  0.00000000000E+00  0.74505805969E-08  0.10566000000E+00  0.10566000000E+00 0.  1.
     999900   -1    0    0    0    0 -0.00000000000E+00 -0.00000000000E+00 -0.74505805969E-08  0.93827000000E+00  0.93827000000E+00 0. -1.
     999902    2    1    2    0    0 -0.21041641992E-01  0.12112224880E-01  0.40027234255E-02  0.10193235276E+01  0.10190264842E+01 0.  0.
     999903    2    3    3    0    0 -0.15221694717E-01  0.75595136009E-01  0.10430623538E+00  0.13133436871E+00  0.20557263580E-01 0.  0.
         14    1    1    2    0    0  0.21041641992E-01 -0.12112224880E-01 -0.40027234255E-02  0.24606472402E-01  0.00000000000E+00 0. -1.
     999901    1    3    3    0    0 -0.58199472752E-02 -0.63482911129E-01 -0.10030351196E+00  0.88798915889E+00  0.88000000000E+00 0. -1.
        -11    1    4    4    0    0  0.45113942375E-02  0.21962296596E-01  0.25053023463E-01  0.33624548404E-01  0.51100000000E-03 0. -1.
         11    1    4    4    0    0 -0.19733088955E-01  0.53632839413E-01  0.79253211922E-01  0.97709820305E-01  0.51100000000E-03 0.  1.
</event>
<event>
 8    1  0.1064884E+005  0.1043930E+01  0.7957747E-01            NaN
         13   -1    0    0    0    0  0.00000000000E+00  0.00000000000E+00  0.74505805969E-08  0.10566000000E+00  0.10566000000E+00 0.  1.
     999900   -1    0    0    0    0 -0.00000000000E+00 -0.00000000000E+00 -0.74505805969E-08  0.93827000000E+00  0.93827000000E+00 0.  1.
     999902    2    1    2    0    0 -0.18671760548E-01 -0.12146644908E-01  0.68256855536E-02  0.10206326695E+01  0.10203667382E+01 0.  0.
     999903    2    3    3    0    0  0.20409189517E-01 -0.44093801511E-01  0.12089820835E+00  0.13183545871E+00  0.20085144859E-01 0.  0.
         14    1    1    2    0    0  0.18671760548E-01  0.12146644908E-01 -0.68256855536E-02  0.23297330486E-01  0.00000000000E+00 0. -1.
     999901    1    3    3    0    0 -0.39080950066E-01  0.31947156603E-01 -0.11407252279E+00  0.88879721080E+00  0.88000000000E+00 0.  1.
        -11    1    4    4    0    0  0.46186303881E-02 -0.16338674136E-01  0.21310617481E-01  0.27252294539E-01  0.51100000000E-03 0. -1.
         11    1    4    4    0    0  0.15790559129E-01 -0.27755127375E-01  0.99587590865E-01  0.10458316417E+00  0.51100000000E-03 0.  1.
</event>
<event>
 8    1  0.1064884E+005  0.1043930E+01  0.7957747E-01            NaN
         13   -1    0    0    0    0  0.00000000000E+00  0.00000000000E+00  0.74505805969E-08  0.10566000000E+00  0.10566000000E+00 0.  1.
     999900   -1    0    0    0    0 -0.00000000000E+00 -0.00000000000E+00 -0.74505805969E-08  0.93827000000E+00  0.93827000000E+00 0. -1.
     999902    2    1    2    0    0 -0.21181895111E-03 -0.23235501931E-01 -0.52232036736E-02  0.10201137183E+01  0.10198356647E+01 0.  0.
     999903    2    3    3    0    0 -0.97617256178E-01 -0.70699783696E-01  0.49199917681E-01  0.13179927320E+00  0.20562791573E-01 0.  0.
         14    1    1    2    0    0  0.21181895111E-03  0.23235501931E-01  0.52232036736E-02  0.23816281697E-01  0.00000000000E+00 0.  1.
     999901    1    3    3    0    0  0.97405437227E-01  0.47464281766E-01 -0.54423121354E-01  0.88831444511E+00  0.88000000000E+00 0. -1.
        -11    1    4    4    0    0 -0.75057242857E-01 -0.56854084644E-01  0.46984054845E-01  0.10523183538E+00  0.51100000000E-03 0. -1.
         11    1    4    4    0    0 -0.22560013321E-01 -0.13845699053E-01  0.22158628357E-02  0.26567437822E-01  0.51100000000E-03 0.  1.
</event>
<event>
 8    1  0.1064884E+005  0.1043930E+01  0.7957747E-01            NaN
         13   -1    0    0    0    0  0.00000000000E+00  0.00000000000E+00  0.74505805969E-08  0.10566000000E+00  0.10566000000E+00 0.  1.
     999900   -1    0    0    0    0 -0.00000000000E+00 -0.00000000000E+00 -0.74505805969E-08  0.93827000000E+00  0.93827000000E+00 0. -1.
     999902    2    1    2    0    0  0.21879624674E-01  0.55895000067E-02  0.48753987954E-03  0.10213424330E+01  0.10210926341E+01 0.  0.
     999903    2    3    3    0    0  0.12160374267E+00  0.37493194898E-01 -0.38146219962E-01  0.13429378000E+00  0.19658976433E-01 0.  0.
         14    1    1    2    0    0 -0.21879624674E-01 -0.55895000067E-02 -0.48753987954E-03  0.22587566964E-01  0.00000000000E+00 0.  1.
     999901    1    3    3    0    0 -0.99724117993E-01 -0.31903694892E-01  0.38633759841E-01  0.88704865304E+00  0.88000000000E+00 0.  1.
        -11    1    4    4    0    0  0.25353996787E-01  0.11203211563E-01 -0.16275601608E-01  0.32147992645E-01  0.51100000000E-03 0.  1.
         11    1    4    4    0    0  0.96249745880E-01  0.26289983335E-01 -0.21870618354E-01  0.10214578735E+00  0.51100000000E-03 0. -1.
</event>
<event>
 8    1  0.1064884E+005  0.1043930E+01  0.7957747E-01            NaN
         13   -1    0    0    0    0  0.00000000000E+00  0.00000000000E+00  0.74505805969E-08  0.10566000000E+00  0.10566000000E+00 0.  1.
     999900   -1    0    0    0    0 -0.00000000000E+00 -0.00000000000E+00 -0.74505805969E-08  0.93827000000E+00  0.93827000000E+00 0. -1.
     999902    2    1    2    0    0  0.63555767892E-02 -0.19570888778E-02  0.30196731487E-01  0.10130096807E+01  0.10125376769E+01 0.  0.
     999903    2    3    3    0    0  0.96707140779E-01 -0.75323143239E-01  0.16199142235E-01  0.12523610847E+00  0.19895317786E-01 0.  0.
         14    1    1    2    0    0 -0.63555767892E-02  0.19570888778E-02 -0.30196731487E-01  0.30920319301E-01  0.00000000000E+00 0. -1.
     999901    1    3    3    0    0 -0.90351563990E-01  0.73366054362E-01  0.13997589252E-01  0.88777357223E+00  0.88000000000E+00 0.  1.
        -11    1    4    4    0    0  0.58197007112E-01 -0.32925933484E-01  0.71791212527E-02  0.67251837414E-01  0.51100000000E-03 0.  1.
         11    1    4    4    0    0  0.38510133667E-01 -0.42397209755E-01  0.90200209818E-02  0.57984271054E-01  0.51100000000E-03 0. -1.
</event>
<event>
 8    1  0.1064884E+005  0.1043930E+01  0.7957747E-01            NaN
         13   -1    0    0    0    0  0.00000000000E+00  0.00000000000E+00  0.74505805969E-08  0.10566000000E+00  0.10566000000E+00 0.  1.
     999900   -1    0    0    0    0 -0.00000000000E+00 -0.00000000000E+00 -0.74505805969E-08  0.93827000000E+00  0.93827000000E+00 0.  1.
     999902    2    1    2    0    0 -0.14788242862E-01 -0.35866880234E-02 -0.17321985729E-01  0.10208733817E+01  0.10206129794E+01 0.  0.
     999903    2    3    3    0    0 -0.41559108160E-01  0.73982153834E-01 -0.10063209777E+00  0.13313795984E+00  0.19959426152E-01 0.  0.
         14    1    1    2    0    0  0.14788242862E-01  0.35866880234E-02  0.17321985729E-01  0.23056618302E-01  0.00000000000E+00 0.  1.
     999901    1    3    3    0    0  0.26770865298E-01 -0.77568841858E-01  0.83310112036E-01  0.88773542186E+00  0.88000000000E+00 0. -1.
        -11    1    4    4    0    0 -0.14729403941E-01  0.11340714160E-01 -0.27275852176E-01  0.33012124606E-01  0.51100000000E-03 0.  1.
         11    1    4    4    0    0 -0.26829704220E-01  0.62641439675E-01 -0.73356245589E-01  0.10012583523E+00  0.51100000000E-03 0. -1.
</event>
<event>
 8    1  0.1064884E+005  0.1043930E+01  0.7957747E-01            NaN
         13   -1    0    0    0    0  0.00000000000E+00  0.00000000000E+00  0.74505805969E-08  0.10566000000E+00  0.10566000000E+00 0.  1.
     999900   -1    0    0    0    0 -0.00000000000E+00 -0.00000000000E+00 -0.74505805969E-08  0.93827000000E+00  0.93827000000E+00 0. -1.
     999902    2    1    2    0    0 -0.16302039628E-01  0.16207504212E-01  0.10571030666E-01  0.10186280954E+01  0.10183138074E+01 0.  0.
     999903    2    3    3    0    0 -0.12088983564E-01  0.12847575445E+00  0.15708408962E-01  0.13147066711E+00  0.19637189022E-01 0.  0.
         14    1    1    2    0    0  0.16302039628E-01 -0.16207504212E-01 -0.10571030666E-01  0.25301904635E-01  0.00000000000E+00 0.  1.
     999901    1    3    3    0    0 -0.42130560639E-02 -0.11226825024E+00 -0.51373782958E-02  0.88715742826E+00  0.88000000000E+00 0. -1.
        -11    1    4    4    0    0  0.30634040597E-02  0.70082854172E-01  0.10226821342E-01  0.70893158267E-01  0.51100000000E-03 0.  1.
         11    1    4    4    0    0 -0.15152387624E-01  0.58392900279E-01  0.54815876208E-02  0.60577508842E-01  0.51100000000E-03 0. -1.
</event>
<event>
 8    1  0.1064884E+005  0.1043930E+01  0.7957747E-01            NaN
         13   -1    0    0    0    0  0.00000000000E+00  0.00000000000E+00  0.74505805969E-08  0.10566000000E+00  0.10566000000E+00 0.  1.
     999900   -1    0    0    0    0 -0.00000000000E+00 -0.00000000000E+00 -0.74505805969E-08  0.93827000000E+00  0.93827000000E+00 0. -1.
     999902    2    1    2    0    0 -0.12532910247E-01 -0.11776304057E-01 -0.16106062283E-01  0.10203681576E+01  0.10200960820E+01 0.  0.
     999903    2    3    3    0    0  0.80473280358E-01  0.93414622479E-01 -0.32336161714E-01  0.12908890916E+00  0.20398004050E-01 0.  0.
         14    1    1    2    0    0  0.12532910247E-01  0.11776304057E-01  0.16106062283E-01  0.23561842431E-01  0.00000000000E+00 0.  1.
     999901    1    3    3    0    0 -0.93006190605E-01 -0.10519092654E+00  0.16230099431E-01  0.89127924841E+00  0.88000000000E+00 0.  1.
        -11    1    4    4    0    0  0.36149378535E-01  0.41233385127E-01 -0.39812469692E-02  0.54982552377E-01  0.51100000000E-03 0.  1.
         11    1    4    4    0    0  0.44323901823E-01  0.52181237352E-01 -0.28354914745E-01  0.74106356783E-01  0.51100000000E-03 0. -1.
</event>
<event>
 8    1  0.1064884E+005  0.1043930E+01  0.7957747E-01            NaN
         13   -1    0    0    0    0  0.00000000000E+00  0.00000000000E+00  0.74505805969E-08  0.10566000000E+00  0.10566000000E+00 0.  1.
     999900   -1    0    0    0    0 -0.00000000000E+00 -0.00000000000E+00 -0.74505805969E-08  0.93827000000E+00  0.93827000000E+00 0.  1.
     999902    2    1    2    0    0 -0.49823013325E-02 -0.82732476434E-02  0.21306498835E-01  0.10205369060E+01  0.10202687586E+01 0.  0.
     999903    2    3    3    0    0 -0.77965073277E-01  0.67736712990E-01 -0.74897578740E-01  0.12904421191E+00  0.19389336986E-01 0.  0.
         14    1    1    2    0    0  0.49823013325E-02  0.82732476434E-02 -0.21306498835E-01  0.23393093976E-01  0.00000000000E+00 0. -1.
     999901    1    3    3    0    0  0.72982771944E-01 -0.76009960633E-01  0.96204077575E-01  0.89149269411E+00  0.88000000000E+00 0.  1.
        -11    1    4    4    0    0 -0.28792950081E-01  0.32817134315E-01 -0.22334893167E-01  0.49041888757E-01  0.51100000000E-03 0. -1.
         11    1    4    4    0    0 -0.49172123196E-01  0.34919578675E-01 -0.52562685573E-01  0.80002323154E-01  0.51100000000E-03 0.  1.
</event>
<event>
 8    1  0.1064884E+005  0.1043930E+01  0.7957747E-01            NaN
         13   -1    0    0    0    0  0.00000000000E+00  0.00000000000E+00  0.74505805969E-08  0.10566000000E+00  0.10566000000E+00 0.  1.
     999900   -1    0    0    0    0 -0.00000000000E+00 -0.00000000000E+00 -0.74505805969E-08  0.93827000000E+00  0.93827000000E+00 0.  1.
     999902    2    1    2    0    0  0.93357894358E-02 -0.53517799583E-02  0.20887738561E-01  0.10204332739E+01  0.10201627176E+01 0.  0.
     999903    2    3    3    0    0 -0.19377942251E-01 -0.12093788475E+00  0.45023595761E-01  0.13208246170E+00  0.20424884349E-01 0.  0.
         14    1    1    2    0    0 -0.93357894358E-02  0.53517799583E-02 -0.20887738561E-01  0.23496726055E-01  0.00000000000E+00 0. -1.
     999901    1    3    3    0    0  0.28713731687E-01  0.11558610479E+00 -0.24135857199E-01  0.88835081224E+00  0.88000000000E+00 0. -1.
        -11    1    4    4    0    0 -0.39110367104E-02 -0.77652558917E-01  0.33687440442E-01  0.84736774065E-01  0.51100000000E-03 0.  1.
         11    1    4    4    0    0 -0.15466905541E-01 -0.43285325833E-01  0.11336155319E-01  0.47345687637E-01  0.51100000000E-03 0. -1.
</event>
<event>
 8    1  0.1064884E+005  0.1043930E+01  0.7957747E-01            NaN
         13   -1    0    0    0    0  0.00000000000E+00  0.00000000000E+00  0.74505805969E-08  0.10566000000E+00  0.10566000000E+00 0. -1.
     999900   -1    0    0    0    0 -0.00000000000E+00 -0.00000000000E+00 -0.74505805969E-08  0.93827000000E+00  0.93827000000E+00 0. -1.
     999902    2    1    2    0    0  0.13265924614E-01 -0.17267891775E-01 -0.91456406811E-02  0.10203120495E+01  0.10200386614E+01 0.  0.
     999903    2    3    3    0    0  0.87140451714E-01 -0.92551618005E-01  0.32411937146E-01  0.13303975902E+00  0.22131052607E-01 0.  0.
         14    1    1    2    0    0 -0.13265924614E-01  0.17267891775E-01  0.91456406811E-02  0.23617950497E-01  0.00000000000E+00 0. -1.
     999901    1    3    3    0    0 -0.73874527101E-01  0.75283726230E-01 -0.41557577827E-01  0.88727229049E+00  0.88000000000E+00 0. -1.
        -11    1    4    4    0    0  0.25199897946E-01 -0.13833253757E-01  0.95554802633E-02  0.30297889202E-01  0.51100000000E-03 0.  1.
         11    1    4    4    0    0  0.61940553768E-01 -0.78718364248E-01  0.22856456883E-01  0.10274186982E+00  0.51100000000E-03 0. -1.
</event>
<event>
 8    1  0.1064884E+005  0.1043930E+01  0.7957747E-01            NaN
         13   -1    0    0    0    0  0.00000000000E+00  0.00000000000E+00  0.74505805969E-08  0.10566000000E+00  0.10566000000E+00 0. -1.
     999900   -1    0    0    0    0 -0.00000000000E+00 -0.00000000000E+00 -0.74505805969E-08  0.93827000000E+00  0.93827000000E+00 0. -1.
     999902    2    1    2    0    0 -0.26536955020E-01  0.10722560043E-01 -0.12336658328E-01  0.10127630878E+01  0.10122834068E+01 0.  0.
     999903    2    3    3    0    0  0.23319921325E-01 -0.72808317888E-01 -0.94913422018E-01  0.12356005275E+00  0.20338610398E-01 0.  0.
         14    1    1    2    0    0  0.26536955020E-01 -0.10722560043E-01  0.12336658328E-01  0.31166912171E-01  0.00000000000E+00 0. -1.
     999901    1    3    3    0    0 -0.49856876344E-01  0.83530877931E-01  0.82576763690E-01  0.88920303508E+00  0.88000000000E+00 0.  1.
        -11    1    4    4    0    0  0.17182101216E-01 -0.23980599237E-01 -0.41633717539E-01  0.51028632150E-01  0.51100000000E-03 0.  1.
         11    1    4    4    0    0  0.61378201085E-02 -0.48827718651E-01 -0.53279704478E-01  0.72531420603E-01  0.51100000000E-03 0. -1.
</event>
<event>
 8    1  0.1064884E+005  0.1043930E+01  0.7957747E-01            NaN
         13   -1    0    0    0    0  0.00000000000E+00  0.00000000000E+00  0.74505805969E-08  0.10566000000E+00  0.10566000000E+00 0. -1.
     999900   -1    0    0    0    0 -0.00000000000E+00 -0.00000000000E+00 -0.74505805969E-08  0.93827000000E+00  0.93827000000E+00 0. -1.
     999902    2    1    2    0    0 -0.16351752273E-01 -0.62229096548E-02  0.15762880416E-01  0.10203806305E+01  0.10201088463E+01 0.  0.
     999903    2    3    3    0    0 -0.97365032666E-01  0.16240504019E-01  0.87512683754E-01  0.13346699834E+00  0.20279700960E-01 0.  0.
         14    1    1    2    0    0  0.16351752273E-01  0.62229096548E-02 -0.15762880416E-01  0.23549369545E-01  0.00000000000E+00 0.  1.
     999901    1    3    3    0    0  0.81013280393E-01 -0.22463413673E-01 -0.71749803337E-01  0.88691363212E+00  0.88000000000E+00 0. -1.
        -11    1    4    4    0    0 -0.65944896428E-01  0.20481812430E-01  0.60768884182E-01  0.91985609804E-01  0.51100000000E-03 0.  1.
         11    1    4    4    0    0 -0.31420136238E-01 -0.42413084113E-02  0.26743799572E-01  0.41481388535E-01  0.51100000000E-03 0. -1.
</event>
<event>
 8    1  0.1064884E+005  0.1043930E+01  0.7957747E-01            NaN
         13   -1    0    0    0    0  0.00000000000E+00  0.00000000000E+00  0.74505805969E-08  0.10566000000E+00  0.10566000000E+00 0. -1.
     999900   -1    0    0    0    0 -0.00000000000E+00 -0.00000000000E+00 -0.74505805969E-08  0.93827000000E+00  0.93827000000E+00 0. -1.
     999902    2    1    2    0    0 -0.17409987336E-01  0.14500089567E-01 -0.77624723825E-02  0.10199797133E+01  0.10196984845E+01 0.  0.
     999903    2    3    3    0    0  0.72730681226E-01 -0.69386159822E-01 -0.77913300563E-01  0.12864174053E+00  0.19339695869E-01 0.  0.
         14    1    1    2    0    0  0.17409987336E-01 -0.14500089567E-01  0.77624723825E-02  0.23950286720E-01  0.00000000000E+00 0. -1.
     999901    1    3    3    0    0 -0.90140668562E-01  0.83886249389E-01  0.70150828180E-01  0.89133797275E+00  0.88000000000E+00 0.  1.
        -11    1    4    4    0    0  0.46505748006E-01 -0.44526567095E-01 -0.37852337092E-01  0.74689091032E-01  0.51100000000E-03 0. -1.
         11    1    4    4    0    0  0.26224933220E-01 -0.24859592728E-01 -0.40060963471E-01  0.53952649501E-01  0.51100000000E-03 0.  1.
</event>
<event>
 8    1  0.1064884E+005  0.1043930E+01  0.7957747E-01            NaN
         13   -1    0    0    0    0  0.00000000000E+00  0.00000000000E+00  0.74505805969E-08  0.10566000000E+00  0.10566000000E+00 0.  1.
     999900   -1    0    0    0    0 -0.00000000000E+00 -0.00000000000E+00 -0.74505805969E-08  0.93827000000E+00  0.93827000000E+00 0. -1.
     999902    2    1    2    0    0  0.53739413161E-02  0.19021555474E-01 -0.13161769409E-01  0.10201827688E+01  0.10199063441E+01 0.  0.
     999903    2    3    3    0    0  0.62897657563E-01 -0.20576846021E-01 -0.11230971038E+00  0.13186563758E+00  0.19888524584E-01 0.  0.
         14    1    1    2    0    0 -0.53739413161E-02 -0.19021555474E-01  0.13161769409E-01  0.23747231247E-01  0.00000000000E+00 0. -1.
     999901    1    3    3    0    0 -0.57523716247E-01  0.39598401495E-01  0.99147940972E-01  0.88831713117E+00  0.88000000000E+00 0.  1.
        -11    1    4    4    0    0  0.35669781833E-01 -0.16230769054E-01 -0.82018773358E-01  0.90901658425E-01  0.51100000000E-03 0.  1.
         11    1    4    4    0    0  0.27227875730E-01 -0.43460769673E-02 -0.30290937022E-01  0.40963979158E-01  0.51100000000E-03 0. -1.
</event>
<event>
 8    1  0.1064884E+005  0.1043930E+01  0.7957747E-01            NaN
         13   -1    0    0    0    0  0.00000000000E+00  0.00000000000E+00  0.74505805969E-08  0.10566000000E+00  0.10566000000E+00 0.  1.
     999900   -1    0    0    0    0 -0.00000000000E+00 -0.00000000000E+00 -0.74505805969E-08  0.93827000000E+00  0.93827000000E+00 0.  1.
     999902    2    1    2    0    0  0.62616584187E-02 -0.16343654701E-02  0.25521118109E-01  0.10176011758E+01  0.10172605103E+01 0.  0.
     999903    2    3    3    0    0 -0.36485971084E-01 -0.11546032868E+00  0.38828280477E-01  0.12914139034E+00  0.22528864784E-01 0.  0.
         14    1    1    2    0    0 -0.62616584187E-02  0.16343654701E-02 -0.25521118109E-01  0.26328824246E-01  0.00000000000E+00 0. -1.
     999901    1    3    3    0    0  0.42747629503E-01  0.11382596321E+00 -0.13307162368E-01  0.88845978542E+00  0.88000000000E+00 0. -1.
        -11    1    4    4    0    0 -0.25275296729E-01 -0.43643383255E-01  0.17545688973E-01  0.53401290707E-01  0.51100000000E-03 0.  1.
         11    1    4    4    0    0 -0.11210674355E-01 -0.71816945428E-01  0.21282591504E-01  0.75740099632E-01  0.51100000000E-03 0. -1.
</event>
<event>
 8    1  0.1064884E+005  0.1043930E+01  0.7957747E-01            NaN
         13   -1    0    0    0    0  0.00000000000E+00  0.00000000000E+00  0.74505805969E-08  0.10566000000E+00  0.10566000000E+00 0.  1.
     999900   -1    0    0    0    0 -0.00000000000E+00 -0.00000000000E+00 -0.74505805969E-08  0.93827000000E+00  0.93827000000E+00 0. -1.
     999902    2    1    2    0    0 -0.15258172730E-01 -0.16107485224E-01  0.56264813239E-02  0.10210406967E+01  0.10207841026E+01 0.  0.
     999903    2    3    3    0    0 -0.56340587554E-01  0.59234488756E-02 -0.11689218423E+00  0.13133065947E+00  0.19354852869E-01 0.  0.
         14    1    1    2    0    0  0.15258172730E-01  0.16107485224E-01 -0.56264813239E-02  0.22889303339E-01  0.00000000000E+00 0. -1.
     999901    1    3    3    0    0  0.41082414824E-01 -0.22030934099E-01  0.12251866556E+00  0.88971003719E+00  0.88000000000E+00 0.  1.
        -11    1    4    4    0    0 -0.43572242935E-01  0.28310525157E-02 -0.68916918107E-01  0.81586505839E-01  0.51100000000E-03 0. -1.
         11    1    4    4    0    0 -0.12768344619E-01  0.30923963599E-02 -0.47975266128E-01  0.49744153632E-01  0.51100000000E-03 0.  1.
</event>
<event>
 7    1  0.1064884E+005  0.1043930E+01  0.7957747E-01            NaN
         13   -1    0    0    0    0  0.00000000000E+00  0.00000000000E+00  0.74505805969E-08  0.10566000000E+00  0.10566000000E+00 0. -1.
     999900   -1    0    0    0    0 -0.00000000000E+00 -0.00000000000E+00 -0.74505805969E-08  0.93827000000E+00  0.93827000000E+00 0.  1.
     999903    2    1    2    0    0  0.80984843393E-01  0.37055766491E-01 -0.51129827633E-02  0.91424016035E-01  0.20013331193E-01 0.  0.
         14    1    1    2    0    0  0.29824985166E-01 -0.41317682124E-01 -0.39426092440E-01  0.64429010246E-01  0.00000000000E+00 0.  1.
     999901    1    1    2    0    0 -0.11080982856E+00  0.42619156323E-02  0.44539075203E-01  0.88807697372E+00  0.88000000000E+00 0.  1.
        -11    1    3    3    0    0  0.67561329338E-03  0.16927016708E-03  0.25725675143E-02  0.27137299658E-02  0.51100000000E-03 0.  1.
         11    1    3    3    0    0  0.80309230100E-01  0.36886496324E-01 -0.76855502776E-02  0.88710286069E-01  0.51100000000E-03 0. -1.
</event>
<event>
 8    1  0.1064884E+005  0.1043930E+01  0.7957747E-01            NaN
         13   -1    0    0    0    0  0.00000000000E+00  0.00000000000E+00  0.74505805969E-08  0.10566000000E+00  0.10566000000E+00 0.  1.
     999900   -1    0    0    0    0 -0.00000000000E+00 -0.00000000000E+00 -0.74505805969E-08  0.93827000000E+00  0.93827000000E+00 0.  1.
     999902    2    1    2    0    0 -0.10961723262E-01 -0.18022857950E-01  0.29671928986E-02  0.10226277227E+01  0.10224058256E+01 0.  0.
     999903    2    3    3    0    0  0.92897355606E-01  0.19681974309E-01 -0.88172746120E-01  0.13104774807E+00  0.19539199662E-01 0.  0.
         14    1    1    2    0    0  0.10961723262E-01  0.18022857950E-01 -0.29671928986E-02  0.21302277325E-01  0.00000000000E+00 0. -1.
     999901    1    3    3    0    0 -0.10385907887E+00 -0.37704832259E-01  0.91139939019E-01  0.89157997461E+00  0.88000000000E+00 0. -1.
        -11    1    4    4    0    0  0.67937902755E-01  0.16835023546E-01 -0.52879298240E-01  0.87723759335E-01  0.51100000000E-03 0.  1.
         11    1    4    4    0    0  0.24959452851E-01  0.28469507636E-02 -0.35293447880E-01  0.43323988730E-01  0.51100000000E-03 0. -1.
</event>
<event>
 8    1  0.1064884E+005  0.1043930E+01  0.7957747E-01            NaN
         13   -1    0    0    0    0  0.00000000000E+00  0.00000000000E+00  0.74505805969E-08  0.10566000000E+00  0.10566000000E+00 0.  1.
     999900   -1    0    0    0    0 -0.00000000000E+00 -0.00000000000E+00 -0.74505805969E-08  0.93827000000E+00  0.93827000000E+00 0.  1.
     999902    2    1    2    0    0  0.16701486940E-01  0.15437481586E-01 -0.70521439217E-02  0.10201184852E+01  0.10198405442E+01 0.  0.
     999903    2    3    3    0    0  0.97241634520E-01 -0.66296943805E-01  0.46952114719E-01  0.13102698730E+00  0.33351912724E-01 0.  0.
         14    1    1    2    0    0 -0.16701486940E-01 -0.15437481586E-01  0.70521439217E-02  0.23811514812E-01  0.00000000000E+00 0.  1.
     999901    1    3    3    0    0 -0.80540147579E-01  0.81734425391E-01 -0.54004258641E-01  0.88909149789E+00  0.88000000000E+00 0.  1.
        -11    1    4    4    0    0  0.34492715689E-01 -0.73266315752E-02  0.21198550507E-01  0.41146890896E-01  0.51100000000E-03 0.  1.
         11    1    4    4    0    0  0.62748918831E-01 -0.58970312229E-01  0.25753564213E-01  0.89880096404E-01  0.51100000000E-03 0. -1.
</event>
<event>
 8    1  0.1064884E+005  0.1043930E+01  0.7957747E-01            NaN
         13   -1    0    0    0    0  0.00000000000E+00  0.00000000000E+00  0.74505805969E-08  0.10566000000E+00  0.10566000000E+00 0.  1.
     999900   -1    0    0    0    0 -0.00000000000E+00 -0.00000000000E+00 -0.74505805969E-08  0.93827000000E+00  0.93827000000E+00 0. -1.
     999902    2    1    2    0    0 -0.13712086400E-01  0.10924304548E-01  0.43737123196E-02  0.10258609352E+01  0.10257017926E+01 0.  0.
     999903    2    3    3    0    0  0.24046832756E-01 -0.30903200654E-01  0.12807338579E+00  0.13542458970E+00  0.20094013358E-01 0.  0.
         14    1    1    2    0    0  0.13712086400E-01 -0.10924304548E-01 -0.43737123196E-02  0.18069064800E-01  0.00000000000E+00 0. -1.
     999901    1    3    3    0    0 -0.37758919156E-01  0.41827505202E-01 -0.12369967347E+00  0.89043634550E+00  0.88000000000E+00 0. -1.
        -11    1    4    4    0    0  0.72012181595E-02 -0.11589506074E-01  0.19109834646E-01  0.23486615236E-01  0.51100000000E-03 0.  1.
         11    1    4    4    0    0  0.16845614597E-01 -0.19313694580E-01  0.10896355114E+00  0.11193797447E+00  0.51100000000E-03 0. -1.
</event>
<event>
 8    1  0.1064884E+005  0.1043930E+01  0.7957747E-01            NaN
         13   -1    0    0    0    0  0.00000000000E+00  0.00000000000E+00  0.74505805969E-08  0.10566000000E+00  0.10566000000E+00 0.  1.
     999900   -1    0    0    0    0 -0.00000000000E+00 -0.00000000000E+00 -0.74505805969E-08  0.93827000000E+00  0.93827000000E+00 0.  1.
     999902    2    1    2    0    0 -0.97522700378E-02  0.20809716636E-01  0.57018599864E-02  0.10202516917E+01  0.10199768880E+01 0.  0.
     999903    2    3    3    0    0 -0.60835773439E-01  0.12015677892E-01  0.11493678057E+00  0.13198420533E+00  0.19078760022E-01 0.  0.
         14    1    1    2    0    0  0.97522700378E-02 -0.20809716636E-01 -0.57018599864E-02  0.23678308315E-01  0.00000000000E+00 0.  1.
     999901    1    3    3    0    0  0.51083503402E-01  0.87940387442E-02 -0.10923492058E+00  0.88826748635E+00  0.88000000000E+00 0. -1.
        -11    1    4    4    0    0 -0.50727401099E-01  0.28868691094E-02  0.96451757300E-01  0.10901745660E+00  0.51100000000E-03 0.  1.
         11    1    4    4    0    0 -0.10108372340E-01  0.91288087824E-02  0.18485023270E-01  0.22966748735E-01  0.51100000000E-03 0. -1.
</event>
<event>
 8    1  0.1064884E+005  0.1043930E+01  0.7957747E-01            NaN
         13   -1    0    0    0    0  0.00000000000E+00  0.00000000000E+00  0.74505805969E-08  0.10566000000E+00  0.10566000000E+00 0. -1.
     999900   -1    0    0    0    0 -0.00000000000E+00 -0.00000000000E+00 -0.74505805969E-08  0.93827000000E+00  0.93827000000E+00 0.  1.
     999902    2    1    2    0    0  0.19027727737E-01 -0.46179925637E-02 -0.13962637223E-01  0.10198813926E+01  0.10195978224E+01 0.  0.
     999903    2    3    3    0    0  0.46590644033E-01  0.51037958625E-01  0.10763958307E+00  0.12935098931E+00  0.19231153391E-01 0.  0.
         14    1    1    2    0    0 -0.19027727737E-01  0.46179925637E-02  0.13962637223E-01  0.24048607369E-01  0.00000000000E+00 0. -1.
     999901    1    3    3    0    0 -0.27562916296E-01 -0.55655951189E-01 -0.12160222029E+00  0.89053040332E+00  0.88000000000E+00 0.  1.
        -11    1    4    4    0    0  0.93430850971E-02  0.23182600438E-01  0.42528421054E-01  0.49332078008E-01  0.51100000000E-03 0.  1.
         11    1    4    4    0    0  0.37247558936E-01  0.27855358188E-01  0.65111162013E-01  0.80018911304E-01  0.51100000000E-03 0. -1.
</event>
<event>
 8    1  0.1064884E+005  0.1043930E+01  0.7957747E-01            NaN
         13   -1    0    0    0    0  0.00000000000E+00  0.00000000000E+00  0.74505805969E-08  0.10566000000E+00  0.10566000000E+00 0. -1.
     999900   -1    0    0    0    0 -0.00000000000E+00 -0.00000000000E+00 -0.74505805969E-08  0.93827000000E+00  0.93827000000E+00 0.  1.
     999902    2    1    2    0    0 -0.21028202365E-01  0.23387501275E-02  0.10046181744E-01  0.10205081979E+01  0.10202393842E+01 0.  0.
     999903    2    3    3    0    0 -0.11867754227E+00  0.47125576062E-01  0.33971731271E-01  0.13365212992E+00  0.20090653248E-01 0.  0.
         14    1    1    2    0    0  0.21028202365E-01 -0.23387501275E-02 -0.10046181744E-01  0.23421802119E-01  0.00000000000E+00 0.  1.
     999901    1    3    3    0    0  0.97649339905E-01 -0.44786825934E-01 -0.23925549527E-01  0.88685606796E+00  0.88000000000E+00 0.  1.
        -11    1    4    4    0    0 -0.35276791846E-01  0.58335331820E-02  0.45505047304E-02  0.36047889906E-01  0.51100000000E-03 0. -1.
         11    1    4    4    0    0 -0.83400750424E-01  0.41292042880E-01  0.29421226541E-01  0.97604240013E-01  0.51100000000E-03 0.  1.
</event>
<event>
 8    1  0.1064884E+005  0.1043930E+01  0.7957747E-01            NaN
         13   -1    0    0    0    0  0.00000000000E+00  0.00000000000E+00  0.74505805969E-08  0.10566000000E+00  0.10566000000E+00 0.  1.
     999900   -1    0    0    0    0 -0.00000000000E+00 -0.00000000000E+00 -0.74505805969E-08  0.93827000000E+00  0.93827000000E+00 0. -1.
     999902    2    1    2    0    0 -0.35720818440E-01  0.39269154059E-02 -0.43813732218E-02  0.10077278735E+01  0.10070773918E+01 0.  0.
     999903    2    3    3    0    0 -0.11458349075E+00  0.32752264098E-01  0.25020664699E-01  0.12324231584E+00  0.18988090897E-01 0.  0.
         14    1    1    2    0    0  0.35720818440E-01 -0.39269154059E-02  0.43813732218E-02  0.36202126539E-01  0.00000000000E+00 0.  1.
     999901    1    3    3    0    0  0.78862672306E-01 -0.28825348692E-01 -0.29402037921E-01  0.88448555762E+00  0.88000000000E+00 0. -1.
        -11    1    4    4    0    0 -0.74238795483E-01  0.17619552565E-01  0.24524337442E-01  0.80147062549E-01  0.51100000000E-03 0. -1.
         11    1    4    4    0    0 -0.40344695264E-01  0.15132711533E-01  0.49632725726E-03  0.43095253289E-01  0.51100000000E-03 0.  1.
</event>
<event>
 8    1  0.1064884E+005  0.1043930E+01  0.7957747E-01            NaN
         13   -1    0    0    0    0  0.00000000000E+00  0.00000000000E+00  0.74505805969E-08  0.10566000000E+00  0.10566000000E+00 0.  1.
     999900   -1    0    0    0    0 -0.00000000000E+00 -0.00000000000E+00 -0.74505805969E-08  0.93827000000E+00  0.93827000000E+00 0. -1.
     999902    2    1    2    0    0 -0.21021479332E-01  0.78993907420E-02  0.30016760524E-02  0.10212735875E+01  0.10210222463E+01 0.  0.
     999903    2    3    3    0    0  0.10820935446E+00  0.65371618527E-01 -0.20613817772E-01  0.12966753274E+00  0.20150103263E-01 0.  0.
         14    1    1    2    0    0  0.21021479332E-01 -0.78993907420E-02 -0.30016760524E-02  0.22656412482E-01  0.00000000000E+00 0.  1.
     999901    1    3    3    0    0 -0.12923083379E+00 -0.57472227785E-01  0.23615493824E-01  0.89160605478E+00  0.88000000000E+00 0. -1.
        -11    1    4    4    0    0  0.52580806703E-01  0.20572637453E-01 -0.62299486754E-02  0.56807112467E-01  0.51100000000E-03 0. -1.
         11    1    4    4    0    0  0.55628547759E-01  0.44798981074E-01 -0.14383869096E-01  0.72860420272E-01  0.51100000000E-03 0.  1.
</event>
<event>
 8    1  0.1064884E+005  0.1043930E+01  0.7957747E-01            NaN
         13   -1    0    0    0    0  0.00000000000E+00  0.00000000000E+00  0.74505805969E-08  0.10566000000E+00  0.10566000000E+00 0.  1.
     999900   -1    0    0    0    0 -0.00000000000E+00 -0.00000000000E+00 -0.74505805969E-08  0.93827000000E+00  0.93827000000E+00 0.  1.
     999902    2    1    2    0    0  0.70052009106E-02 -0.73205280569E-02  0.20823850961E-01  0.10207719401E+01  0.10205092150E+01 0.  0.
     999903    2    3    3    0    0 -0.64235677734E-01  0.72232125463E-01 -0.82465440358E-01  0.12831882356E+00  0.17929567290E-01 0.  0.
         14    1    1    2    0    0 -0.70052009106E-02  0.73205280569E-02 -0.20823850961E-01  0.23158059929E-01  0.00000000000E+00 0. -1.
     999901    1    3    3    0    0  0.71240878645E-01 -0.79552653520E-01  0.10328929132E+00  0.89245311651E+00  0.88000000000E+00 0. -1.
        -11    1    4    4    0    0 -0.39478693030E-01  0.47142609458E-01 -0.41062094345E-01  0.73941527864E-01  0.51100000000E-03 0. -1.
         11    1    4    4    0    0 -0.24756984704E-01  0.25089516004E-01 -0.41403346013E-01  0.54377295694E-01  0.51100000000E-03 0.  1.
</event>
<event>
 8    1  0.1064884E+005  0.1043930E+01  0.7957747E-01            NaN
         13   -1    0    0    0    0  0.00000000000E+00  0.00000000000E+00  0.74505805969E-08  0.10566000000E+00  0.10566000000E+00 0. -1.
     999900   -1    0    0    0    0 -0.00000000000E+00 -0.00000000000E+00 -0.74505805969E-08  0.93827000000E+00  0.93827000000E+00 0. -1.
     999902    2    1    2    0    0  0.12665095072E-01  0.43696723633E-03  0.20258769113E-01  0.10200341154E+01  0.10197541779E+01 0.  0.
     999903    2    3    3    0    0 -0.12638620815E-01  0.38420843293E-01  0.12464043085E+00  0.13269056066E+00  0.20872277096E-01 0.  0.
         14    1    1    2    0    0 -0.12665095072E-01 -0.43696723633E-03 -0.20258769113E-01  0.23895884573E-01  0.00000000000E+00 0.  1.
     999901    1    3    3    0    0  0.25303715887E-01 -0.37983876057E-01 -0.10438166174E+00  0.88734355477E+00  0.88000000000E+00 0. -1.
        -11    1    4    4    0    0 -0.15229611843E-01  0.25577352608E-01  0.63132583219E-01  0.69800617678E-01  0.51100000000E-03 0. -1.
         11    1    4    4    0    0  0.25909910278E-02  0.12843490685E-01  0.61507847629E-01  0.62889942984E-01  0.51100000000E-03 0.  1.
</event>
<event>
 8    1  0.1064884E+005  0.1043930E+01  0.7957747E-01            NaN
         13   -1    0    0    0    0  0.00000000000E+00  0.00000000000E+00  0.74505805969E-08  0.10566000000E+00  0.10566000000E+00 0. -1.
     999900   -1    0    0    0    0 -0.00000000000E+00 -0.00000000000E+00 -0.74505805969E-08  0.93827000000E+00  0.93827000000E+00 0. -1.
     999902    2    1    2    0    0 -0.10320532880E-01 -0.21173157420E-01  0.30227358793E-02  0.10201823069E+01  0.10199058714E+01 0.  0.
     999903    2    3    3    0    0  0.24800571739E-01 -0.43173739529E-01 -0.11918052949E+00  0.13077174050E+00  0.20450167772E-01 0.  0.
         14    1    1    2    0    0  0.10320532880E-01  0.21173157420E-01 -0.30227358793E-02  0.23747693072E-01  0.00000000000E+00 0.  1.
     999901    1    3    3    0    0 -0.35121104619E-01  0.22000582109E-01  0.12220326537E+00  0.88941056643E+00  0.88000000000E+00 0.  1.
        -11    1    4    4    0    0  0.14993096765E-01 -0.74901414070E-02 -0.39758656007E-01  0.43149820594E-01  0.51100000000E-03 0. -1.
         11    1    4    4    0    0  0.98074749745E-02 -0.35683598122E-01 -0.79421873480E-01  0.87621919908E-01  0.51100000000E-03 0.  1.
</event>
<event>
 8    1  0.1064884E+005  0.1043930E+01  0.7957747E-01            NaN
         13   -1    0    0    0    0  0.00000000000E+00  0.00000000000E+00  0.74505805969E-08  0.10566000000E+00  0.10566000000E+00 0.  1.
     999900   -1    0    0    0    0 -0.00000000000E+00 -0.00000000000E+00 -0.74505805969E-08  0.93827000000E+00  0.93827000000E+00 0. -1.
     999902    2    1    2    0    0  0.20195200651E-01 -0.30778746282E-02 -0.12309810810E-01  0.10200794050E+01  0.10198005401E+01 0.  0.
     999903    2    3    3    0    0  0.44601662817E-02 -0.39976871683E-01 -0.12416663177E+00  0.13209231289E+00  0.20321991215E-01 0.  0.
         14    1    1    2    0    0 -0.20195200651E-01  0.30778746282E-02  0.12309810810E-01  0.23850595040E-01  0.00000000000E+00 0.  1.
     999901    1    3    3    0    0  0.15735034369E-01  0.36898997055E-01  0.11185682096E+00  0.88798709207E+00  0.88000000000E+00 0.  1.
        -11    1    4    4    0    0 -0.14639307190E-02 -0.23973872763E-01 -0.97600011834E-01  0.10051324838E+00  0.51100000000E-03 0.  1.
         11    1    4    4    0    0  0.59240970007E-02 -0.16002998920E-01 -0.26566619934E-01  0.31579064511E-01  0.51100000000E-03 0. -1.
</event>
<event>
 8    1  0.1064884E+005  0.1043930E+01  0.7957747E-01            NaN
         13   -1    0    0    0    0  0.00000000000E+00  0.00000000000E+00  0.74505805969E-08  0.10566000000E+00  0.10566000000E+00 0. -1.
     999900   -1    0    0    0    0 -0.00000000000E+00 -0.00000000000E+00 -0.74505805969E-08  0.93827000000E+00  0.93827000000E+00 0. -1.
     999902    2    1    2    0    0  0.33052089472E-01 -0.14797938947E-01  0.76288668567E-02  0.10069216330E+01  0.10062413010E+01 0.  0.
     999903    2    3    3    0    0 -0.27817642138E-01  0.43111339491E-01  0.10392628056E+00  0.11769061658E+00  0.20445063761E-01 0.  0.
         14    1    1    2    0    0 -0.33052089472E-01  0.14797938947E-01 -0.76288668567E-02  0.37008366960E-01  0.00000000000E+00 0.  1.
     999901    1    3    3    0    0  0.60869731610E-01 -0.57909278438E-01 -0.96297413703E-01  0.88923101646E+00  0.88000000000E+00 0. -1.
        -11    1    4    4    0    0 -0.13553289232E-01  0.55312989241E-02  0.34228106918E-01  0.37230516260E-01  0.51100000000E-03 0. -1.
         11    1    4    4    0    0 -0.14264352906E-01  0.37580040567E-01  0.69698173642E-01  0.80460100316E-01  0.51100000000E-03 0.  1.
</event>
<event>
 8    1  0.1064884E+005  0.1043930E+01  0.7957747E-01            NaN
         13   -1    0    0    0    0  0.00000000000E+00  0.00000000000E+00  0.74505805969E-08  0.10566000000E+00  0.10566000000E+00 0. -1.
     999900   -1    0    0    0    0 -0.00000000000E+00 -0.00000000000E+00 -0.74505805969E-08  0.93827000000E+00  0.93827000000E+00 0. -1.
     999902    2    1    2    0    0 -0.23456414447E-01  0.21234490329E-02  0.47040388110E-02  0.10199124981E+01  0.10196296698E+01 0.  0.
     999903    2    3    3    0    0  0.23258313570E-01  0.45091120484E-01 -0.11717474710E+00  0.12924818143E+00  0.20025302693E-01 0.  0.
         14    1    1    2    0    0  0.23456414447E-01 -0.21234490329E-02 -0.47040388110E-02  0.24017501861E-01  0.00000000000E+00 0.  1.
     999901    1    3    3    0    0 -0.46714728017E-01 -0.42967671451E-01  0.12187878591E+00  0.89066431671E+00  0.88000000000E+00 0.  1.
        -11    1    4    4    0    0  0.21666323167E-01  0.32492950272E-01 -0.67615869174E-01  0.78085775030E-01  0.51100000000E-03 0.  1.
         11    1    4    4    0    0  0.15919904037E-02  0.12598170212E-01 -0.49558877928E-01  0.51162406399E-01  0.51100000000E-03 0. -1.
</event>
<event>
 8    1  0.1064884E+005  0.1043930E+01  0.7957747E-01            NaN
         13   -1    0    0    0    0  0.00000000000E+00  0.00000000000E+00  0.74505805969E-08  0.10566000000E+00  0.10566000000E+00 0. -1.
     999900   -1    0    0    0    0 -0.00000000000E+00 -0.00000000000E+00 -0.74505805969E-08  0.93827000000E+00  0.93827000000E+00 0. -1.
     999902    2    1    2    0    0  0.46438492109E-02  0.21935506196E-01  0.51428411967E-02  0.10209260746E+01  0.10206668748E+01 0.  0.
     999903    2    3    3    0    0  0.73425144643E-01 -0.64946594788E-01 -0.82773063140E-01  0.12963006749E+00  0.18527341329E-01 0.  0.
         14    1    1    2    0    0 -0.46438492109E-02 -0.21935506196E-01 -0.51428411967E-02  0.23003925386E-01  0.00000000000E+00 0.  1.
     999901    1    3    3    0    0 -0.68781295432E-01  0.86882100984E-01  0.87915904336E-01  0.89129600712E+00  0.88000000000E+00 0.  1.
        -11    1    4    4    0    0  0.10917052912E-03 -0.48422503254E-02 -0.29381025805E-02  0.56879587017E-02  0.51100000000E-03 0.  1.
         11    1    4    4    0    0  0.73315974114E-01 -0.60104344463E-01 -0.79834960559E-01  0.12394210879E+00  0.51100000000E-03 0. -1.
</event>
<event>
 8    1  0.1064884E+005  0.1043930E+01  0.7957747E-01            NaN
         13   -1    0    0    0    0  0.00000000000E+00  0.00000000000E+00  0.74505805969E-08  0.10566000000E+00  0.10566000000E+00 0.  1.
     999900   -1    0    0    0    0 -0.00000000000E+00 -0.00000000000E+00 -0.74505805969E-08  0.93827000000E+00  0.93827000000E+00 0.  1.
     999902    2    1    2    0    0  0.15426064130E-01  0.12065222889E-01 -0.12921767456E-01  0.10204671542E+01  0.10201973866E+01 0.  0.
     999903    2    3    3    0    0  0.89870891836E-01  0.95644119269E-01 -0.92594999226E-02  0.13337027310E+00  0.21847577836E-01 0.  0.
         14    1    1    2    0    0 -0.15426064130E-01 -0.12065222889E-01  0.12921767456E-01  0.23462845780E-01  0.00000000000E+00 0.  1.
     999901    1    3    3    0    0 -0.74444827705E-01 -0.83578896381E-01 -0.36622675337E-02  0.88709688112E+00  0.88000000000E+00 0.  1.
        -11    1    4    4    0    0  0.44603196045E-01  0.38123617288E-01  0.46492453143E-02  0.58861973256E-01  0.51100000000E-03 0.  1.
         11    1    4    4    0    0  0.45267695791E-01  0.57520501981E-01 -0.13908745237E-01  0.74508299842E-01  0.51100000000E-03 0. -1.
</event>
<event>
 8    1  0.1106565E+005  0.1043930E+01  0.7957747E-01            NaN
         13   -1    0    0    0    0  0.00000000000E+00  0.00000000000E+00  0.74505805969E-08  0.10566000000E+00  0.10566000000E+00 0.  1.
     999900   -1    0    0    0    0 -0.00000000000E+00 -0.00000000000E+00 -0.74505805969E-08  0.93827000000E+00  0.93827000000E+00 0.  1.
     999902    2    1    2    0    0 -0.75262485478E-02 -0.16260518645E-02  0.22482715398E-01  0.10201653003E+01  0.10198884640E+01 0.  0.
     999903    2    3    3    0    0  0.98080825906E-01  0.37719957258E-01 -0.70377354647E-01  0.12813169371E+00  0.20545444769E-01 0.  0.
         14    1    1    2    0    0  0.75262485478E-02  0.16260518645E-02 -0.22482715398E-01  0.23764699735E-01  0.00000000000E+00 0. -1.
     999901    1    3    3    0    0 -0.10560707445E+00 -0.39346009122E-01  0.92860070045E-01  0.89203360655E+00  0.88000000000E+00 0. -1.
        -11    1    4    4    0    0  0.47733345263E-01  0.28799450069E-01 -0.40501632902E-01  0.68909534631E-01  0.51100000000E-03 0.  1.
         11    1    4    4    0    0  0.50347480643E-01  0.89205071885E-02 -0.29875721745E-01  0.59222159082E-01  0.51100000000E-03 0. -1.
</event>
<event>
 8    1  0.1064884E+005  0.1043930E+01  0.7957747E-01            NaN
         13   -1    0    0    0    0  0.00000000000E+00  0.00000000000E+00  0.74505805969E-08  0.10566000000E+00  0.10566000000E+00 0.  1.
     999900   -1    0    0    0    0 -0.00000000000E+00 -0.00000000000E+00 -0.74505805969E-08  0.93827000000E+00  0.93827000000E+00 0.  1.
     999902    2    1    2    0    0 -0.13199319520E-01 -0.11588346304E-01  0.17629790485E-01  0.10190438328E+01  0.10187399137E+01 0.  0.
     999903    2    3    3    0    0  0.87243311788E-01  0.81616074000E-03  0.94160153039E-01  0.12994345017E+00  0.20176824630E-01 0.  0.
         14    1    1    2    0    0  0.13199319520E-01  0.11588346304E-01 -0.17629790485E-01  0.24886167210E-01  0.00000000000E+00 0. -1.
     999901    1    3    3    0    0 -0.10044263131E+00 -0.12404507044E-01 -0.76530362554E-01  0.88910038262E+00  0.88000000000E+00 0.  1.
        -11    1    4    4    0    0  0.21031003595E-01  0.70170600226E-02  0.16155218208E-01  0.27437099700E-01  0.51100000000E-03 0. -1.
         11    1    4    4    0    0  0.66212308193E-01 -0.62008992826E-02  0.78004934831E-01  0.10250635047E+00  0.51100000000E-03 0.  1.
</event>
<event>
 8    1  0.1064884E+005  0.1043930E+01  0.7957747E-01            NaN
         13   -1    0    0    0    0  0.00000000000E+00  0.00000000000E+00  0.74505805969E-08  0.10566000000E+00  0.10566000000E+00 0.  1.
     999900   -1    0    0    0    0 -0.00000000000E+00 -0.00000000000E+00 -0.74505805969E-08  0.93827000000E+00  0.93827000000E+00 0.  1.
     999902    2    1    2    0    0 -0.14069480423E-01  0.13365153671E-01  0.13595090587E-01  0.10202360324E+01  0.10199608609E+01 0.  0.
     999903    2    3    3    0    0  0.41183513615E-01  0.10005008266E+00 -0.69982871411E-01  0.13031893178E+00  0.19476161197E-01 0.  0.
         14    1    1    2    0    0  0.14069480423E-01 -0.13365153671E-01 -0.13595090587E-01  0.23693967588E-01  0.00000000000E+00 0.  1.
     999901    1    3    3    0    0 -0.55252994037E-01 -0.86684928992E-01  0.83577961998E-01  0.88991710063E+00  0.88000000000E+00 0. -1.
        -11    1    4    4    0    0  0.17759825105E-01  0.22642930939E-01 -0.14381176980E-01  0.32174416570E-01  0.51100000000E-03 0.  1.
         11    1    4    4    0    0  0.23423688510E-01  0.77407151723E-01 -0.55601694431E-01  0.98144515211E-01  0.51100000000E-03 0. -1.
</event>
<event>
 8    1  0.1064884E+005  0.1043930E+01  0.7957747E-01            NaN
         13   -1    0    0    0    0  0.00000000000E+00  0.00000000000E+00  0.74505805969E-08  0.10566000000E+00  0.10566000000E+00 0. -1.
     999900   -1    0    0    0    0 -0.00000000000E+00 -0.00000000000E+00 -0.74505805969E-08  0.93827000000E+00  0.93827000000E+00 0.  1.
     999902    2    1    2    0    0  0.15230366677E-01 -0.20147166169E-01  0.11629917755E-02  0.10186471022E+01  0.10183332921E+01 0.  0.
     999903    2    3    3    0    0 -0.84971057903E-01 -0.41680712384E-01 -0.84716202692E-01  0.12854640271E+00  0.19747915976E-01 0.  0.
         14    1    1    2    0    0 -0.15230366677E-01  0.20147166169E-01 -0.11629917755E-02  0.25282897849E-01  0.00000000000E+00 0.  1.
     999901    1    3    3    0    0  0.10020142458E+00  0.21533546215E-01  0.85879194468E-01  0.89010069944E+00  0.88000000000E+00 0. -1.
        -11    1    4    4    0    0 -0.22364423104E-01 -0.16474249819E-01 -0.15250510789E-01  0.31692389122E-01  0.51100000000E-03 0.  1.
         11    1    4    4    0    0 -0.62606634799E-01 -0.25206462565E-01 -0.69465691903E-01  0.96854013590E-01  0.51100000000E-03 0. -1.
</event>
<event>
 8    1  0.1064884E+005  0.1043930E+01  0.7957747E-01            NaN
         13   -1    0    0    0    0  0.00000000000E+00  0.00000000000E+00  0.74505805969E-08  0.10566000000E+00  0.10566000000E+00 0.  1.
     999900   -1    0    0    0    0 -0.00000000000E+00 -0.00000000000E+00 -0.74505805969E-08  0.93827000000E+00  0.93827000000E+00 0.  1.
     999902    2    1    2    0    0 -0.14857492305E-01  0.16273597248E-01  0.88556587521E-02  0.10201813635E+01  0.10199049057E+01 0.  0.
     999903    2    3    3    0    0 -0.11219599179E+00  0.43402464842E-01  0.54034602448E-01  0.13324737726E+00  0.19063335438E-01 0.  0.
         14    1    1    2    0    0  0.14857492305E-01 -0.16273597248E-01 -0.88556587521E-02  0.23748636527E-01  0.00000000000E+00 0.  1.
     999901    1    3    3    0    0  0.97338499485E-01 -0.27128867595E-01 -0.45178943695E-01  0.88693398621E+00  0.88000000000E+00 0. -1.
        -11    1    4    4    0    0 -0.89185509300E-01  0.26064721443E-01  0.39360086596E-01  0.10091036771E+00  0.51100000000E-03 0.  1.
         11    1    4    4    0    0 -0.23010482490E-01  0.17337743399E-01  0.14674515852E-01  0.32337009557E-01  0.51100000000E-03 0. -1.
</event>
<event>
 8    1  0.1064884E+005  0.1043930E+01  0.7957747E-01            NaN
         13   -1    0    0    0    0  0.00000000000E+00  0.00000000000E+00  0.74505805969E-08  0.10566000000E+00  0.10566000000E+00 0.  1.
     999900   -1    0    0    0    0 -0.00000000000E+00 -0.00000000000E+00 -0.74505805969E-08  0.93827000000E+00  0.93827000000E+00 0. -1.
     999902    2    1    2    0    0 -0.13140377097E-01  0.15385775572E-01 -0.69564990289E-02  0.10225341014E+01  0.10223102288E+01 0.  0.
     999903    2    3    3    0    0 -0.47413060216E-01 -0.51410866765E-01  0.10966354481E+00  0.13167123712E+00  0.20497466306E-01 0.  0.
         14    1    1    2    0    0  0.13140377097E-01 -0.15385775572E-01  0.69564990289E-02  0.21395898648E-01  0.00000000000E+00 0.  1.
     999901    1    3    3    0    0  0.34272683119E-01  0.66796642338E-01 -0.11662004384E+00  0.89086286423E+00  0.88000000000E+00 0.  1.
        -11    1    4    4    0    0 -0.22752945911E-01 -0.11379697186E-01  0.45376864524E-01  0.52024177175E-01  0.51100000000E-03 0.  1.
         11    1    4    4    0    0 -0.24660114305E-01 -0.40031169580E-01  0.64286680286E-01  0.79647059950E-01  0.51100000000E-03 0. -1.
</event>
<event>
 8    1  0.1064884E+005  0.1043930E+01  0.7957747E-01            NaN
         13   -1    0    0    0    0  0.00000000000E+00  0.00000000000E+00  0.74505805969E-08  0.10566000000E+00  0.10566000000E+00 0.  1.
     999900   -1    0    0    0    0 -0.00000000000E+00 -0.00000000000E+00 -0.74505805969E-08  0.93827000000E+00  0.93827000000E+00 0.  1.
     999902    2    1    2    0    0 -0.79068701023E-02  0.47933184294E-02 -0.22253057550E-01  0.10198324261E+01  0.10195476861E+01 0.  0.
     999903    2    3    3    0    0  0.33232341758E-01  0.42550441984E-01  0.11395032534E+00  0.12760521479E+00  0.19582786984E-01 0.  0.
         14    1    1    2    0    0  0.79068701023E-02 -0.47933184294E-02  0.22253057550E-01  0.24097573876E-01  0.00000000000E+00 0.  1.
     999901    1    3    3    0    0 -0.41139211860E-01 -0.37757123554E-01 -0.13620338289E+00  0.89222721133E+00  0.88000000000E+00 0.  1.
        -11    1    4    4    0    0  0.27749065573E-02  0.14879225540E-01  0.42930123818E-01  0.45523050327E-01  0.51100000000E-03 0.  1.
         11    1    4    4    0    0  0.30457435200E-01  0.27671216444E-01  0.71020201519E-01  0.82082164465E-01  0.51100000000E-03 0. -1.
</event>
<event>
 8    1  0.1064884E+005  0.1043930E+01  0.7957747E-01            NaN
         13   -1    0    0    0    0  0.00000000000E+00  0.00000000000E+00  0.74505805969E-08  0.10566000000E+00  0.10566000000E+00 0. -1.
     999900   -1    0    0    0    0 -0.00000000000E+00 -0.00000000000E+00 -0.74505805969E-08  0.93827000000E+00  0.93827000000E+00 0. -1.
     999902    2    1    2    0    0  0.14069640998E-01 -0.28817089337E-01 -0.30783007303E-02  0.10117142372E+01  0.10112011879E+01 0.  0.
     999903    2    3    3    0    0 -0.40972206399E-01 -0.99165016400E-01  0.60545334476E-01  0.12490737958E+00  0.20583823087E-01 0.  0.
         14    1    1    2    0    0 -0.14069640998E-01  0.28817089337E-01  0.30783007303E-02  0.32215762773E-01  0.00000000000E+00 0.  1.
     999901    1    3    3    0    0  0.55041847397E-01  0.70347927063E-01 -0.63623635206E-01  0.88680685764E+00  0.88000000000E+00 0. -1.
        -11    1    4    4    0    0 -0.11850800786E-01 -0.29497204570E-01  0.29136533196E-01  0.43124531817E-01  0.51100000000E-03 0.  1.
         11    1    4    4    0    0 -0.29121405613E-01 -0.69667811830E-01  0.31408801279E-01  0.81782847767E-01  0.51100000000E-03 0. -1.
</event>
<event>
 8    1  0.1064884E+005  0.1043930E+01  0.7957747E-01            NaN
         13   -1    0    0    0    0  0.00000000000E+00  0.00000000000E+00  0.74505805969E-08  0.10566000000E+00  0.10566000000E+00 0.  1.
     999900   -1    0    0    0    0 -0.00000000000E+00 -0.00000000000E+00 -0.74505805969E-08  0.93827000000E+00  0.93827000000E+00 0. -1.
     999902    2    1    2    0    0 -0.97163321194E-02 -0.19482134147E-01 -0.10871454731E-01  0.10195958843E+01  0.10193054586E+01 0.  0.
     999903    2    3    3    0    0 -0.25725209721E-01 -0.72958221848E-01 -0.10724524989E+00  0.13257622016E+00  0.94985249225E-02 0.  0.
         14    1    1    2    0    0  0.97163321194E-02  0.19482134147E-01  0.10871454731E-01  0.24334115737E-01  0.00000000000E+00 0. -1.
     999901    1    3    3    0    0  0.16008877602E-01  0.53476087702E-01  0.96373795162E-01  0.88701966411E+00  0.88000000000E+00 0.  1.
        -11    1    4    4    0    0 -0.20199363696E-01 -0.56825758197E-01 -0.76502405481E-01  0.97416940281E-01  0.51100000000E-03 0.  1.
         11    1    4    4    0    0 -0.55258460254E-02 -0.16132463652E-01 -0.30742844412E-01  0.35159279875E-01  0.51100000000E-03 0. -1.
</event>
<event>
 8    1  0.1064884E+005  0.1043930E+01  0.7957747E-01            NaN
         13   -1    0    0    0    0  0.00000000000E+00  0.00000000000E+00  0.74505805969E-08  0.10566000000E+00  0.10566000000E+00 0.  1.
     999900   -1    0    0    0    0 -0.00000000000E+00 -0.00000000000E+00 -0.74505805969E-08  0.93827000000E+00  0.93827000000E+00 0.  1.
     999902    2    1    2    0    0 -0.70798639818E-02  0.27945855927E-02  0.23776522333E-01  0.10189648804E+01  0.10186590059E+01 0.  0.
     999903    2    3    3    0    0 -0.60855780135E-01  0.11329148393E+00  0.42204736787E-02  0.13021077900E+00  0.19966177977E-01 0.  0.
         14    1    1    2    0    0  0.70798639818E-02 -0.27945855927E-02 -0.23776522333E-01  0.24965119605E-01  0.00000000000E+00 0. -1.
     999901    1    3    3    0    0  0.53775916153E-01 -0.11049689834E+00  0.19556048654E-01  0.88875410139E+00  0.88000000000E+00 0. -1.
        -11    1    4    4    0    0 -0.14453820600E-01  0.31616738920E-01  0.97567145721E-02  0.36110742309E-01  0.51100000000E-03 0. -1.
         11    1    4    4    0    0 -0.46401959535E-01  0.81674745014E-01 -0.55362408934E-02  0.94100036695E-01  0.51100000000E-03 0.  1.
</event>
<event>
 8    1  0.1064884E+005  0.1043930E+01  0.7957747E-01            NaN
         13   -1    0    0    0    0  0.00000000000E+00  0.00000000000E+00  0.74505805969E-08  0.10566000000E+00  0.10566000000E+00 0.  1.
     999900   -1    0    0    0    0 -0.00000000000E+00 -0.00000000000E+00 -0.74505805969E-08  0.93827000000E+00  0.93827000000E+00 0.  1.
     999902    2    1    2    0    0  0.49410807301E-02 -0.21608071137E-01 -0.97355410851E-02  0.10197204197E+01  0.10194329947E+01 0.  0.
     999903    2    3    3    0    0  0.54984327148E-02  0.62158334945E-01 -0.11199095112E+00  0.12984779383E+00  0.20605462014E-01 0.  0.
         14    1    1    2    0    0 -0.49410807301E-02  0.21608071137E-01  0.97355410851E-02  0.24209580279E-01  0.00000000000E+00 0.  1.
     999901    1    3    3    0    0 -0.55735198474E-03 -0.83766406082E-01  0.10225541003E+00  0.88987262589E+00  0.88000000000E+00 0. -1.
        -11    1    4    4    0    0 -0.15444676094E-02 -0.41354834587E-03 -0.88227149233E-02  0.89809699949E-02  0.51100000000E-03 0. -1.
         11    1    4    4    0    0  0.70429003242E-02  0.62571883291E-01 -0.10316823619E+00  0.12086682384E+00  0.51100000000E-03 0.  1.
</event>
<event>
 8    1  0.1064884E+005  0.1043930E+01  0.7957747E-01            NaN
         13   -1    0    0    0    0  0.00000000000E+00  0.00000000000E+00  0.74505805969E-08  0.10566000000E+00  0.10566000000E+00 0. -1.
     999900   -1    0    0    0    0 -0.00000000000E+00 -0.00000000000E+00 -0.74505805969E-08  0.93827000000E+00  0.93827000000E+00 0. -1.
     999902    2    1    2    0    0 -0.85823844665E-02  0.92901960684E-03 -0.21709510608E-01  0.10205671395E+01  0.10202996927E+01 0.  0.
     999903    2    3    3    0    0 -0.39705951952E-01 -0.10572155854E+00 -0.66566636634E-01  0.13244823752E+00  0.18915812146E-01 0.  0.
         14    1    1    2    0    0  0.85823844665E-02 -0.92901960684E-03  0.21709510608E-01  0.23362860514E-01  0.00000000000E+00 0. -1.
     999901    1    3    3    0    0  0.31123567485E-01  0.10665057815E+00  0.44857126026E-01  0.88811890196E+00  0.88000000000E+00 0.  1.
        -11    1    4    4    0    0 -0.21899799833E-01 -0.73546163855E-01 -0.52935961290E-01  0.93226158181E-01  0.51100000000E-03 0. -1.
         11    1    4    4    0    0 -0.17806152119E-01 -0.32175394686E-01 -0.13630675344E-01  0.39222079341E-01  0.51100000000E-03 0.  1.
</event>
<event>
 8    1  0.1064884E+005  0.1043930E+01  0.7957747E-01            NaN
         13   -1    0    0    0    0  0.00000000000E+00  0.00000000000E+00  0.74505805969E-08  0.10566000000E+00  0.10566000000E+00 0. -1.
     999900   -1    0    0    0    0 -0.00000000000E+00 -0.00000000000E+00 -0.74505805969E-08  0.93827000000E+00  0.93827000000E+00 0. -1.
     999902    2    1    2    0    0 -0.97802408888E-02  0.37516180490E-02 -0.22552089382E-01  0.10190638687E+01  0.10187604449E+01 0.  0.
     999903    2    3    3    0    0  0.12007249229E-01  0.73508474694E-01 -0.10705943407E+00  0.13200005754E+00  0.20362290670E-01 0.  0.
         14    1    1    2    0    0  0.97802408888E-02 -0.37516180490E-02  0.22552089382E-01  0.24866131290E-01  0.00000000000E+00 0. -1.
     999901    1    3    3    0    0 -0.21787490118E-01 -0.69756856645E-01  0.84507344693E-01  0.88706381117E+00  0.88000000000E+00 0.  1.
        -11    1    4    4    0    0  0.12099456947E-01  0.52865186429E-01 -0.90603120468E-01  0.10559503470E+00  0.51100000000E-03 0. -1.
         11    1    4    4    0    0 -0.92207718153E-04  0.20643288265E-01 -0.16456313606E-01  0.26405022840E-01  0.51100000000E-03 0.  1.
</event>
<event>
 8    1  0.1064884E+005  0.1043930E+01  0.7957747E-01            NaN
         13   -1    0    0    0    0  0.00000000000E+00  0.00000000000E+00  0.74505805969E-08  0.10566000000E+00  0.10566000000E+00 0.  1.
     999900   -1    0    0    0    0 -0.00000000000E+00 -0.00000000000E+00 -0.74505805969E-08  0.93827000000E+00  0.93827000000E+00 0.  1.
     999902    2    1    2    0    0  0.22309619264E-01  0.58326281074E-02 -0.60275484125E-02  0.10200957809E+01  0.10198173033E+01 0.  0.
     999903    2    3    3    0    0 -0.48456742924E-01  0.10890817971E+00 -0.48276877295E-01  0.13025452920E+00  0.20652795283E-01 0.  0.
         14    1    1    2    0    0 -0.22309619264E-01 -0.58326281074E-02  0.60275484125E-02  0.23834219144E-01  0.00000000000E+00 0.  1.
     999901    1    3    3    0    0  0.70766362189E-01 -0.10307555160E+00  0.42249328882E-01  0.88984125165E+00  0.88000000000E+00 0.  1.
        -11    1    4    4    0    0 -0.20705631420E-01  0.36049487429E-01 -0.74244785587E-02  0.42233549688E-01  0.51100000000E-03 0.  1.
         11    1    4    4    0    0 -0.27751111505E-01  0.72858692283E-01 -0.40852398736E-01  0.88020979513E-01  0.51100000000E-03 0. -1.
</event>
<event>
 8    1  0.1064884E+005  0.1043930E+01  0.7957747E-01            NaN
         13   -1    0    0    0    0  0.00000000000E+00  0.00000000000E+00  0.74505805969E-08  0.10566000000E+00  0.10566000000E+00 0. -1.
     999900   -1    0    0    0    0 -0.00000000000E+00 -0.00000000000E+00 -0.74505805969E-08  0.93827000000E+00  0.93827000000E+00 0. -1.
     999902    2    1    2    0    0  0.67879415474E-02 -0.98587147140E-02  0.19889689015E-01  0.10207164235E+01  0.10204524227E+01 0.  0.
     999903    2    3    3    0    0 -0.91895043044E-01 -0.69733998214E-01  0.61397010995E-01  0.13220855136E+00  0.20049405238E-01 0.  0.
         14    1    1    2    0    0 -0.67879415474E-02  0.98587147140E-02 -0.19889689015E-01  0.23213576532E-01  0.00000000000E+00 0.  1.
     999901    1    3    3    0    0  0.98682984591E-01  0.59875283500E-01 -0.41507321980E-01  0.88850787211E+00  0.88000000000E+00 0. -1.
        -11    1    4    4    0    0 -0.54192082075E-01 -0.48651248943E-01  0.46977972176E-01  0.86665545484E-01  0.51100000000E-03 0. -1.
         11    1    4    4    0    0 -0.37702960969E-01 -0.21082749272E-01  0.14419038819E-01  0.45543005875E-01  0.51100000000E-03 0.  1.
</event>
<event>
 8    1  0.1064884E+005  0.1043930E+01  0.7957747E-01            NaN
         13   -1    0    0    0    0  0.00000000000E+00  0.00000000000E+00  0.74505805969E-08  0.10566000000E+00  0.10566000000E+00 0.  1.
     999900   -1    0    0    0    0 -0.00000000000E+00 -0.00000000000E+00 -0.74505805969E-08  0.93827000000E+00  0.93827000000E+00 0. -1.
     999902    2    1    2    0    0 -0.22135244780E-02  0.14877760140E-01 -0.20038033641E-01  0.10188746567E+01  0.10185665397E+01 0.  0.
     999903    2    3    3    0    0  0.29119909718E-01 -0.39287845535E-01 -0.11992500549E+00  0.13101593813E+00  0.19790531879E-01 0.  0.
         14    1    1    2    0    0  0.22135244780E-02 -0.14877760140E-01  0.20038033641E-01  0.25055343335E-01  0.00000000000E+00 0.  1.
     999901    1    3    3    0    0 -0.31333434196E-01  0.54165605675E-01  0.99886971853E-01  0.88785871854E+00  0.88000000000E+00 0.  1.
        -11    1    4    4    0    0  0.13448193930E-01 -0.87878032640E-02 -0.58476818282E-01  0.60645517588E-01  0.51100000000E-03 0. -1.
         11    1    4    4    0    0  0.15671715788E-01 -0.30500042271E-01 -0.61448187212E-01  0.70370420540E-01  0.51100000000E-03 0.  1.
</event>
<event>
 8    1  0.1064884E+005  0.1043930E+01  0.7957747E-01            NaN
         13   -1    0    0    0    0  0.00000000000E+00  0.00000000000E+00  0.74505805969E-08  0.10566000000E+00  0.10566000000E+00 0. -1.
     999900   -1    0    0    0    0 -0.00000000000E+00 -0.00000000000E+00 -0.74505805969E-08  0.93827000000E+00  0.93827000000E+00 0. -1.
     999902    2    1    2    0    0 -0.50355785163E-02  0.13405226500E-01  0.18262389948E-01  0.10207228452E+01  0.10204589921E+01 0.  0.
     999903    2    3    3    0    0  0.11590880557E+00  0.56937662964E-01  0.10032723004E-01  0.13134646563E+00  0.21782787517E-01 0.  0.
         14    1    1    2    0    0  0.50355785163E-02 -0.13405226500E-01 -0.18262389948E-01  0.23207154827E-01  0.00000000000E+00 0.  1.
     999901    1    3    3    0    0 -0.12094438408E+00 -0.43532436463E-01  0.82296669438E-02  0.88937637954E+00  0.88000000000E+00 0.  1.
        -11    1    4    4    0    0  0.83823617325E-01  0.42841272213E-01 -0.23687488549E-02  0.94168176782E-01  0.51100000000E-03 0.  1.
         11    1    4    4    0    0  0.32085188241E-01  0.14096390751E-01  0.12401471859E-01  0.37178288851E-01  0.51100000000E-03 0. -1.
</event>
<event>
 8    1  0.1064884E+005  0.1043930E+01  0.7957747E-01            NaN
         13   -1    0    0    0    0  0.00000000000E+00  0.00000000000E+00  0.74505805969E-08  0.10566000000E+00  0.10566000000E+00 0.  1.
     999900   -1    0    0    0    0 -0.00000000000E+00 -0.00000000000E+00 -0.74505805969E-08  0.93827000000E+00  0.93827000000E+00 0. -1.
     999902    2    1    2    0    0  0.15298639125E-02  0.21743719991E-01 -0.10052164090E-01  0.10199263368E+01  0.10196438382E+01 0.  0.
     999903    2    3    3    0    0 -0.99313514142E-01 -0.66988940509E-01 -0.42069325823E-01  0.12915814556E+00  0.23691900460E-01 0.  0.
         14    1    1    2    0    0 -0.15298639125E-02 -0.21743719991E-01  0.10052164090E-01  0.24003663169E-01  0.00000000000E+00 0.  1.
     999901    1    3    3    0    0  0.10084337805E+00  0.88732660500E-01  0.32017161734E-01  0.89076819127E+00  0.88000000000E+00 0. -1.
        -11    1    4    4    0    0 -0.37272989061E-01 -0.32261017656E-01 -0.27946048699E-01  0.56668260364E-01  0.51100000000E-03 0.  1.
         11    1    4    4    0    0 -0.62040525080E-01 -0.34727922853E-01 -0.14123277124E-01  0.72489885195E-01  0.51100000000E-03 0. -1.
</event>
<event>
 8    1  0.1064884E+005  0.1043930E+01  0.7957747E-01            NaN
         13   -1    0    0    0    0  0.00000000000E+00  0.00000000000E+00  0.74505805969E-08  0.10566000000E+00  0.10566000000E+00 0.  1.
     999900   -1    0    0    0    0 -0.00000000000E+00 -0.00000000000E+00 -0.74505805969E-08  0.93827000000E+00  0.93827000000E+00 0. -1.
     999902    2    1    2    0    0 -0.16319780578E-01 -0.81840479970E-02  0.15136475885E-01  0.10202144612E+01  0.10199387825E+01 0.  0.
     999903    2    3    3    0    0  0.48842679334E-01 -0.35455014849E-01  0.11528511412E+00  0.13172157906E+00  0.20426733745E-01 0.  0.
         14    1    1    2    0    0  0.16319780578E-01  0.81840479970E-02 -0.15136475885E-01  0.23715538829E-01  0.00000000000E+00 0.  1.
     999901    1    3    3    0    0 -0.65162459912E-01  0.27270966852E-01 -0.10014863823E+00  0.88849288211E+00  0.88000000000E+00 0.  1.
        -11    1    4    4    0    0  0.24614122200E-01 -0.28825449936E-01  0.78518618962E-01  0.87190574149E-01  0.51100000000E-03 0.  1.
         11    1    4    4    0    0  0.24228557134E-01 -0.66295649130E-02  0.36766495156E-01  0.44531004915E-01  0.51100000000E-03 0. -1.
</event>
<event>
 8    1  0.1064884E+005  0.1043930E+01  0.7957747E-01            NaN
         13   -1    0    0    0    0  0.00000000000E+00  0.00000000000E+00  0.74505805969E-08  0.10566000000E+00  0.10566000000E+00 0. -1.
     999900   -1    0    0    0    0 -0.00000000000E+00 -0.00000000000E+00 -0.74505805969E-08  0.93827000000E+00  0.93827000000E+00 0. -1.
     999902    2    1    2    0    0 -0.76316320069E-03  0.19347867313E-01  0.11368423670E-01  0.10214764158E+01  0.10212296042E+01 0.  0.
     999903    2    3    3    0    0  0.99735229826E-01  0.33707432233E-01 -0.76040126036E-01  0.13133801156E+00  0.19602690031E-01 0.  0.
         14    1    1    2    0    0  0.76316320069E-03 -0.19347867313E-01 -0.11368423670E-01  0.22453584221E-01  0.00000000000E+00 0. -1.
     999901    1    3    3    0    0 -0.10049839303E+00 -0.14359564920E-01  0.87408549706E-01  0.89013840422E+00  0.88000000000E+00 0. -1.
        -11    1    4    4    0    0  0.46577662336E-01  0.15273005333E-01 -0.23526339530E-01  0.54373643370E-01  0.51100000000E-03 0.  1.
         11    1    4    4    0    0  0.53157567490E-01  0.18434426900E-01 -0.52513786505E-01  0.76964368189E-01  0.51100000000E-03 0. -1.
</event>
<event>
 8    1  0.1064884E+005  0.1043930E+01  0.7957747E-01            NaN
         13   -1    0    0    0    0  0.00000000000E+00  0.00000000000E+00  0.74505805969E-08  0.10566000000E+00  0.10566000000E+00 0.  1.
     999900   -1    0    0    0    0 -0.00000000000E+00 -0.00000000000E+00 -0.74505805969E-08  0.93827000000E+00  0.93827000000E+00 0. -1.
     999902    2    1    2    0    0 -0.69035468632E-02  0.72323044870E-02 -0.21471705714E-01  0.10202445755E+01  0.10199696047E+01 0.  0.
     999903    2    3    3    0    0 -0.96386351331E-01 -0.41007050093E-01  0.73171426990E-01  0.12935090609E+00  0.20141804746E-01 0.  0.
         14    1    1    2    0    0  0.69035468632E-02 -0.72323044870E-02  0.21471705714E-01  0.23685424500E-01  0.00000000000E+00 0.  1.
     999901    1    3    3    0    0  0.89482804468E-01  0.48239354580E-01 -0.94643132704E-01  0.89089366941E+00  0.88000000000E+00 0. -1.
        -11    1    4    4    0    0 -0.28176427808E-01 -0.10951067347E-01  0.10627592174E-01  0.32047524030E-01  0.51100000000E-03 0. -1.
         11    1    4    4    0    0 -0.68209923523E-01 -0.30055982746E-01  0.62543834816E-01  0.97303382060E-01  0.51100000000E-03 0.  1.
</event>
<event>
 8    1  0.1064884E+005  0.1043930E+01  0.7957747E-01            NaN
         13   -1    0    0    0    0  0.00000000000E+00  0.00000000000E+00  0.74505805969E-08  0.10566000000E+00  0.10566000000E+00 0. -1.
     999900   -1    0    0    0    0 -0.00000000000E+00 -0.00000000000E+00 -0.74505805969E-08  0.93827000000E+00  0.93827000000E+00 0.  1.
     999902    2    1    2    0    0  0.14453178397E-01  0.16119694102E-01  0.10730900725E-01  0.10197661606E+01  0.10194798336E+01 0.  0.
     999903    2    3    3    0    0 -0.14847726855E-01 -0.70248922856E-01  0.10609008079E+00  0.12992827972E+00  0.21699918755E-01 0.  0.
         14    1    1    2    0    0 -0.14453178397E-01 -0.16119694102E-01 -0.10730900725E-01  0.24163839391E-01  0.00000000000E+00 0.  1.
     999901    1    3    3    0    0  0.29300905253E-01  0.86368616959E-01 -0.95359180063E-01  0.88983788089E+00  0.88000000000E+00 0.  1.
        -11    1    4    4    0    0  0.49195081465E-02 -0.26927755126E-01  0.37737938170E-01  0.46623155780E-01  0.51100000000E-03 0.  1.
         11    1    4    4    0    0 -0.19767235002E-01 -0.43321167730E-01  0.68352142618E-01  0.83305123940E-01  0.51100000000E-03 0. -1.
</event>
<event>
 8    1  0.1064884E+005  0.1043930E+01  0.7957747E-01            NaN
         13   -1    0    0    0    0  0.00000000000E+00  0.00000000000E+00  0.74505805969E-08  0.10566000000E+00  0.10566000000E+00 0. -1.
     999900   -1    0    0    0    0 -0.00000000000E+00 -0.00000000000E+00 -0.74505805969E-08  0.93827000000E+00  0.93827000000E+00 0.  1.
     999902    2    1    2    0    0 -0.65065233471E-02 -0.13926132424E-01  0.17221681480E-01  0.10208462758E+01  0.10205852539E+01 0.  0.
     999903    2    3    3    0    0 -0.10044609022E-01 -0.93999934126E-01  0.92401953965E-01  0.13401122622E+00  0.22000133442E-01 0.  0.
         14    1    1    2    0    0  0.65065233471E-02  0.13926132424E-01 -0.17221681480E-01  0.23083724209E-01  0.00000000000E+00 0.  1.
     999901    1    3    3    0    0  0.35380856749E-02  0.80073801702E-01 -0.75180272485E-01  0.88683504957E+00  0.88000000000E+00 0.  1.
        -11    1    4    4    0    0 -0.49415066892E-03 -0.78032989215E-01  0.79247314643E-01  0.11121955579E+00  0.51100000000E-03 0.  1.
         11    1    4    4    0    0 -0.95504583531E-02 -0.15966944911E-01  0.13154639321E-01  0.22791670435E-01  0.51100000000E-03 0. -1.
</event>
<event>
 8    1  0.1064884E+005  0.1043930E+01  0.7957747E-01            NaN
         13   -1    0    0    0    0  0.00000000000E+00  0.00000000000E+00  0.74505805969E-08  0.10566000000E+00  0.10566000000E+00 0.  1.
     999900   -1    0    0    0    0 -0.00000000000E+00 -0.00000000000E+00 -0.74505805969E-08  0.93827000000E+00  0.93827000000E+00 0.  1.
     999902    2    1    2    0    0  0.16656414435E-01 -0.18573179774E-01  0.23264100578E-01  0.10098181615E+01  0.10092418451E+01 0.  0.
     999903    2    3    3    0    0 -0.45362621157E-03  0.10648246909E+00  0.53914399916E-01  0.12028395214E+00  0.14924631482E-01 0.  0.
         14    1    1    2    0    0 -0.16656414435E-01  0.18573179774E-01 -0.23264100578E-01  0.34111838479E-01  0.00000000000E+00 0. -1.
     999901    1    3    3    0    0  0.17110040647E-01 -0.12505564886E+00 -0.30650299339E-01  0.88953420938E+00  0.88000000000E+00 0.  1.
        -11    1    4    4    0    0 -0.91816057353E-03  0.43756958570E-01  0.14093038123E-01  0.45982488913E-01  0.51100000000E-03 0. -1.
         11    1    4    4    0    0  0.46453436196E-03  0.62725510519E-01  0.39821361793E-01  0.74301463230E-01  0.51100000000E-03 0.  1.
</event>
<event>
 8    1  0.1064884E+005  0.1043930E+01  0.7957747E-01            NaN
         13   -1    0    0    0    0  0.00000000000E+00  0.00000000000E+00  0.74505805969E-08  0.10566000000E+00  0.10566000000E+00 0.  1.
     999900   -1    0    0    0    0 -0.00000000000E+00 -0.00000000000E+00 -0.74505805969E-08  0.93827000000E+00  0.93827000000E+00 0. -1.
     999902    2    1    2    0    0 -0.14274000159E-02  0.17281372843E-01 -0.15212193935E-01  0.10208628337E+01  0.10206021904E+01 0.  0.
     999903    2    3    3    0    0  0.95365222420E-01 -0.62078951726E-01 -0.61503009818E-01  0.13080119956E+00  0.19442522884E-01 0.  0.
         14    1    1    2    0    0  0.14274000159E-02 -0.17281372843E-01  0.15212193935E-01  0.23067166329E-01  0.00000000000E+00 0.  1.
     999901    1    3    3    0    0 -0.96792622436E-01  0.79360324570E-01  0.46290815883E-01  0.89006163411E+00  0.88000000000E+00 0. -1.
        -11    1    4    4    0    0  0.79555596955E-01 -0.50152775597E-01 -0.58523073572E-01  0.11076824982E+00  0.51100000000E-03 0.  1.
         11    1    4    4    0    0  0.15809625465E-01 -0.11926176129E-01 -0.29799362460E-02  0.20032949744E-01  0.51100000000E-03 0. -1.
</event>
<event>
 8    1  0.1064884E+005  0.1043930E+01  0.7957747E-01            NaN
         13   -1    0    0    0    0  0.00000000000E+00  0.00000000000E+00  0.74505805969E-08  0.10566000000E+00  0.10566000000E+00 0. -1.
     999900   -1    0    0    0    0 -0.00000000000E+00 -0.00000000000E+00 -0.74505805969E-08  0.93827000000E+00  0.93827000000E+00 0.  1.
     999902    2    1    2    0    0 -0.12610703109E-01  0.61339069407E-03  0.19663520923E-01  0.10205620703E+01  0.10202945062E+01 0.  0.
     999903    2    3    3    0    0 -0.92805776291E-01 -0.83270377726E-01 -0.35731786375E-01  0.13121603171E+00  0.19849899279E-01 0.  0.
         14    1    1    2    0    0  0.12610703109E-01 -0.61339069407E-03 -0.19663520923E-01  0.23367929650E-01  0.00000000000E+00 0.  1.
     999901    1    3    3    0    0  0.80195073182E-01  0.83883768420E-01  0.55395307299E-01  0.88934603864E+00  0.88000000000E+00 0. -1.
        -11    1    4    4    0    0 -0.49941932567E-01 -0.47032285436E-01 -0.29714913804E-01  0.74762756271E-01  0.51100000000E-03 0. -1.
         11    1    4    4    0    0 -0.42863843724E-01 -0.36238092291E-01 -0.60168725715E-02  0.56453275443E-01  0.51100000000E-03 0.  1.
</event>
<event>
 8    1  0.1064884E+005  0.1043930E+01  0.7957747E-01            NaN
         13   -1    0    0    0    0  0.00000000000E+00  0.00000000000E+00  0.74505805969E-08  0.10566000000E+00  0.10566000000E+00 0.  1.
     999900   -1    0    0    0    0 -0.00000000000E+00 -0.00000000000E+00 -0.74505805969E-08  0.93827000000E+00  0.93827000000E+00 0.  1.
     999902    2    1    2    0    0 -0.24393172978E-01  0.17222250056E-02 -0.43965187674E-02  0.10190840280E+01  0.10187811020E+01 0.  0.
     999903    2    3    3    0    0 -0.26650665608E-01 -0.11644672987E+00  0.46597131026E-01  0.12971945120E+00  0.19640379944E-01 0.  0.
         14    1    1    2    0    0  0.24393172978E-01 -0.17222250056E-02  0.43965187674E-02  0.24845971991E-01  0.00000000000E+00 0.  1.
     999901    1    3    3    0    0  0.22574926301E-02  0.11816895488E+00 -0.50993649793E-01  0.88936457681E+00  0.88000000000E+00 0.  1.
        -11    1    4    4    0    0 -0.10903070199E-01 -0.76805132687E-01  0.22728529696E-01  0.80837816212E-01  0.51100000000E-03 0. -1.
         11    1    4    4    0    0 -0.15747595409E-01 -0.39641597183E-01  0.23868601330E-01  0.48881634985E-01  0.51100000000E-03 0.  1.
</event>
<event>
 8    1  0.1064884E+005  0.1043930E+01  0.7957747E-01            NaN
         13   -1    0    0    0    0  0.00000000000E+00  0.00000000000E+00  0.74505805969E-08  0.10566000000E+00  0.10566000000E+00 0. -1.
     999900   -1    0    0    0    0 -0.00000000000E+00 -0.00000000000E+00 -0.74505805969E-08  0.93827000000E+00  0.93827000000E+00 0. -1.
     999902    2    1    2    0    0 -0.26968319699E-01  0.39772910414E-02  0.35252862163E-02  0.10164429712E+01  0.10160712460E+01 0.  0.
     999903    2    3    3    0    0 -0.97414325773E-01  0.83044689202E-01  0.11034281240E-01  0.13006230901E+00  0.20210828618E-01 0.  0.
         14    1    1    2    0    0  0.26968319699E-01 -0.39772910414E-02 -0.35252862163E-02  0.27487028837E-01  0.00000000000E+00 0. -1.
     999901    1    3    3    0    0  0.70446006074E-01 -0.79067398160E-01 -0.75089950239E-02  0.88638066215E+00  0.88000000000E+00 0.  1.
        -11    1    4    4    0    0 -0.33363671986E-02  0.28747559605E-02 -0.34418030562E-02  0.56127263602E-02  0.51100000000E-03 0.  1.
         11    1    4    4    0    0 -0.94077958574E-01  0.80169933241E-01  0.14476084296E-01  0.12444958265E+00  0.51100000000E-03 0. -1.
</event>
<event>
 8    1  0.1064884E+005  0.1043930E+01  0.7957747E-01            NaN
         13   -1    0    0    0    0  0.00000000000E+00  0.00000000000E+00  0.74505805969E-08  0.10566000000E+00  0.10566000000E+00 0.  1.
     999900   -1    0    0    0    0 -0.00000000000E+00 -0.00000000000E+00 -0.74505805969E-08  0.93827000000E+00  0.93827000000E+00 0.  1.
     999902    2    1    2    0    0 -0.38834580578E-02  0.21616745553E-01  0.87244620387E-02  0.10202977937E+01  0.10200240716E+01 0.  0.
     999903    2    3    3    0    0  0.70695046817E-01  0.10623350166E+00  0.30812807577E-01  0.13282393846E+00  0.20234203637E-01 0.  0.
         14    1    1    2    0    0  0.38834580578E-02 -0.21616745553E-01 -0.87244620387E-02  0.23632206259E-01  0.00000000000E+00 0.  1.
     999901    1    3    3    0    0 -0.74578504875E-01 -0.84616756108E-01 -0.22088345538E-01  0.88747385528E+00  0.88000000000E+00 0.  1.
        -11    1    4    4    0    0  0.66024231981E-01  0.90556874504E-01  0.21908572385E-01  0.11419279046E+00  0.51100000000E-03 0. -1.
         11    1    4    4    0    0  0.46708148366E-02  0.15676627157E-01  0.89042351918E-02  0.18631147995E-01  0.51100000000E-03 0.  1.
</event>
<event>
 8    1  0.1064884E+005  0.1043930E+01  0.7957747E-01            NaN
         13   -1    0    0    0    0  0.00000000000E+00  0.00000000000E+00  0.74505805969E-08  0.10566000000E+00  0.10566000000E+00 0.  1.
     999900   -1    0    0    0    0 -0.00000000000E+00 -0.00000000000E+00 -0.74505805969E-08  0.93827000000E+00  0.93827000000E+00 0.  1.
     999902    2    1    2    0    0  0.82608402916E-02 -0.81987970616E-02  0.21004258958E-01  0.10199166568E+01  0.10196339276E+01 0.  0.
     999903    2    3    3    0    0  0.34029653461E-01  0.10565023756E+00  0.66765046073E-01  0.13102989011E+00  0.19780564040E-01 0.  0.
         14    1    1    2    0    0 -0.82608402916E-02  0.81987970616E-02 -0.21004258958E-01  0.24013343165E-01  0.00000000000E+00 0.  1.
     999901    1    3    3    0    0 -0.25768813169E-01 -0.11384903463E+00 -0.45760787115E-01  0.88888676672E+00  0.88000000000E+00 0. -1.
        -11    1    4    4    0    0  0.32750601710E-01  0.10109384246E+00  0.58024182370E-01  0.12107697451E+00  0.51100000000E-03 0.  1.
         11    1    4    4    0    0  0.12790517510E-02  0.45563951036E-02  0.87408637024E-02  0.99529156022E-02  0.51100000000E-03 0. -1.
</event>
<event>
 8    1  0.1064884E+005  0.1043930E+01  0.7957747E-01            NaN
         13   -1    0    0    0    0  0.00000000000E+00  0.00000000000E+00  0.74505805969E-08  0.10566000000E+00  0.10566000000E+00 0.  1.
     999900   -1    0    0    0    0 -0.00000000000E+00 -0.00000000000E+00 -0.74505805969E-08  0.93827000000E+00  0.93827000000E+00 0. -1.
     999902    2    1    2    0    0  0.11428324268E-01  0.10580968590E-01 -0.17175064433E-01  0.10207449546E+01  0.10204816098E+01 0.  0.
     999903    2    3    3    0    0 -0.10773252353E+00 -0.17179776201E-01 -0.69163475741E-01  0.13076025726E+00  0.20327743710E-01 0.  0.
         14    1    1    2    0    0 -0.11428324268E-01 -0.10580968590E-01  0.17175064433E-01  0.23185045399E-01  0.00000000000E+00 0.  1.
     999901    1    3    3    0    0  0.11916084780E+00  0.27760744791E-01  0.51988411308E-01  0.88998469735E+00  0.88000000000E+00 0. -1.
        -11    1    4    4    0    0 -0.73018994945E-01 -0.15265284837E-01 -0.36482738880E-01  0.83042482508E-01  0.51100000000E-03 0.  1.
         11    1    4    4    0    0 -0.34713528585E-01 -0.19144913641E-02 -0.32680736861E-01  0.47717774747E-01  0.51100000000E-03 0. -1.
</event>
<event>
 8    1  0.1064884E+005  0.1043930E+01  0.7957747E-01            NaN
         13   -1    0    0    0    0  0.00000000000E+00  0.00000000000E+00  0.74505805969E-08  0.10566000000E+00  0.10566000000E+00 0. -1.
     999900   -1    0    0    0    0 -0.00000000000E+00 -0.00000000000E+00 -0.74505805969E-08  0.93827000000E+00  0.93827000000E+00 0.  1.
     999902    2    1    2    0    0  0.10197897768E-01  0.19505898411E-01  0.69696551222E-02  0.10208420533E+01  0.10205809348E+01 0.  0.
     999903    2    3    3    0    0  0.54111626349E-01 -0.10291611007E+00  0.54629785965E-01  0.13000702264E+00  0.19940376227E-01 0.  0.
         14    1    1    2    0    0 -0.10197897768E-01 -0.19505898411E-01 -0.69696551222E-02  0.23087946731E-01  0.00000000000E+00 0.  1.
     999901    1    3    3    0    0 -0.43913728582E-01  0.12242200848E+00 -0.47660130843E-01  0.89083503063E+00  0.88000000000E+00 0.  1.
        -11    1    4    4    0    0  0.30466209178E-01 -0.77015683945E-01  0.40462952722E-01  0.92179808739E-01  0.51100000000E-03 0.  1.
         11    1    4    4    0    0  0.23645417172E-01 -0.25900426124E-01  0.14166833244E-01  0.37827213905E-01  0.51100000000E-03 0. -1.
</event>
<event>
 8    1  0.1064884E+005  0.1043930E+01  0.7957747E-01            NaN
         13   -1    0    0    0    0  0.00000000000E+00  0.00000000000E+00  0.74505805969E-08  0.10566000000E+00  0.10566000000E+00 0.  1.
     999900   -1    0    0    0    0 -0.00000000000E+00 -0.00000000000E+00 -0.74505805969E-08  0.93827000000E+00  0.93827000000E+00 0. -1.
     999902    2    1    2    0    0 -0.13535229080E-01 -0.15023844994E-01 -0.13745750217E-01  0.10194787425E+01  0.10191854799E+01 0.  0.
     999903    2    3    3    0    0 -0.96877702101E-01  0.78173134667E-01 -0.21412901219E-01  0.13060843135E+00  0.33222309569E-01 0.  0.
         14    1    1    2    0    0  0.13535229080E-01  0.15023844994E-01  0.13745750217E-01  0.24451257507E-01  0.00000000000E+00 0.  1.
     999901    1    3    3    0    0  0.83342473020E-01 -0.93196979660E-01  0.76671510022E-02  0.88887031114E+00  0.88000000000E+00 0. -1.
        -11    1    4    4    0    0 -0.70140762871E-01  0.45945189661E-01 -0.62106993665E-03  0.83853049545E-01  0.51100000000E-03 0. -1.
         11    1    4    4    0    0 -0.26736939230E-01  0.32227945005E-01 -0.20791831282E-01  0.46755381805E-01  0.51100000000E-03 0.  1.
</event>
<event>
 8    1  0.1064884E+005  0.1043930E+01  0.7957747E-01            NaN
         13   -1    0    0    0    0  0.00000000000E+00  0.00000000000E+00  0.74505805969E-08  0.10566000000E+00  0.10566000000E+00 0. -1.
     999900   -1    0    0    0    0 -0.00000000000E+00 -0.00000000000E+00 -0.74505805969E-08  0.93827000000E+00  0.93827000000E+00 0.  1.
     999902    2    1    2    0    0  0.16847960657E-01  0.80841217809E-03 -0.15942810207E-01  0.10207205083E+01  0.10204566015E+01 0.  0.
     999903    2    3    3    0    0  0.54136572385E-02 -0.84285228923E-01  0.96525869506E-01  0.12941759963E+00  0.17273219482E-01 0.  0.
         14    1    1    2    0    0 -0.16847960657E-01 -0.80841217809E-03  0.15942810207E-01  0.23209491719E-01  0.00000000000E+00 0. -1.
     999901    1    3    3    0    0  0.11434303418E-01  0.85093641101E-01 -0.11246867971E+00  0.89130290865E+00  0.88000000000E+00 0.  1.
        -11    1    4    4    0    0  0.69545610243E-02 -0.52520873443E-01  0.48586729285E-01  0.71886990825E-01  0.51100000000E-03 0. -1.
         11    1    4    4    0    0 -0.15409037858E-02 -0.31764355480E-01  0.47939140221E-01  0.57530608807E-01  0.51100000000E-03 0.  1.
</event>
<event>
 8    1  0.1064884E+005  0.1043930E+01  0.7957747E-01            NaN
         13   -1    0    0    0    0  0.00000000000E+00  0.00000000000E+00  0.74505805969E-08  0.10566000000E+00  0.10566000000E+00 0. -1.
     999900   -1    0    0    0    0 -0.00000000000E+00 -0.00000000000E+00 -0.74505805969E-08  0.93827000000E+00  0.93827000000E+00 0.  1.
     999902    2    1    2    0    0  0.15981935269E-01  0.16948995812E-01 -0.28021482745E-02  0.10204663526E+01  0.10201965664E+01 0.  0.
     999903    2    3    3    0    0 -0.19909730669E-02  0.10441196086E+00  0.78889777636E-01  0.13218353365E+00  0.18522095166E-01 0.  0.
         14    1    1    2    0    0 -0.15981935269E-01 -0.16948995812E-01  0.28021482745E-02  0.23463647392E-01  0.00000000000E+00 0. -1.
     999901    1    3    3    0    0  0.17972908336E-01 -0.87462965049E-01 -0.81691925911E-01  0.88828281895E+00  0.88000000000E+00 0.  1.
        -11    1    4    4    0    0 -0.35566428295E-02  0.38575156483E-01  0.18929637068E-01  0.43119423540E-01  0.51100000000E-03 0.  1.
         11    1    4    4    0    0  0.15656697626E-02  0.65836804378E-01  0.59960140568E-01  0.89064110114E-01  0.51100000000E-03 0. -1.
</event>
<event>
 8    1  0.1064884E+005  0.1043930E+01  0.7957747E-01            NaN
         13   -1    0    0    0    0  0.00000000000E+00  0.00000000000E+00  0.74505805969E-08  0.10566000000E+00  0.10566000000E+00 0. -1.
     999900   -1    0    0    0    0 -0.00000000000E+00 -0.00000000000E+00 -0.74505805969E-08  0.93827000000E+00  0.93827000000E+00 0.  1.
     999902    2    1    2    0    0 -0.70870086422E-02  0.70966682846E-02 -0.21104934399E-01  0.10205632149E+01  0.10202956772E+01 0.  0.
     999903    2    3    3    0    0 -0.10328112113E+00 -0.78034530045E-01  0.10296894632E-02  0.13096186043E+00  0.19838618078E-01 0.  0.
         14    1    1    2    0    0  0.70870086422E-02 -0.70966682846E-02  0.21104934399E-01  0.23366785150E-01  0.00000000000E+00 0. -1.
     999901    1    3    3    0    0  0.96194112485E-01  0.85131198330E-01 -0.22134623862E-01  0.88960135442E+00  0.88000000000E+00 0.  1.
        -11    1    4    4    0    0 -0.76932926696E-01 -0.66556451228E-01  0.54754096770E-02  0.10187579517E+00  0.51100000000E-03 0.  1.
         11    1    4    4    0    0 -0.26348194431E-01 -0.11478078817E-01 -0.44457202138E-02  0.29086065260E-01  0.51100000000E-03 0. -1.
</event>
<event>
 8    1  0.1064884E+005  0.1043930E+01  0.7957747E-01            NaN
         13   -1    0    0    0    0  0.00000000000E+00  0.00000000000E+00  0.74505805969E-08  0.10566000000E+00  0.10566000000E+00 0.  1.
     999900   -1    0    0    0    0 -0.00000000000E+00 -0.00000000000E+00 -0.74505805969E-08  0.93827000000E+00  0.93827000000E+00 0. -1.
     999902    2    1    2    0    0  0.16752044096E-01 -0.13409409629E-01  0.12008023664E-01  0.10193406551E+01  0.10190440301E+01 0.  0.
     999903    2    3    3    0    0 -0.88917145661E-01 -0.55711647093E-01  0.73974760386E-01  0.12984904000E+00  0.19454089545E-01 0.  0.
         14    1    1    2    0    0 -0.16752044096E-01  0.13409409629E-01 -0.12008023664E-01  0.24589344853E-01  0.00000000000E+00 0. -1.
     999901    1    3    3    0    0  0.10566918976E+00  0.42302237464E-01 -0.61966736723E-01  0.88949161515E+00  0.88000000000E+00 0. -1.
        -11    1    4    4    0    0 -0.49859933899E-01 -0.39248917509E-01  0.36109287602E-01  0.73011179324E-01  0.51100000000E-03 0. -1.
         11    1    4    4    0    0 -0.39057211762E-01 -0.16462729584E-01  0.37865472784E-01  0.56837860675E-01  0.51100000000E-03 0.  1.
</event>
<event>
 8    1  0.1064884E+005  0.1043930E+01  0.7957747E-01            NaN
         13   -1    0    0    0    0  0.00000000000E+00  0.00000000000E+00  0.74505805969E-08  0.10566000000E+00  0.10566000000E+00 0.  1.
     999900   -1    0    0    0    0 -0.00000000000E+00 -0.00000000000E+00 -0.74505805969E-08  0.93827000000E+00  0.93827000000E+00 0.  1.
     999902    2    1    2    0    0  0.27174447588E-02 -0.72573826524E-02 -0.21521359855E-01  0.10210559309E+01  0.10207996821E+01 0.  0.
     999903    2    3    3    0    0 -0.15452697040E-01 -0.11399541961E+00  0.59133407934E-01  0.13075915217E+00  0.19169100221E-01 0.  0.
         14    1    1    2    0    0 -0.27174447588E-02  0.72573826524E-02  0.21521359855E-01  0.22874069140E-01  0.00000000000E+00 0.  1.
     999901    1    3    3    0    0  0.18170141799E-01  0.10673803696E+00 -0.80654767790E-01  0.89029677869E+00  0.88000000000E+00 0.  1.
        -11    1    4    4    0    0  0.39452108662E-02 -0.26202007330E-01  0.10231749597E-01  0.28408796133E-01  0.51100000000E-03 0.  1.
         11    1    4    4    0    0 -0.19397907906E-01 -0.87793412280E-01  0.48901658337E-01  0.10235035603E+00  0.51100000000E-03 0. -1.
</event>
<event>
 8    1  0.1064884E+005  0.1043930E+01  0.7957747E-01            NaN
         13   -1    0    0    0    0  0.00000000000E+00  0.00000000000E+00  0.74505805969E-08  0.10566000000E+00  0.10566000000E+00 0.  1.
     999900   -1    0    0    0    0 -0.00000000000E+00 -0.00000000000E+00 -0.74505805969E-08  0.93827000000E+00  0.93827000000E+00 0.  1.
     999902    2    1    2    0    0  0.19660315336E-01 -0.76045433146E-02 -0.11022952427E-01  0.10201421342E+01  0.10198647515E+01 0.  0.
     999903    2    3    3    0    0  0.21435827943E-01  0.40299309640E-01 -0.12213453268E+00  0.13186080782E+00  0.19669760770E-01 0.  0.
         14    1    1    2    0    0 -0.19660315336E-01  0.76045433146E-02  0.11022952427E-01  0.23787865780E-01  0.00000000000E+00 0.  1.
     999901    1    3    3    0    0 -0.17755126074E-02 -0.47903852954E-01  0.11111158025E+00  0.88828132640E+00  0.88000000000E+00 0. -1.
        -11    1    4    4    0    0  0.19097422697E-01  0.19947127369E-01 -0.53167154169E-01  0.59913327794E-01  0.51100000000E-03 0.  1.
         11    1    4    4    0    0  0.23384052460E-02  0.20352182270E-01 -0.68967378508E-01  0.71947480022E-01  0.51100000000E-03 0. -1.
</event>
<event>
 8    1  0.1064884E+005  0.1043930E+01  0.7957747E-01            NaN
         13   -1    0    0    0    0  0.00000000000E+00  0.00000000000E+00  0.74505805969E-08  0.10566000000E+00  0.10566000000E+00 0.  1.
     999900   -1    0    0    0    0 -0.00000000000E+00 -0.00000000000E+00 -0.74505805969E-08  0.93827000000E+00  0.93827000000E+00 0. -1.
     999902    2    1    2    0    0 -0.10568400902E-01  0.17676463837E-01  0.11885766013E-01  0.10201514402E+01  0.10198742771E+01 0.  0.
     999903    2    3    3    0    0  0.70922655524E-01  0.98663323780E-02 -0.10497773107E+00  0.12865894593E+00  0.20135361047E-01 0.  0.
         14    1    1    2    0    0  0.10568400902E-01 -0.17676463837E-01 -0.11885766013E-01  0.23778559778E-01  0.00000000000E+00 0. -1.
     999901    1    3    3    0    0 -0.81491056426E-01  0.78101314591E-02  0.11686349709E+00  0.89149249429E+00  0.88000000000E+00 0.  1.
        -11    1    4    4    0    0  0.45382365169E-01  0.15517470542E-01 -0.62731328607E-01  0.78967282277E-01  0.51100000000E-03 0. -1.
         11    1    4    4    0    0  0.25540290356E-01 -0.56511381637E-02 -0.42246402467E-01  0.49691663651E-01  0.51100000000E-03 0.  1.
</event>
<event>
 8    1  0.1064884E+005  0.1043930E+01  0.7957747E-01            NaN
         13   -1    0    0    0    0  0.00000000000E+00  0.00000000000E+00  0.74505805969E-08  0.10566000000E+00  0.10566000000E+00 0.  1.
     999900   -1    0    0    0    0 -0.00000000000E+00 -0.00000000000E+00 -0.74505805969E-08  0.93827000000E+00  0.93827000000E+00 0. -1.
     999902    2    1    2    0    0  0.71274534882E-02 -0.79893823220E-02  0.20740371902E-01  0.10205891806E+01  0.10203222441E+01 0.  0.
     999903    2    3    3    0    0  0.47997718364E-01  0.11204168259E+00  0.44772975483E-01  0.13117622752E+00  0.18586654542E-01 0.  0.
         14    1    1    2    0    0 -0.71274534882E-02  0.79893823220E-02 -0.20740371902E-01  0.23340819389E-01  0.00000000000E+00 0. -1.
     999901    1    3    3    0    0 -0.40870264875E-01 -0.12003106491E+00 -0.24032603582E-01  0.88941295309E+00  0.88000000000E+00 0. -1.
        -11    1    4    4    0    0  0.68969676448E-02  0.16886113651E-01  0.14157613220E-01  0.23095630107E-01  0.51100000000E-03 0. -1.
         11    1    4    4    0    0  0.41100750719E-01  0.95155568937E-01  0.30615362263E-01  0.10808059741E+00  0.51100000000E-03 0.  1.
</event>
<event>
 8    1  0.1064884E+005  0.1043930E+01  0.7957747E-01            NaN
         13   -1    0    0    0    0  0.00000000000E+00  0.00000000000E+00  0.74505805969E-08  0.10566000000E+00  0.10566000000E+00 0. -1.
     999900   -1    0    0    0    0 -0.00000000000E+00 -0.00000000000E+00 -0.74505805969E-08  0.93827000000E+00  0.93827000000E+00 0.  1.
     999902    2    1    2    0    0 -0.93574801317E-02  0.12025455185E-01  0.18117527416E-01  0.10202568336E+01  0.10199821507E+01 0.  0.
     999903    2    3    3    0    0 -0.10316107737E-01 -0.12616776247E+00 -0.46503370093E-02  0.12918070891E+00  0.25323971928E-01 0.  0.
         14    1    1    2    0    0  0.93574801317E-02 -0.12025455185E-01 -0.18117527416E-01  0.23673166381E-01  0.00000000000E+00 0.  1.
     999901    1    3    3    0    0  0.95862760535E-03  0.13819321766E+00  0.22767864426E-01  0.89107612471E+00  0.88000000000E+00 0.  1.
        -11    1    4    4    0    0 -0.15865662892E-01 -0.10196968282E+00  0.28624599742E-02  0.10323754293E+00  0.51100000000E-03 0.  1.
         11    1    4    4    0    0  0.55495551546E-02 -0.24198079658E-01 -0.75127969834E-02  0.25943165980E-01  0.51100000000E-03 0. -1.
</event>
<event>
 8    1  0.1064884E+005  0.1043930E+01  0.7957747E-01            NaN
         13   -1    0    0    0    0  0.00000000000E+00  0.00000000000E+00  0.74505805969E-08  0.10566000000E+00  0.10566000000E+00 0. -1.
     999900   -1    0    0    0    0 -0.00000000000E+00 -0.00000000000E+00 -0.74505805969E-08  0.93827000000E+00  0.93827000000E+00 0.  1.
     999902    2    1    2    0    0  0.39067747442E-02 -0.12851349042E-01 -0.19021362108E-01  0.10206441185E+01  0.10203784515E+01 0.  0.
     999903    2    3    3    0    0 -0.12848817126E+00 -0.78198104410E-02 -0.75622935186E-02  0.13065251833E+00  0.21036460568E-01 0.  0.
         14    1    1    2    0    0 -0.39067747442E-02  0.12851349042E-01  0.19021362108E-01  0.23285881507E-01  0.00000000000E+00 0. -1.
     999901    1    3    3    0    0  0.13239494601E+00 -0.50315386014E-02 -0.11459068590E-01  0.88999160016E+00  0.88000000000E+00 0.  1.
        -11    1    4    4    0    0 -0.55500318662E-01 -0.10220591001E-01  0.45777693350E-02  0.56621223451E-01  0.51100000000E-03 0.  1.
         11    1    4    4    0    0 -0.72987852599E-01  0.24007805596E-02 -0.12140062854E-01  0.74031294879E-01  0.51100000000E-03 0. -1.
</event>
<event>
 8    1  0.1064884E+005  0.1043930E+01  0.7957747E-01            NaN
         13   -1    0    0    0    0  0.00000000000E+00  0.00000000000E+00  0.74505805969E-08  0.10566000000E+00  0.10566000000E+00 0.  1.
     999900   -1    0    0    0    0 -0.00000000000E+00 -0.00000000000E+00 -0.74505805969E-08  0.93827000000E+00  0.93827000000E+00 0.  1.
     999902    2    1    2    0    0 -0.19941375301E-01  0.60239600547E-02 -0.11704474953E-01  0.10200356225E+01  0.10197557207E+01 0.  0.
     999903    2    3    3    0    0  0.57624558977E-01 -0.10286584621E+00 -0.49503810754E-01  0.12913593460E+00  0.17985833627E-01 0.  0.
         14    1    1    2    0    0  0.19941375301E-01 -0.60239600547E-02  0.11704474953E-01  0.23894377530E-01  0.00000000000E+00 0.  1.
     999901    1    3    3    0    0 -0.77565934278E-01  0.10888980626E+00  0.37799335801E-01  0.89089968787E+00  0.88000000000E+00 0. -1.
        -11    1    4    4    0    0  0.30669408069E-01 -0.67658723376E-01 -0.24469118016E-01  0.78213261649E-01  0.51100000000E-03 0. -1.
         11    1    4    4    0    0  0.26955150908E-01 -0.35207122831E-01 -0.25034692738E-01  0.50922672947E-01  0.51100000000E-03 0.  1.
</event>
<event>
 8    1  0.1064884E+005  0.1043930E+01  0.7957747E-01            NaN
         13   -1    0    0    0    0  0.00000000000E+00  0.00000000000E+00  0.74505805969E-08  0.10566000000E+00  0.10566000000E+00 0.  1.
     999900   -1    0    0    0    0 -0.00000000000E+00 -0.00000000000E+00 -0.74505805969E-08  0.93827000000E+00  0.93827000000E+00 0.  1.
     999902    2    1    2    0    0  0.14839543463E-01 -0.59372698535E-03 -0.23276585265E-01  0.10163190604E+01  0.10159439299E+01 0.  0.
     999903    2    3    3    0    0 -0.20613632995E-01  0.59052757480E-01 -0.11123873863E+00  0.12921592593E+00  0.20261996717E-01 0.  0.
         14    1    1    2    0    0 -0.14839543463E-01  0.59372698535E-03  0.23276585265E-01  0.27610939562E-01  0.00000000000E+00 0.  1.
     999901    1    3    3    0    0  0.35453176458E-01 -0.59646484465E-01  0.87962153364E-01  0.88710313451E+00  0.88000000000E+00 0. -1.
        -11    1    4    4    0    0 -0.14774439904E-01  0.54017218134E-01 -0.84428382898E-01  0.10131414950E+00  0.51100000000E-03 0.  1.
         11    1    4    4    0    0 -0.58391930909E-02  0.50355393457E-02 -0.26810355731E-01  0.27901776428E-01  0.51100000000E-03 0. -1.
</event>
<event>
 8    1  0.1064884E+005  0.1043930E+01  0.7957747E-01            NaN
         13   -1    0    0    0    0  0.00000000000E+00  0.00000000000E+00  0.74505805969E-08  0.10566000000E+00  0.10566000000E+00 0. -1.
     999900   -1    0    0    0    0 -0.00000000000E+00 -0.00000000000E+00 -0.74505805969E-08  0.93827000000E+00  0.93827000000E+00 0. -1.
     999902    2    1    2    0    0 -0.89598254891E-02 -0.19461234840E-01  0.88579661834E-02  0.10207463484E+01  0.10204830357E+01 0.  0.
     999903    2    3    3    0    0  0.25272284022E-02  0.72585947926E-01  0.10681497297E+00  0.13046537514E+00  0.18348540549E-01 0.  0.
         14    1    1    2    0    0  0.89598254891E-02  0.19461234840E-01 -0.88579661834E-02  0.23183651550E-01  0.00000000000E+00 0.  1.
     999901    1    3    3    0    0 -0.11487053891E-01 -0.92047182766E-01 -0.97957006784E-01  0.89028097331E+00  0.88000000000E+00 0. -1.
        -11    1    4    4    0    0 -0.19824541947E-02  0.33638519858E-01  0.64516319159E-01  0.72788025813E-01  0.51100000000E-03 0.  1.
         11    1    4    4    0    0  0.45096825969E-02  0.38947428068E-01  0.42298653808E-01  0.57677349326E-01  0.51100000000E-03 0. -1.
</event>
<event>
 8    1  0.1064884E+005  0.1043930E+01  0.7957747E-01            NaN
         13   -1    0    0    0    0  0.00000000000E+00  0.00000000000E+00  0.74505805969E-08  0.10566000000E+00  0.10566000000E+00 0.  1.
     999900   -1    0    0    0    0 -0.00000000000E+00 -0.00000000000E+00 -0.74505805969E-08  0.93827000000E+00  0.93827000000E+00 0.  1.
     999902    2    1    2    0    0 -0.17700835844E-01 -0.23715139337E-02  0.15773000358E-01  0.10201028892E+01  0.10198245797E+01 0.  0.
     999903    2    3    3    0    0 -0.13040032175E+00 -0.10522061603E-02  0.16289974912E-01  0.13291453156E+00  0.19888649198E-01 0.  0.
         14    1    1    2    0    0  0.17700835844E-01  0.23715139337E-02 -0.15773000358E-01  0.23827110782E-01  0.00000000000E+00 0.  1.
     999901    1    3    3    0    0  0.11269948591E+00 -0.13193077734E-02 -0.51697455396E-03  0.88718835766E+00  0.88000000000E+00 0. -1.
        -11    1    4    4    0    0 -0.40757960876E-01 -0.83852672981E-02  0.63835320216E-03  0.41619619151E-01  0.51100000000E-03 0. -1.
         11    1    4    4    0    0 -0.89642360876E-01  0.73330611378E-02  0.15651621710E-01  0.91294912412E-01  0.51100000000E-03 0.  1.
</event>
<event>
 8    1  0.1064884E+005  0.1043930E+01  0.7957747E-01            NaN
         13   -1    0    0    0    0  0.00000000000E+00  0.00000000000E+00  0.74505805969E-08  0.10566000000E+00  0.10566000000E+00 0. -1.
     999900   -1    0    0    0    0 -0.00000000000E+00 -0.00000000000E+00 -0.74505805969E-08  0.93827000000E+00  0.93827000000E+00 0. -1.
     999902    2    1    2    0    0 -0.63151160673E-02  0.35022433402E-02 -0.22122013916E-01  0.10206592050E+01  0.10203938861E+01 0.  0.
     999903    2    3    3    0    0  0.10481451426E+00 -0.33559338164E-01 -0.69557368784E-01  0.13162969569E+00  0.19386532902E-01 0.  0.
         14    1    1    2    0    0  0.63151160673E-02 -0.35022433402E-02  0.22122013916E-01  0.23270794981E-01  0.00000000000E+00 0. -1.
     999901    1    3    3    0    0 -0.11112963033E+00  0.37061581504E-01  0.47435354867E-01  0.88902950933E+00  0.88000000000E+00 0. -1.
        -11    1    4    4    0    0  0.22518225073E-01 -0.61458244502E-02 -0.60361106605E-02  0.24115085974E-01  0.51100000000E-03 0. -1.
         11    1    4    4    0    0  0.82296289190E-01 -0.27413513714E-01 -0.63521258123E-01  0.10751460972E+00  0.51100000000E-03 0.  1.
</event>
<event>
 8    1  0.1064884E+005  0.1043930E+01  0.7957747E-01            NaN
         13   -1    0    0    0    0  0.00000000000E+00  0.00000000000E+00  0.74505805969E-08  0.10566000000E+00  0.10566000000E+00 0.  1.
     999900   -1    0    0    0    0 -0.00000000000E+00 -0.00000000000E+00 -0.74505805969E-08  0.93827000000E+00  0.93827000000E+00 0.  1.
     999902    2    1    2    0    0 -0.46338501773E-02 -0.21447366265E-01 -0.10713905285E-01  0.10195117721E+01  0.10192193108E+01 0.  0.
     999903    2    3    3    0    0  0.36363789713E-01 -0.12496000408E+00 -0.14661606110E-01  0.13248795224E+00  0.20019165116E-01 0.  0.
         14    1    1    2    0    0  0.46338501773E-02  0.21447366265E-01  0.10713905285E-01  0.24418227897E-01  0.00000000000E+00 0.  1.
     999901    1    3    3    0    0 -0.40997639890E-01  0.10351263782E+00  0.39477008248E-02  0.88702381986E+00  0.88000000000E+00 0. -1.
        -11    1    4    4    0    0  0.15947591108E-01 -0.57966949451E-01  0.32049283312E-02  0.60208185303E-01  0.51100000000E-03 0.  1.
         11    1    4    4    0    0  0.20416198605E-01 -0.66993054632E-01 -0.17866534441E-01  0.72279766936E-01  0.51100000000E-03 0. -1.
</event>
<event>
 8    1  0.1064884E+005  0.1043930E+01  0.7957747E-01            NaN
         13   -1    0    0    0    0  0.00000000000E+00  0.00000000000E+00  0.74505805969E-08  0.10566000000E+00  0.10566000000E+00 0. -1.
     999900   -1    0    0    0    0 -0.00000000000E+00 -0.00000000000E+00 -0.74505805969E-08  0.93827000000E+00  0.93827000000E+00 0. -1.
     999902    2    1    2    0    0 -0.85312524307E-02 -0.79722437143E-02  0.20349125411E-01  0.10204688440E+01  0.10201991157E+01 0.  0.
     999903    2    3    3    0    0 -0.64749318398E-01 -0.11362312818E+00  0.35721957534E-02  0.13220984699E+00  0.19078615456E-01 0.  0.
         14    1    1    2    0    0  0.85312524307E-02  0.79722437143E-02 -0.20349125411E-01  0.23461156042E-01  0.00000000000E+00 0.  1.
     999901    1    3    3    0    0  0.56218065968E-01  0.10565088446E+00  0.16776929657E-01  0.88825899697E+00  0.88000000000E+00 0.  1.
        -11    1    4    4    0    0 -0.40056670555E-01 -0.52503518358E-01  0.54178561062E-02  0.66262889929E-01  0.51100000000E-03 0.  1.
         11    1    4    4    0    0 -0.24692647843E-01 -0.61119609821E-01 -0.18456603528E-02  0.65946957059E-01  0.51100000000E-03 0. -1.
</event>
<event>
 8    1  0.1064884E+005  0.1043930E+01  0.7957747E-01            NaN
         13   -1    0    0    0    0  0.00000000000E+00  0.00000000000E+00  0.74505805969E-08  0.10566000000E+00  0.10566000000E+00 0.  1.
     999900   -1    0    0    0    0 -0.00000000000E+00 -0.00000000000E+00 -0.74505805969E-08  0.93827000000E+00  0.93827000000E+00 0.  1.
     999902    2    1    2    0    0 -0.22353785805E-01  0.80185281002E-02 -0.42646397310E-02  0.10198016829E+01  0.10195162072E+01 0.  0.
     999903    2    3    3    0    0 -0.83894230608E-01 -0.20558391699E-01  0.97009710552E-01  0.13139841823E+00  0.19843663337E-01 0.  0.
         14    1    1    2    0    0  0.22353785805E-01 -0.80185281002E-02  0.42646397310E-02  0.24128317072E-01  0.00000000000E+00 0. -1.
     999901    1    3    3    0    0  0.61540444803E-01  0.28576919799E-01 -0.10127435028E+00  0.88840326469E+00  0.88000000000E+00 0.  1.
        -11    1    4    4    0    0 -0.64921528008E-01 -0.11915073425E-01  0.61502891979E-01  0.90219956863E-01  0.51100000000E-03 0.  1.
         11    1    4    4    0    0 -0.18972702600E-01 -0.86433182732E-02  0.35506818574E-01  0.41178461372E-01  0.51100000000E-03 0. -1.
</event>
<event>
 8    1  0.1064884E+005  0.1043930E+01  0.7957747E-01            NaN
         13   -1    0    0    0    0  0.00000000000E+00  0.00000000000E+00  0.74505805969E-08  0.10566000000E+00  0.10566000000E+00 0. -1.
     999900   -1    0    0    0    0 -0.00000000000E+00 -0.00000000000E+00 -0.74505805969E-08  0.93827000000E+00  0.93827000000E+00 0.  1.
     999902    2    1    2    0    0 -0.39914194782E-02  0.15201815151E-01 -0.16927511893E-01  0.10208309249E+01  0.10205695517E+01 0.  0.
     999903    2    3    3    0    0 -0.84609075691E-02 -0.89349189188E-01 -0.93848540688E-01  0.13129861319E+00  0.19414238895E-01 0.  0.
         14    1    1    2    0    0  0.39914194782E-02 -0.15201815151E-01  0.16927511893E-01  0.23099075138E-01  0.00000000000E+00 0. -1.
     999901    1    3    3    0    0  0.44694880909E-02  0.10455100434E+00  0.76921028795E-01  0.88953231167E+00  0.88000000000E+00 0.  1.
        -11    1    4    4    0    0 -0.63940707221E-02 -0.42009816090E-01 -0.57884873618E-01  0.71809668590E-01  0.51100000000E-03 0.  1.
         11    1    4    4    0    0 -0.20668368470E-02 -0.47339373098E-01 -0.35963667070E-01  0.59488944603E-01  0.51100000000E-03 0. -1.
</event>
<event>
 8    1  0.1064884E+005  0.1043930E+01  0.7957747E-01            NaN
         13   -1    0    0    0    0  0.00000000000E+00  0.00000000000E+00  0.74505805969E-08  0.10566000000E+00  0.10566000000E+00 0. -1.
     999900   -1    0    0    0    0 -0.00000000000E+00 -0.00000000000E+00 -0.74505805969E-08  0.93827000000E+00  0.93827000000E+00 0.  1.
     999902    2    1    2    0    0  0.87805827794E-02  0.21467497102E-01  0.35898757479E-02  0.10204600346E+01  0.10201901014E+01 0.  0.
     999903    2    3    3    0    0  0.12676217949E+00 -0.23205287100E-01  0.16667271938E-01  0.13136705126E+00  0.19296857381E-01 0.  0.
         14    1    1    2    0    0 -0.87805827794E-02 -0.21467497102E-01 -0.35898757479E-02  0.23469965353E-01  0.00000000000E+00 0. -1.
     999901    1    3    3    0    0 -0.11798159671E+00  0.44672784202E-01 -0.13077396190E-01  0.88909298338E+00  0.88000000000E+00 0. -1.
        -11    1    4    4    0    0  0.23882052259E-01 -0.79474562286E-02 -0.35187370421E-02  0.25419620611E-01  0.51100000000E-03 0. -1.
         11    1    4    4    0    0  0.10288012723E+00 -0.15257830871E-01  0.20186008980E-01  0.10594743065E+00  0.51100000000E-03 0.  1.
</event>
<event>
 8    1  0.1064884E+005  0.1043930E+01  0.7957747E-01            NaN
         13   -1    0    0    0    0  0.00000000000E+00  0.00000000000E+00  0.74505805969E-08  0.10566000000E+00  0.10566000000E+00 0.  1.
     999900   -1    0    0    0    0 -0.00000000000E+00 -0.00000000000E+00 -0.74505805969E-08  0.93827000000E+00  0.93827000000E+00 0. -1.
     999902    2    1    2    0    0 -0.53205038319E-03  0.19998921152E-01 -0.12339616474E-01  0.10204245526E+01  0.10201537930E+01 0.  0.
     999903    2    3    3    0    0  0.94685635645E-01  0.89387811504E-01  0.11816226806E-01  0.13224397936E+00  0.19831702352E-01 0.  0.
         14    1    1    2    0    0  0.53205038319E-03 -0.19998921152E-01  0.12339616474E-01  0.23505447445E-01  0.00000000000E+00 0.  1.
     999901    1    3    3    0    0 -0.95217686028E-01 -0.69388890351E-01 -0.24155843280E-01  0.88818057320E+00  0.88000000000E+00 0. -1.
        -11    1    4    4    0    0  0.35696201910E-01  0.22051179905E-01  0.74338440811E-02  0.42614510731E-01  0.51100000000E-03 0.  1.
         11    1    4    4    0    0  0.58989433735E-01  0.67336631599E-01  0.43823827249E-02  0.89629468629E-01  0.51100000000E-03 0. -1.
</event>
<event>
 8    1  0.1064884E+005  0.1043930E+01  0.7957747E-01            NaN
         13   -1    0    0    0    0  0.00000000000E+00  0.00000000000E+00  0.74505805969E-08  0.10566000000E+00  0.10566000000E+00 0.  1.
     999900   -1    0    0    0    0 -0.00000000000E+00 -0.00000000000E+00 -0.74505805969E-08  0.93827000000E+00  0.93827000000E+00 0. -1.
     999902    2    1    2    0    0 -0.14387516689E-01  0.44806983391E-02  0.17729052137E-01  0.10206620696E+01  0.10203968168E+01 0.  0.
     999903    2    3    3    0    0  0.20921893738E-01 -0.14471133410E-01 -0.12367465128E+00  0.12847322542E+00  0.23723636767E-01 0.  0.
         14    1    1    2    0    0  0.14387516689E-01 -0.44806983391E-02 -0.17729052137E-01  0.23267930371E-01  0.00000000000E+00 0.  1.
     999901    1    3    3    0    0 -0.35309410426E-01  0.18951831749E-01  0.14140370341E+00  0.89218884421E+00  0.88000000000E+00 0. -1.
        -11    1    4    4    0    0  0.16971886770E-01 -0.19654063062E-02 -0.99575364818E-01  0.10103178788E+00  0.51100000000E-03 0. -1.
         11    1    4    4    0    0  0.39500069680E-02 -0.12505727104E-01 -0.24099286460E-01  0.27441437541E-01  0.51100000000E-03 0.  1.
</event>
<event>
 8    1  0.1064884E+005  0.1043930E+01  0.7957747E-01            NaN
         13   -1    0    0    0    0  0.00000000000E+00  0.00000000000E+00  0.74505805969E-08  0.10566000000E+00  0.10566000000E+00 0. -1.
     999900   -1    0    0    0    0 -0.00000000000E+00 -0.00000000000E+00 -0.74505805969E-08  0.93827000000E+00  0.93827000000E+00 0. -1.
     999902    2    1    2    0    0 -0.23572898735E-01  0.21398183800E-02 -0.73995077726E-02  0.10191305425E+01  0.10188287636E+01 0.  0.
     999903    2    3    3    0    0 -0.31996199633E-01 -0.54858617599E-01  0.11097531839E+00  0.12933709839E+00  0.19476627299E-01 0.  0.
         14    1    1    2    0    0  0.23572898735E-01 -0.21398183800E-02  0.73995077726E-02  0.24799457509E-01  0.00000000000E+00 0.  1.
     999901    1    3    3    0    0  0.84233008981E-02  0.56998435979E-01 -0.11837482617E+00  0.88979344410E+00  0.88000000000E+00 0.  1.
        -11    1    4    4    0    0 -0.15406751073E-01 -0.31392092644E-01  0.78686721408E-01  0.86108609942E-01  0.51100000000E-03 0. -1.
         11    1    4    4    0    0 -0.16589448560E-01 -0.23466524955E-01  0.32288596984E-01  0.43228488445E-01  0.51100000000E-03 0.  1.
</event>
<event>
 8    1  0.1064884E+005  0.1043930E+01  0.7957747E-01            NaN
         13   -1    0    0    0    0  0.00000000000E+00  0.00000000000E+00  0.74505805969E-08  0.10566000000E+00  0.10566000000E+00 0.  1.
     999900   -1    0    0    0    0 -0.00000000000E+00 -0.00000000000E+00 -0.74505805969E-08  0.93827000000E+00  0.93827000000E+00 0. -1.
     999902    2    1    2    0    0  0.91718157559E-02  0.26878874456E-01  0.68806376199E-02  0.10147077607E+01  0.10142868925E+01 0.  0.
     999903    2    3    3    0    0 -0.47666085949E-01  0.21996777207E-01 -0.11166255490E+00  0.12492864740E+00  0.19563405070E-01 0.  0.
         14    1    1    2    0    0 -0.91718157559E-02 -0.26878874456E-01 -0.68806376199E-02  0.29222239311E-01  0.00000000000E+00 0. -1.
     999901    1    3    3    0    0  0.56837901704E-01  0.48820972494E-02  0.11854319252E+00  0.88977911328E+00  0.88000000000E+00 0.  1.
        -11    1    4    4    0    0 -0.24848392936E-01  0.20197399673E-01 -0.52578962975E-01  0.61564486951E-01  0.51100000000E-03 0.  1.
         11    1    4    4    0    0 -0.22817693012E-01  0.17993775334E-02 -0.59083591927E-01  0.63364160453E-01  0.51100000000E-03 0. -1.
</event>
<event>
 8    1  0.1064884E+005  0.1043930E+01  0.7957747E-01            NaN
         13   -1    0    0    0    0  0.00000000000E+00  0.00000000000E+00  0.74505805969E-08  0.10566000000E+00  0.10566000000E+00 0. -1.
     999900   -1    0    0    0    0 -0.00000000000E+00 -0.00000000000E+00 -0.74505805969E-08  0.93827000000E+00  0.93827000000E+00 0. -1.
     999902    2    1    2    0    0 -0.95307694053E-02  0.20948550511E-01  0.42996396654E-02  0.10205170926E+01  0.10202484854E+01 0.  0.
     999903    2    3    3    0    0  0.46784710876E-01  0.69628904525E-01  0.10024714767E+00  0.13217755472E+00  0.19606678395E-01 0.  0.
         14    1    1    2    0    0  0.95307694053E-02 -0.20948550511E-01 -0.42996396654E-02  0.23412907449E-01  0.00000000000E+00 0.  1.
     999901    1    3    3    0    0 -0.56315480281E-01 -0.48680354014E-01 -0.95947508005E-01  0.88833953783E+00  0.88000000000E+00 0. -1.
        -11    1    4    4    0    0  0.25565475068E-01  0.42097681506E-01  0.43952512129E-01  0.66014337435E-01  0.51100000000E-03 0. -1.
         11    1    4    4    0    0  0.21219235808E-01  0.27531223020E-01  0.56294635542E-01  0.66163217282E-01  0.51100000000E-03 0.  1.
</event>
<event>
 8    1  0.1064884E+005  0.1043930E+01  0.7957747E-01            NaN
         13   -1    0    0    0    0  0.00000000000E+00  0.00000000000E+00  0.74505805969E-08  0.10566000000E+00  0.10566000000E+00 0. -1.
     999900   -1    0    0    0    0 -0.00000000000E+00 -0.00000000000E+00 -0.74505805969E-08  0.93827000000E+00  0.93827000000E+00 0.  1.
     999902    2    1    2    0    0 -0.13359184584E-01 -0.53913178380E-02  0.18830411548E-01  0.10202209612E+01  0.10199454354E+01 0.  0.
     999903    2    3    3    0    0 -0.94192850728E-01  0.83326719941E-01  0.34498100780E-01  0.13193584466E+00  0.20032792255E-01 0.  0.
         14    1    1    2    0    0  0.13359184584E-01  0.53913178380E-02 -0.18830411548E-01  0.23709038779E-01  0.00000000000E+00 0.  1.
     999901    1    3    3    0    0  0.80833666144E-01 -0.88718037779E-01 -0.15667689232E-01  0.88828511656E+00  0.88000000000E+00 0.  1.
        -11    1    4    4    0    0 -0.78784770755E-01  0.61183050475E-01  0.32355609471E-01  0.10486921547E+00  0.51100000000E-03 0.  1.
         11    1    4    4    0    0 -0.15408079973E-01  0.22143669466E-01  0.21424913086E-02  0.27066629193E-01  0.51100000000E-03 0. -1.
</event>
<event>
 8    1  0.1064884E+005  0.1043930E+01  0.7957747E-01            NaN
         13   -1    0    0    0    0  0.00000000000E+00  0.00000000000E+00  0.74505805969E-08  0.10566000000E+00  0.10566000000E+00 0.  1.
     999900   -1    0    0    0    0 -0.00000000000E+00 -0.00000000000E+00 -0.74505805969E-08  0.93827000000E+00  0.93827000000E+00 0. -1.
     999902    2    1    2    0    0 -0.35728195146E-02  0.21756444901E-01 -0.10324898867E-01  0.10195843336E+01  0.10192936289E+01 0.  0.
     999903    2    3    3    0    0  0.82355923314E-01 -0.38409462782E-01  0.87772282702E-01  0.12794161241E+00  0.20181616354E-01 0.  0.
         14    1    1    2    0    0  0.35728195146E-02 -0.21756444901E-01  0.10324898867E-01  0.24345666362E-01  0.00000000000E+00 0. -1.
     999901    1    3    3    0    0 -0.85928742828E-01  0.60165907682E-01 -0.98097181569E-01  0.89164272123E+00  0.88000000000E+00 0. -1.
        -11    1    4    4    0    0  0.21058953086E-01 -0.23803096772E-02  0.13563243964E-01  0.25166805261E-01  0.51100000000E-03 0. -1.
         11    1    4    4    0    0  0.61296970228E-01 -0.36029153104E-01  0.74209038738E-01  0.10277480715E+00  0.51100000000E-03 0.  1.
</event>
<event>
 8    1  0.1064884E+005  0.1043930E+01  0.7957747E-01            NaN
         13   -1    0    0    0    0  0.00000000000E+00  0.00000000000E+00  0.74505805969E-08  0.10566000000E+00  0.10566000000E+00 0.  1.
     999900   -1    0    0    0    0 -0.00000000000E+00 -0.00000000000E+00 -0.74505805969E-08  0.93827000000E+00  0.93827000000E+00 0.  1.
     999902    2    1    2    0    0 -0.46750041497E-03 -0.11495247482E-01 -0.21809090278E-01  0.10192724314E+01  0.10189741379E+01 0.  0.
     999903    2    3    3    0    0 -0.97380486942E-01  0.35544208041E-01 -0.77236975442E-01  0.13097232005E+00  0.21020187502E-01 0.  0.
         14    1    1    2    0    0  0.46750041497E-03  0.11495247482E-01  0.21809090278E-01  0.24657568617E-01  0.00000000000E+00 0.  1.
     999901    1    3    3    0    0  0.96912986527E-01 -0.47039455524E-01  0.55427885163E-01  0.88830011133E+00  0.88000000000E+00 0. -1.
        -11    1    4    4    0    0 -0.57018013927E-01  0.31664571789E-01 -0.47740201357E-01  0.80827513666E-01  0.51100000000E-03 0. -1.
         11    1    4    4    0    0 -0.40362473015E-01  0.38796362526E-02 -0.29496774085E-01  0.50144806389E-01  0.51100000000E-03 0.  1.
</event>
<event>
 8    1  0.1064884E+005  0.1043930E+01  0.7957747E-01            NaN
         13   -1    0    0    0    0  0.00000000000E+00  0.00000000000E+00  0.74505805969E-08  0.10566000000E+00  0.10566000000E+00 0.  1.
     999900   -1    0    0    0    0 -0.00000000000E+00 -0.00000000000E+00 -0.74505805969E-08  0.93827000000E+00  0.93827000000E+00 0. -1.
     999902    2    1    2    0    0  0.14067275427E-01  0.12615136468E-01  0.14577159610E-01  0.10200653088E+01  0.10197861102E+01 0.  0.
     999903    2    3    3    0    0  0.75672485840E-01 -0.64095726787E-01 -0.80773073281E-01  0.12946358778E+00  0.20048538286E-01 0.  0.
         14    1    1    2    0    0 -0.14067275427E-01 -0.12615136468E-01 -0.14577159610E-01  0.23864691247E-01  0.00000000000E+00 0. -1.
     999901    1    3    3    0    0 -0.61605210413E-01  0.76710863255E-01  0.95350232891E-01  0.89060172098E+00  0.88000000000E+00 0.  1.
        -11    1    4    4    0    0  0.71645999008E-01 -0.60603726766E-01 -0.68837948154E-01  0.11638249481E+00  0.51100000000E-03 0.  1.
         11    1    4    4    0    0  0.40264868319E-02 -0.34920000211E-02 -0.11935125127E-01  0.13081092965E-01  0.51100000000E-03 0. -1.
</event>
<event>
 8    1  0.1064884E+005  0.1043930E+01  0.7957747E-01            NaN
         13   -1    0    0    0    0  0.00000000000E+00  0.00000000000E+00  0.74505805969E-08  0.10566000000E+00  0.10566000000E+00 0.  1.
     999900   -1    0    0    0    0 -0.00000000000E+00 -0.00000000000E+00 -0.74505805969E-08  0.93827000000E+00  0.93827000000E+00 0.  1.
     999902    2    1    2    0    0  0.10961232551E-01  0.96934472135E-02 -0.17955493511E-01  0.10207672867E+01  0.10205044549E+01 0.  0.
     999903    2    3    3    0    0  0.40181069684E-01  0.38512654444E-01 -0.12005190515E+00  0.13391441121E+00  0.20563722528E-01 0.  0.
         14    1    1    2    0    0 -0.10961232551E-01 -0.96934472135E-02  0.17955493511E-01  0.23162713251E-01  0.00000000000E+00 0.  1.
     999901    1    3    3    0    0 -0.29219837133E-01 -0.28819207231E-01  0.10209641164E+00  0.88685287554E+00  0.88000000000E+00 0. -1.
        -11    1    4    4    0    0  0.12544433975E-01  0.25124198170E-01 -0.66356364684E-01  0.72055648027E-01  0.51100000000E-03 0.  1.
         11    1    4    4    0    0  0.27636635709E-01  0.13388456274E-01 -0.53695540470E-01  0.61858763180E-01  0.51100000000E-03 0. -1.
</event>
<event>
 8    1  0.1064884E+005  0.1043930E+01  0.7957747E-01            NaN
         13   -1    0    0    0    0  0.00000000000E+00  0.00000000000E+00  0.74505805969E-08  0.10566000000E+00  0.10566000000E+00 0.  1.
     999900   -1    0    0    0    0 -0.00000000000E+00 -0.00000000000E+00 -0.74505805969E-08  0.93827000000E+00  0.93827000000E+00 0. -1.
     999902    2    1    2    0    0  0.13301170117E-01 -0.13981264037E-01  0.13434742504E-01  0.10204164044E+01  0.10201454549E+01 0.  0.
     999903    2    3    3    0    0 -0.67260844208E-01  0.10436961146E+00 -0.24113905099E-01  0.12805601265E+00  0.19995624427E-01 0.  0.
         14    1    1    2    0    0 -0.13301170117E-01  0.13981264037E-01 -0.13434742504E-01  0.23513595572E-01  0.00000000000E+00 0. -1.
     999901    1    3    3    0    0  0.80562014325E-01 -0.11835087550E+00  0.37548647603E-01  0.89236039178E+00  0.88000000000E+00 0.  1.
        -11    1    4    4    0    0 -0.22766062768E-01  0.20000044210E-01 -0.39608730180E-02  0.30565421941E-01  0.51100000000E-03 0. -1.
         11    1    4    4    0    0 -0.44494781441E-01  0.84369567249E-01 -0.20153032081E-01  0.97490590707E-01  0.51100000000E-03 0.  1.
</event>
<event>
 8    1  0.1064884E+005  0.1043930E+01  0.7957747E-01            NaN
         13   -1    0    0    0    0  0.00000000000E+00  0.00000000000E+00  0.74505805969E-08  0.10566000000E+00  0.10566000000E+00 0.  1.
     999900   -1    0    0    0    0 -0.00000000000E+00 -0.00000000000E+00 -0.74505805969E-08  0.93827000000E+00  0.93827000000E+00 0. -1.
     999902    2    1    2    0    0 -0.19939885015E-01 -0.56272253618E-03 -0.12597396807E-01  0.10203374148E+01  0.10200646205E+01 0.  0.
     999903    2    3    3    0    0 -0.58642968386E-01 -0.27429184065E-01  0.11120400621E+00  0.13042364210E+00  0.21275280091E-01 0.  0.
         14    1    1    2    0    0  0.19939885015E-01  0.56272253618E-03  0.12597396807E-01  0.23592585220E-01  0.00000000000E+00 0.  1.
     999901    1    3    3    0    0  0.38703083371E-01  0.26866461529E-01 -0.12380140301E+00  0.88991377268E+00  0.88000000000E+00 0. -1.
        -11    1    4    4    0    0 -0.60805478634E-02  0.30220180224E-02  0.17203234703E-01  0.18501839382E-01  0.51100000000E-03 0. -1.
         11    1    4    4    0    0 -0.52562420522E-01 -0.30451202088E-01  0.94000771502E-01  0.11192180272E+00  0.51100000000E-03 0.  1.
</event>
<event>
 8    1  0.1064884E+005  0.1043930E+01  0.7957747E-01            NaN
         13   -1    0    0    0    0  0.00000000000E+00  0.00000000000E+00  0.74505805969E-08  0.10566000000E+00  0.10566000000E+00 0. -1.
     999900   -1    0    0    0    0 -0.00000000000E+00 -0.00000000000E+00 -0.74505805969E-08  0.93827000000E+00  0.93827000000E+00 0.  1.
     999902    2    1    2    0    0  0.19239281846E-01 -0.64381402107E-03 -0.15442344495E-01  0.10192514574E+01  0.10189526500E+01 0.  0.
     999903    2    3    3    0    0 -0.11335837609E+00  0.53350999564E-01  0.95730691559E-02  0.12733030072E+00  0.20613375355E-01 0.  0.
         14    1    1    2    0    0 -0.19239281846E-01  0.64381402107E-03  0.15442344495E-01  0.24678542622E-01  0.00000000000E+00 0. -1.
     999901    1    3    3    0    0  0.13259765793E+00 -0.53994813585E-01 -0.25015413651E-01  0.89192115666E+00  0.88000000000E+00 0.  1.
        -11    1    4    4    0    0 -0.69204417752E-01  0.43100396180E-01  0.86749267264E-02  0.81990310781E-01  0.51100000000E-03 0. -1.
         11    1    4    4    0    0 -0.44153958335E-01  0.10250603384E-01  0.89814242942E-03  0.45339989934E-01  0.51100000000E-03 0.  1.
</event>
<event>
 8    1  0.1064884E+005  0.1043930E+01  0.7957747E-01            NaN
         13   -1    0    0    0    0  0.00000000000E+00  0.00000000000E+00  0.74505805969E-08  0.10566000000E+00  0.10566000000E+00 0. -1.
     999900   -1    0    0    0    0 -0.00000000000E+00 -0.00000000000E+00 -0.74505805969E-08  0.93827000000E+00  0.93827000000E+00 0. -1.
     999902    2    1    2    0    0 -0.39210189971E-02  0.45869562002E-02 -0.23257890642E-01  0.10199020156E+01  0.10196189373E+01 0.  0.
     999903    2    3    3    0    0  0.88353494931E-01 -0.51379826158E-01 -0.80227723437E-01  0.13148070311E+00  0.20111217730E-01 0.  0.
         14    1    1    2    0    0  0.39210189971E-02 -0.45869562002E-02  0.23257890642E-01  0.24027984398E-01  0.00000000000E+00 0. -1.
     999901    1    3    3    0    0 -0.92274513928E-01  0.55966782358E-01  0.56969832796E-01  0.88842131250E+00  0.88000000000E+00 0.  1.
        -11    1    4    4    0    0  0.78716273505E-01 -0.43364111683E-01 -0.61353220959E-01  0.10881717116E+00  0.51100000000E-03 0.  1.
         11    1    4    4    0    0  0.96372214262E-02 -0.80157144749E-02 -0.18874502478E-01  0.22663531944E-01  0.51100000000E-03 0. -1.
</event>
<event>
 8    1  0.1064884E+005  0.1043930E+01  0.7957747E-01            NaN
         13   -1    0    0    0    0  0.00000000000E+00  0.00000000000E+00  0.74505805969E-08  0.10566000000E+00  0.10566000000E+00 0.  1.
     999900   -1    0    0    0    0 -0.00000000000E+00 -0.00000000000E+00 -0.74505805969E-08  0.93827000000E+00  0.93827000000E+00 0.  1.
     999902    2    1    2    0    0  0.14440447410E-02 -0.56354043336E-02  0.22721659401E-01  0.10204754300E+01  0.10202058549E+01 0.  0.
     999903    2    3    3    0    0  0.94525258044E-01  0.20584237405E-01 -0.82815882351E-01  0.12890952970E+00  0.20011527690E-01 0.  0.
         14    1    1    2    0    0 -0.14440447410E-02  0.56354043336E-02 -0.22721659401E-01  0.23454569985E-01  0.00000000000E+00 0. -1.
     999901    1    3    3    0    0 -0.93081213303E-01 -0.26219641739E-01  0.10553754175E+00  0.89156590031E+00  0.88000000000E+00 0. -1.
        -11    1    4    4    0    0  0.83413925862E-01  0.21338413284E-01 -0.64954466978E-01  0.10785432217E+00  0.51100000000E-03 0.  1.
         11    1    4    4    0    0  0.11111332182E-01 -0.75417587820E-03 -0.17861415373E-01  0.21055207532E-01  0.51100000000E-03 0. -1.
</event>
<event>
 8    1  0.1064884E+005  0.1043930E+01  0.7957747E-01            NaN
         13   -1    0    0    0    0  0.00000000000E+00  0.00000000000E+00  0.74505805969E-08  0.10566000000E+00  0.10566000000E+00 0. -1.
     999900   -1    0    0    0    0 -0.00000000000E+00 -0.00000000000E+00 -0.74505805969E-08  0.93827000000E+00  0.93827000000E+00 0. -1.
     999902    2    1    2    0    0  0.59222905698E-02  0.22457853089E-01 -0.75710586594E-02  0.10195015408E+01  0.10192088314E+01 0.  0.
     999903    2    3    3    0    0 -0.54412942668E-01 -0.42874185790E-01 -0.10791921361E+00  0.12934516806E+00  0.16871624048E-01 0.  0.
         14    1    1    2    0    0 -0.59222905698E-02 -0.22457853089E-01  0.75710586594E-02  0.24428459226E-01  0.00000000000E+00 0. -1.
     999901    1    3    3    0    0  0.60335233237E-01  0.65332038879E-01  0.10034815495E+00  0.89015637271E+00  0.88000000000E+00 0.  1.
        -11    1    4    4    0    0 -0.94564653998E-02 -0.11058127778E-01 -0.35432829068E-01  0.38307354706E-01  0.51100000000E-03 0.  1.
         11    1    4    4    0    0 -0.44956477268E-01 -0.31816058012E-01 -0.72486384543E-01  0.91037813357E-01  0.51100000000E-03 0. -1.
</event>
<event>
 8    1  0.1064884E+005  0.1043930E+01  0.7957747E-01            NaN
         13   -1    0    0    0    0  0.00000000000E+00  0.00000000000E+00  0.74505805969E-08  0.10566000000E+00  0.10566000000E+00 0.  1.
     999900   -1    0    0    0    0 -0.00000000000E+00 -0.00000000000E+00 -0.74505805969E-08  0.93827000000E+00  0.93827000000E+00 0.  1.
     999902    2    1    2    0    0  0.43695567473E-02 -0.48280595403E-03  0.22862045960E-01  0.10206491222E+01  0.10203835707E+01 0.  0.
     999903    2    3    3    0    0  0.10483891093E+00  0.53091979928E-01 -0.52015401756E-01  0.13015994143E+00  0.20641045427E-01 0.  0.
         14    1    1    2    0    0 -0.43695567473E-02  0.48280595403E-03 -0.22862045960E-01  0.23280877845E-01  0.00000000000E+00 0. -1.
     999901    1    3    3    0    0 -0.10046935418E+00 -0.53574785882E-01  0.74877447716E-01  0.89048918072E+00  0.88000000000E+00 0. -1.
        -11    1    4    4    0    0  0.58936677774E-01  0.23917665437E-01 -0.18382306654E-01  0.66209946579E-01  0.51100000000E-03 0.  1.
         11    1    4    4    0    0  0.45902233152E-01  0.29174314491E-01 -0.33633095101E-01  0.63949994851E-01  0.51100000000E-03 0. -1.
</event>
<event>
 8    1  0.1159818E+005  0.1043930E+01  0.7957747E-01            NaN
         13   -1    0    0    0    0  0.00000000000E+00  0.00000000000E+00  0.74505805969E-08  0.10566000000E+00  0.10566000000E+00 0. -1.
     999900   -1    0    0    0    0 -0.00000000000E+00 -0.00000000000E+00 -0.74505805969E-08  0.93827000000E+00  0.93827000000E+00 0. -1.
     999902    2    1    2    0    0 -0.46421212749E-02 -0.17136225103E-01  0.14594080017E-01  0.10209476878E+01  0.10206889804E+01 0.  0.
     999903    2    3    3    0    0 -0.94935241343E-01  0.82344069289E-01  0.32493294951E-01  0.13057161089E+00  0.14138088919E-01 0.  0.
         14    1    1    2    0    0  0.46421212749E-02  0.17136225103E-01 -0.14594080017E-01  0.22982312161E-01  0.00000000000E+00 0.  1.
     999901    1    3    3    0    0  0.90293120068E-01 -0.99480294393E-01 -0.17899214935E-01  0.89037607695E+00  0.88000000000E+00 0.  1.
        -11    1    4    4    0    0 -0.49326580167E-01  0.48408952056E-01  0.23581668194E-01  0.73026668731E-01  0.51100000000E-03 0. -1.
         11    1    4    4    0    0 -0.45608661176E-01  0.33935117233E-01  0.89116267572E-02  0.57544942161E-01  0.51100000000E-03 0.  1.
</event>
<event>
 8    1  0.1064884E+005  0.1043930E+01  0.7957747E-01            NaN
         13   -1    0    0    0    0  0.00000000000E+00  0.00000000000E+00  0.74505805969E-08  0.10566000000E+00  0.10566000000E+00 0.  1.
     999900   -1    0    0    0    0 -0.00000000000E+00 -0.00000000000E+00 -0.74505805969E-08  0.93827000000E+00  0.93827000000E+00 0. -1.
     999902    2    1    2    0    0  0.44484455947E-02  0.20251879305E-01  0.96851051077E-02  0.10210448838E+01  0.10207883846E+01 0.  0.
     999903    2    3    3    0    0 -0.10227720611E+00  0.80247111759E-01 -0.13791295061E-01  0.13225866988E+00  0.20048194549E-01 0.  0.
         14    1    1    2    0    0 -0.44484455947E-02 -0.20251879305E-01 -0.96851051077E-02  0.22885116223E-01  0.00000000000E+00 0. -1.
     999901    1    3    3    0    0  0.10672565170E+00 -0.59995232454E-01  0.23476400169E-01  0.88878621390E+00  0.88000000000E+00 0. -1.
        -11    1    4    4    0    0 -0.35890556235E-01  0.18861308104E-01  0.13992101811E-02  0.40572156467E-01  0.51100000000E-03 0.  1.
         11    1    4    4    0    0 -0.66386649871E-01  0.61385803655E-01 -0.15190505242E-01  0.91686513414E-01  0.51100000000E-03 0. -1.
</event>
<event>
 8    1  0.1064884E+005  0.1043930E+01  0.7957747E-01            NaN
         13   -1    0    0    0    0  0.00000000000E+00  0.00000000000E+00  0.74505805969E-08  0.10566000000E+00  0.10566000000E+00 0.  1.
     999900   -1    0    0    0    0 -0.00000000000E+00 -0.00000000000E+00 -0.74505805969E-08  0.93827000000E+00  0.93827000000E+00 0. -1.
     999902    2    1    2    0    0  0.22378026506E-01  0.75656203626E-02 -0.12239262677E-02  0.10202759797E+01  0.10200017461E+01 0.  0.
     999903    2    3    3    0    0  0.43982008643E-01  0.60242806810E-01 -0.10723276497E+00  0.13208709667E+00  0.19609241865E-01 0.  0.
         14    1    1    2    0    0 -0.22378026506E-01 -0.75656203626E-02  0.12239262677E-02  0.23654020320E-01  0.00000000000E+00 0.  1.
     999901    1    3    3    0    0 -0.21603982137E-01 -0.52677186447E-01  0.10600883871E+00  0.88818888301E+00  0.88000000000E+00 0.  1.
        -11    1    4    4    0    0  0.13378574448E-01  0.28680631935E-01 -0.58046373533E-01  0.66115107984E-01  0.51100000000E-03 0. -1.
         11    1    4    4    0    0  0.30603434195E-01  0.31562174875E-01 -0.49186391442E-01  0.65971988688E-01  0.51100000000E-03 0.  1.
</event>
<event>
 8    1  0.1064884E+005  0.1043930E+01  0.7957747E-01            NaN
         13   -1    0    0    0    0  0.00000000000E+00  0.00000000000E+00  0.74505805969E-08  0.10566000000E+00  0.10566000000E+00 0.  1.
     999900   -1    0    0    0    0 -0.00000000000E+00 -0.00000000000E+00 -0.74505805969E-08  0.93827000000E+00  0.93827000000E+00 0.  1.
     999902    2    1    2    0    0  0.57653263128E-02 -0.12286691950E-01 -0.19270409219E-01  0.10203598821E+01  0.10200876132E+01 0.  0.
     999903    2    3    3    0    0  0.75086778047E-01  0.99793748644E-01 -0.31526756460E-01  0.13046229985E+00  0.20728212754E-01 0.  0.
         14    1    1    2    0    0 -0.57653263128E-02  0.12286691950E-01  0.19270409219E-01  0.23570117904E-01  0.00000000000E+00 0.  1.
     999901    1    3    3    0    0 -0.69321451734E-01 -0.11208044059E+00  0.12256347241E-01  0.88989758224E+00  0.88000000000E+00 0.  1.
        -11    1    4    4    0    0  0.44154388897E-01  0.48962118333E-01 -0.25344077755E-01  0.70636268933E-01  0.51100000000E-03 0.  1.
         11    1    4    4    0    0  0.30932389150E-01  0.50831630312E-01 -0.61826787059E-02  0.59826030920E-01  0.51100000000E-03 0. -1.
</event>
<event>
 8    1  0.1064884E+005  0.1043930E+01  0.7957747E-01            NaN
         13   -1    0    0    0    0  0.00000000000E+00  0.00000000000E+00  0.74505805969E-08  0.10566000000E+00  0.10566000000E+00 0. -1.
     999900   -1    0    0    0    0 -0.00000000000E+00 -0.00000000000E+00 -0.74505805969E-08  0.93827000000E+00  0.93827000000E+00 0.  1.
     999902    2    1    2    0    0 -0.16721695312E-01  0.53276041027E-02  0.15823438642E-01  0.10202999414E+01  0.10200262696E+01 0.  0.
     999903    2    3    3    0    0  0.11198359047E+00  0.58985277550E-01  0.17449047945E-01  0.12931911156E+00  0.19984389864E-01 0.  0.
         14    1    1    2    0    0  0.16721695312E-01 -0.53276041027E-02 -0.15823438642E-01  0.23630058613E-01  0.00000000000E+00 0.  1.
     999901    1    3    3    0    0 -0.12870528579E+00 -0.53657673447E-01 -0.16256093028E-02  0.89098082982E+00  0.88000000000E+00 0. -1.
        -11    1    4    4    0    0  0.78651516972E-01  0.49167016902E-01  0.18357946332E-01  0.94555443987E-01  0.51100000000E-03 0.  1.
         11    1    4    4    0    0  0.33332073502E-01  0.98182606479E-02 -0.90889838666E-03  0.34763667576E-01  0.51100000000E-03 0. -1.
</event>
<event>
 8    1  0.1064884E+005  0.1043930E+01  0.7957747E-01            NaN
         13   -1    0    0    0    0  0.00000000000E+00  0.00000000000E+00  0.74505805969E-08  0.10566000000E+00  0.10566000000E+00 0.  1.
     999900   -1    0    0    0    0 -0.00000000000E+00 -0.00000000000E+00 -0.74505805969E-08  0.93827000000E+00  0.93827000000E+00 0.  1.
     999902    2    1    2    0    0  0.13208657723E-01 -0.16168569684E-01  0.11235185925E-01  0.10202209155E+01  0.10199453886E+01 0.  0.
     999903    2    3    3    0    0 -0.75453073348E-01 -0.10467070774E+00 -0.14237257393E-01  0.13098395251E+00  0.17463475635E-01 0.  0.
         14    1    1    2    0    0 -0.13208657723E-01  0.16168569684E-01 -0.11235185925E-01  0.23709084488E-01  0.00000000000E+00 0.  1.
     999901    1    3    3    0    0  0.88661731071E-01  0.88502138055E-01  0.25472443318E-01  0.88923696300E+00  0.88000000000E+00 0. -1.
        -11    1    4    4    0    0 -0.29352103156E-01 -0.43392184433E-01 -0.14271170576E-01  0.54298757446E-01  0.51100000000E-03 0.  1.
         11    1    4    4    0    0 -0.46100970192E-01 -0.61278523306E-01  0.33913182876E-04  0.76685195066E-01  0.51100000000E-03 0. -1.
</event>
<event>
 8    1  0.1064884E+005  0.1043930E+01  0.7957747E-01            NaN
         13   -1    0    0    0    0  0.00000000000E+00  0.00000000000E+00  0.74505805969E-08  0.10566000000E+00  0.10566000000E+00 0.  1.
     999900   -1    0    0    0    0 -0.00000000000E+00 -0.00000000000E+00 -0.74505805969E-08  0.93827000000E+00  0.93827000000E+00 0.  1.
     999902    2    1    2    0    0  0.17941227050E-01  0.12853600276E-02 -0.15367690852E-01  0.10202718999E+01  0.10199975706E+01 0.  0.
     999903    2    3    3    0    0 -0.36905083225E-01  0.10317638371E+00  0.65278622737E-01  0.12904032149E+00  0.19564116602E-01 0.  0.
         14    1    1    2    0    0 -0.17941227050E-01 -0.12853600276E-02  0.15367690852E-01  0.23658100105E-01  0.00000000000E+00 0. -1.
     999901    1    3    3    0    0  0.54846310275E-01 -0.10189102369E+00 -0.80646313588E-01  0.89123157841E+00  0.88000000000E+00 0.  1.
        -11    1    4    4    0    0 -0.94517085891E-02  0.54437673664E-01  0.35373375699E-01  0.65607407650E-01  0.51100000000E-03 0.  1.
         11    1    4    4    0    0 -0.27453374636E-01  0.48738710051E-01  0.29905247037E-01  0.63432913836E-01  0.51100000000E-03 0. -1.
</event>
<event>
 8    1  0.1064884E+005  0.1043930E+01  0.7957747E-01            NaN
         13   -1    0    0    0    0  0.00000000000E+00  0.00000000000E+00  0.74505805969E-08  0.10566000000E+00  0.10566000000E+00 0. -1.
     999900   -1    0    0    0    0 -0.00000000000E+00 -0.00000000000E+00 -0.74505805969E-08  0.93827000000E+00  0.93827000000E+00 0.  1.
     999902    2    1    2    0    0 -0.16531357810E-01  0.24024591778E-02  0.16616419741E-01  0.10203681027E+01  0.10200960258E+01 0.  0.
     999903    2    3    3    0    0  0.10840832631E+00 -0.58601841151E-01  0.33567224339E-01  0.12929078890E+00  0.20070090819E-01 0.  0.
         14    1    1    2    0    0  0.16531357810E-01 -0.24024591778E-02 -0.16616419741E-01  0.23561897338E-01  0.00000000000E+00 0. -1.
     999901    1    3    3    0    0 -0.12493968412E+00  0.61004300329E-01 -0.16950804597E-01  0.89107731376E+00  0.88000000000E+00 0. -1.
        -11    1    4    4    0    0  0.25412873436E-01 -0.19180793341E-01  0.11739155867E-02  0.31864653902E-01  0.51100000000E-03 0. -1.
         11    1    4    4    0    0  0.82995452871E-01 -0.39421047810E-01  0.32393308752E-01  0.97426134998E-01  0.51100000000E-03 0.  1.
</event>
<event>
 8    1  0.1064884E+005  0.1043930E+01  0.7957747E-01            NaN
         13   -1    0    0    0    0  0.00000000000E+00  0.00000000000E+00  0.74505805969E-08  0.10566000000E+00  0.10566000000E+00 0. -1.
     999900   -1    0    0    0    0 -0.00000000000E+00 -0.00000000000E+00 -0.74505805969E-08  0.93827000000E+00  0.93827000000E+00 0.  1.
     999902    2    1    2    0    0 -0.56085762519E-02  0.21155752305E-01 -0.31653242132E-02  0.10218157227E+01  0.10215763945E+01 0.  0.
     999903    2    3    3    0    0  0.46538334997E-01 -0.11366192464E+00  0.35334726313E-01  0.12919186000E+00  0.18898255748E-01 0.  0.
         14    1    1    2    0    0  0.56085762519E-02 -0.21155752305E-01  0.31653242132E-02  0.22114277301E-01  0.00000000000E+00 0.  1.
     999901    1    3    3    0    0 -0.52146911249E-01  0.13481767694E+00 -0.38500050526E-01  0.89262386270E+00  0.88000000000E+00 0.  1.
        -11    1    4    4    0    0  0.17358825068E-01 -0.43950394070E-01  0.23218732258E-01  0.52652982777E-01  0.51100000000E-03 0.  1.
         11    1    4    4    0    0  0.29179509929E-01 -0.69711530566E-01  0.12115994055E-01  0.76538877223E-01  0.51100000000E-03 0. -1.
</event>
<event>
 8    1  0.1064884E+005  0.1043930E+01  0.7957747E-01            NaN
         13   -1    0    0    0    0  0.00000000000E+00  0.00000000000E+00  0.74505805969E-08  0.10566000000E+00  0.10566000000E+00 0. -1.
     999900   -1    0    0    0    0 -0.00000000000E+00 -0.00000000000E+00 -0.74505805969E-08  0.93827000000E+00  0.93827000000E+00 0.  1.
     999902    2    1    2    0    0  0.94823190908E-02 -0.19079594435E-01  0.89441145003E-02  0.10208228045E+01  0.10205612455E+01 0.  0.
     999903    2    3    3    0    0  0.35632879123E-01 -0.57733715412E-01 -0.11092579255E+00  0.13147091270E+00  0.19421263155E-01 0.  0.
         14    1    1    2    0    0 -0.94823190908E-02  0.19079594435E-01 -0.89441145003E-02  0.23107195488E-01  0.00000000000E+00 0. -1.
     999901    1    3    3    0    0 -0.26150560033E-01  0.38654120977E-01  0.11986990705E+00  0.88935189181E+00  0.88000000000E+00 0. -1.
        -11    1    4    4    0    0  0.32073835334E-01 -0.40116395082E-01 -0.91987432326E-01  0.10535656076E+00  0.51100000000E-03 0.  1.
         11    1    4    4    0    0  0.35590437893E-02 -0.17617320330E-01 -0.18938360224E-01  0.26114351941E-01  0.51100000000E-03 0. -1.
</event>
<event>
 8    1  0.1064884E+005  0.1043930E+01  0.7957747E-01            NaN
         13   -1    0    0    0    0  0.00000000000E+00  0.00000000000E+00  0.74505805969E-08  0.10566000000E+00  0.10566000000E+00 0.  1.
     999900   -1    0    0    0    0 -0.00000000000E+00 -0.00000000000E+00 -0.74505805969E-08  0.93827000000E+00  0.93827000000E+00 0. -1.
     999902    2    1    2    0    0  0.20016800095E-01 -0.13941864195E-01  0.13878248078E-02  0.10194969502E+01  0.10192041295E+01 0.  0.
     999903    2    3    3    0    0 -0.20306964324E-01  0.75367415013E-01  0.99816633837E-01  0.12860392423E+00  0.21977008241E-01 0.  0.
         14    1    1    2    0    0 -0.20016800095E-01  0.13941864195E-01 -0.13878248078E-02  0.24433049769E-01  0.00000000000E+00 0. -1.
     999901    1    3    3    0    0  0.40323764419E-01 -0.89309279209E-01 -0.98428809029E-01  0.89089302600E+00  0.88000000000E+00 0. -1.
        -11    1    4    4    0    0 -0.13627128312E-01  0.20171249954E-01  0.40860503311E-01  0.47564900952E-01  0.51100000000E-03 0.  1.
         11    1    4    4    0    0 -0.66798360114E-02  0.55196165060E-01  0.58956130526E-01  0.81039023279E-01  0.51100000000E-03 0. -1.
</event>
<event>
 8    1  0.1064884E+005  0.1043930E+01  0.7957747E-01            NaN
         13   -1    0    0    0    0  0.00000000000E+00  0.00000000000E+00  0.74505805969E-08  0.10566000000E+00  0.10566000000E+00 0. -1.
     999900   -1    0    0    0    0 -0.00000000000E+00 -0.00000000000E+00 -0.74505805969E-08  0.93827000000E+00  0.93827000000E+00 0.  1.
     999902    2    1    2    0    0  0.94674120148E-02 -0.21140389390E-01  0.12158804338E-01  0.10177692570E+01  0.10174329835E+01 0.  0.
     999903    2    3    3    0    0 -0.75904720118E-01  0.91410059631E-01 -0.34254428250E-01  0.12529505975E+00  0.20202985036E-01 0.  0.
         14    1    1    2    0    0 -0.94674120148E-02  0.21140389390E-01 -0.12158804338E-01  0.26160743047E-01  0.00000000000E+00 0.  1.
     999901    1    3    3    0    0  0.85372132132E-01 -0.11255044902E+00  0.46413232589E-01  0.89247419721E+00  0.88000000000E+00 0.  1.
        -11    1    4    4    0    0 -0.33782549864E-01  0.46074610469E-01 -0.66111826244E-02  0.57516078290E-01  0.51100000000E-03 0.  1.
         11    1    4    4    0    0 -0.42122170253E-01  0.45335449163E-01 -0.27643245626E-01  0.67778981457E-01  0.51100000000E-03 0. -1.
</event>
<event>
 8    1  0.1064884E+005  0.1043930E+01  0.7957747E-01            NaN
         13   -1    0    0    0    0  0.00000000000E+00  0.00000000000E+00  0.74505805969E-08  0.10566000000E+00  0.10566000000E+00 0.  1.
     999900   -1    0    0    0    0 -0.00000000000E+00 -0.00000000000E+00 -0.74505805969E-08  0.93827000000E+00  0.93827000000E+00 0. -1.
     999902    2    1    2    0    0  0.18666887954E-01  0.23594981536E-02  0.16389649485E-01  0.10189772337E+01  0.10186716655E+01 0.  0.
     999903    2    3    3    0    0 -0.61695638156E-02  0.12568777512E+00  0.25891833971E-01  0.12997948072E+00  0.19717961589E-01 0.  0.
         14    1    1    2    0    0 -0.18666887954E-01 -0.23594981536E-02 -0.16389649485E-01  0.24952766333E-01  0.00000000000E+00 0. -1.
     999901    1    3    3    0    0  0.24836451770E-01 -0.12332827697E+00 -0.95021844861E-02  0.88899775295E+00  0.88000000000E+00 0. -1.
        -11    1    4    4    0    0 -0.11214264936E-01  0.11496240172E+00  0.23681579756E-01  0.11791179707E+00  0.51100000000E-03 0.  1.
         11    1    4    4    0    0  0.50447011208E-02  0.10725373396E-01  0.22102542150E-02  0.12067683646E-01  0.51100000000E-03 0. -1.
</event>
<event>
 8    1  0.1064884E+005  0.1043930E+01  0.7957747E-01            NaN
         13   -1    0    0    0    0  0.00000000000E+00  0.00000000000E+00  0.74505805969E-08  0.10566000000E+00  0.10566000000E+00 0.  1.
     999900   -1    0    0    0    0 -0.00000000000E+00 -0.00000000000E+00 -0.74505805969E-08  0.93827000000E+00  0.93827000000E+00 0.  1.
     999902    2    1    2    0    0  0.23920023457E-02  0.23800714040E-01  0.35953133237E-02  0.10197407060E+01  0.10194537683E+01 0.  0.
     999903    2    3    3    0    0 -0.12560529040E+00 -0.21450484525E-01 -0.90648399315E-02  0.12924014041E+00  0.19596691236E-01 0.  0.
         14    1    1    2    0    0 -0.23920023457E-02 -0.23800714040E-01 -0.35953133237E-02  0.24189293953E-01  0.00000000000E+00 0. -1.
     999901    1    3    3    0    0  0.12799729274E+00  0.45251198566E-01  0.12660153255E-01  0.89050056564E+00  0.88000000000E+00 0.  1.
        -11    1    4    4    0    0 -0.42348895211E-01 -0.81191605926E-03 -0.97163106800E-02  0.43459819921E-01  0.51100000000E-03 0. -1.
         11    1    4    4    0    0 -0.83256395187E-01 -0.20638568466E-01  0.65147074856E-03  0.85780320488E-01  0.51100000000E-03 0.  1.
</event>
<event>
 8    1  0.1064884E+005  0.1043930E+01  0.7957747E-01            NaN
         13   -1    0    0    0    0  0.00000000000E+00  0.00000000000E+00  0.74505805969E-08  0.10566000000E+00  0.10566000000E+00 0. -1.
     999900   -1    0    0    0    0 -0.00000000000E+00 -0.00000000000E+00 -0.74505805969E-08  0.93827000000E+00  0.93827000000E+00 0.  1.
     999902    2    1    2    0    0  0.14834145521E-01  0.13137401616E-01  0.12853778898E-01  0.10203108801E+01  0.10200374646E+01 0.  0.
     999903    2    3    3    0    0  0.27844319193E-01 -0.12259793909E+00 -0.18937307892E-01  0.12924184765E+00  0.23222247351E-01 0.  0.
         14    1    1    2    0    0 -0.14834145521E-01 -0.13137401616E-01 -0.12853778898E-01  0.23619119936E-01  0.00000000000E+00 0.  1.
     999901    1    3    3    0    0 -0.13010173672E-01  0.13573534071E+00  0.31791086790E-01  0.89106903242E+00  0.88000000000E+00 0. -1.
        -11    1    4    4    0    0  0.97236980294E-02 -0.20580059635E-01 -0.11102418593E-01  0.25330100228E-01  0.51100000000E-03 0. -1.
         11    1    4    4    0    0  0.18120621164E-01 -0.10201787946E+00 -0.78348892982E-02  0.10391174742E+00  0.51100000000E-03 0.  1.
</event>
<event>
 7    1  0.1064884E+005  0.1043930E+01  0.7957747E-01            NaN
         13   -1    0    0    0    0  0.00000000000E+00  0.00000000000E+00  0.74505805969E-08  0.10566000000E+00  0.10566000000E+00 0.  1.
     999900   -1    0    0    0    0 -0.00000000000E+00 -0.00000000000E+00 -0.74505805969E-08  0.93827000000E+00  0.93827000000E+00 0.  1.
     999903    2    1    2    0    0  0.32392087097E-01 -0.35267877402E-01 -0.61329525694E-01  0.80320144845E-01  0.19923465138E-01 0.  0.
         14    1    1    2    0    0 -0.53234995619E-02  0.51880931597E-01 -0.54521096516E-01  0.75448795061E-01  0.00000000000E+00 0. -1.
     999901    1    1    2    0    0 -0.27068587535E-01 -0.16613054195E-01  0.11585062221E+00  0.88816106009E+00  0.88000000000E+00 0. -1.
        -11    1    3    3    0    0  0.30931920618E-01 -0.22809337734E-01 -0.39341703527E-01  0.55000730527E-01  0.51100000000E-03 0. -1.
         11    1    3    3    0    0  0.14601664789E-02 -0.12458539667E-01 -0.21987822167E-01  0.25319414318E-01  0.51100000000E-03 0.  1.
</event>
<event>
 8    1  0.1064884E+005  0.1043930E+01  0.7957747E-01            NaN
         13   -1    0    0    0    0  0.00000000000E+00  0.00000000000E+00  0.74505805969E-08  0.10566000000E+00  0.10566000000E+00 0. -1.
     999900   -1    0    0    0    0 -0.00000000000E+00 -0.00000000000E+00 -0.74505805969E-08  0.93827000000E+00  0.93827000000E+00 0.  1.
     999902    2    1    2    0    0  0.91677161078E-02  0.20912924936E-01 -0.13892097666E-01  0.10172019655E+01  0.10168507515E+01 0.  0.
     999903    2    3    3    0    0 -0.79425210707E-01 -0.55107357702E-01  0.76527561495E-01  0.12489960378E+00  0.19956412193E-01 0.  0.
         14    1    1    2    0    0 -0.91677161078E-02 -0.20912924936E-01  0.13892097666E-01  0.26728034451E-01  0.00000000000E+00 0. -1.
     999901    1    3    3    0    0  0.88592926815E-01  0.76020282639E-01 -0.90419659161E-01  0.89230236177E+00  0.88000000000E+00 0.  1.
        -11    1    4    4    0    0 -0.38900076335E-01 -0.16752914087E-01  0.39615136205E-01  0.57995656793E-01  0.51100000000E-03 0. -1.
         11    1    4    4    0    0 -0.40525134372E-01 -0.38354443615E-01  0.36912425290E-01  0.66903946988E-01  0.51100000000E-03 0.  1.
</event>
<event>
 8    1  0.1064884E+005  0.1043930E+01  0.7957747E-01            NaN
         13   -1    0    0    0    0  0.00000000000E+00  0.00000000000E+00  0.74505805969E-08  0.10566000000E+00  0.10566000000E+00 0. -1.
     999900   -1    0    0    0    0 -0.00000000000E+00 -0.00000000000E+00 -0.74505805969E-08  0.93827000000E+00  0.93827000000E+00 0.  1.
     999902    2    1    2    0    0 -0.13988452875E-02 -0.14513673277E-01  0.17463619023E-01  0.10211795831E+01  0.10209261283E+01 0.  0.
     999903    2    3    3    0    0 -0.36031638066E-01 -0.13172570566E-01 -0.12213978437E+00  0.12950119985E+00  0.19509953380E-01 0.  0.
         14    1    1    2    0    0  0.13988452875E-02  0.14513673277E-01 -0.17463619023E-01  0.22750416909E-01  0.00000000000E+00 0.  1.
     999901    1    3    3    0    0  0.34632792779E-01 -0.13411027116E-02  0.13960340339E+00  0.89167838324E+00  0.88000000000E+00 0. -1.
        -11    1    4    4    0    0 -0.38206743408E-02 -0.64157765725E-02 -0.91865768956E-02  0.11849643771E-01  0.51100000000E-03 0.  1.
         11    1    4    4    0    0 -0.32210963726E-01 -0.67567939931E-02 -0.11295320747E+00  0.11765155608E+00  0.51100000000E-03 0. -1.
</event>
<event>
 8    1  0.1064884E+005  0.1043930E+01  0.7957747E-01            NaN
         13   -1    0    0    0    0  0.00000000000E+00  0.00000000000E+00  0.74505805969E-08  0.10566000000E+00  0.10566000000E+00 0.  1.
     999900   -1    0    0    0    0 -0.00000000000E+00 -0.00000000000E+00 -0.74505805969E-08  0.93827000000E+00  0.93827000000E+00 0.  1.
     999902    2    1    2    0    0 -0.55837795469E-02  0.16856255681E-01 -0.11710360812E-01  0.10226592572E+01  0.10224380235E+01 0.  0.
     999903    2    3    3    0    0 -0.10950890878E+00 -0.61646974454E-01 -0.37944611042E-01  0.13268654664E+00  0.19322929153E-01 0.  0.
         14    1    1    2    0    0  0.55837795469E-02 -0.16856255681E-01  0.11710360812E-01  0.21270742817E-01  0.00000000000E+00 0.  1.
     999901    1    3    3    0    0  0.10392512923E+00  0.78503230135E-01  0.26234250230E-01  0.88997271054E+00  0.88000000000E+00 0.  1.
        -11    1    4    4    0    0 -0.64722392375E-01 -0.33074995113E-01 -0.12393120110E-01  0.73734618217E-01  0.51100000000E-03 0. -1.
         11    1    4    4    0    0 -0.44786516402E-01 -0.28571979341E-01 -0.25551490933E-01  0.58951928423E-01  0.51100000000E-03 0.  1.
</event>
<event>
 8    1  0.1064884E+005  0.1043930E+01  0.7957747E-01            NaN
         13   -1    0    0    0    0  0.00000000000E+00  0.00000000000E+00  0.74505805969E-08  0.10566000000E+00  0.10566000000E+00 0. -1.
     999900   -1    0    0    0    0 -0.00000000000E+00 -0.00000000000E+00 -0.74505805969E-08  0.93827000000E+00  0.93827000000E+00 0. -1.
     999902    2    1    2    0    0  0.19805384087E-01 -0.12544210528E-01 -0.33950373302E-02  0.10202416751E+01  0.10199666362E+01 0.  0.
     999903    2    3    3    0    0  0.22019475485E-02 -0.24610364787E-01  0.12608158025E+00  0.13051156574E+00  0.22938728964E-01 0.  0.
         14    1    1    2    0    0 -0.19805384087E-01  0.12544210528E-01  0.33950373302E-02  0.23688324868E-01  0.00000000000E+00 0. -1.
     999901    1    3    3    0    0  0.17603436538E-01  0.12066154259E-01 -0.12947661758E+00  0.88973010939E+00  0.88000000000E+00 0. -1.
        -11    1    4    4    0    0  0.28541110232E-02 -0.27465876419E-01  0.86135696946E-01  0.90455180761E-01  0.51100000000E-03 0. -1.
         11    1    4    4    0    0 -0.65216347467E-03  0.28555116325E-02  0.39945883302E-01  0.40056384980E-01  0.51100000000E-03 0.  1.
</event>
<event>
 8    1  0.1064884E+005  0.1043930E+01  0.7957747E-01            NaN
         13   -1    0    0    0    0  0.00000000000E+00  0.00000000000E+00  0.74505805969E-08  0.10566000000E+00  0.10566000000E+00 0. -1.
     999900   -1    0    0    0    0 -0.00000000000E+00 -0.00000000000E+00 -0.74505805969E-08  0.93827000000E+00  0.93827000000E+00 0. -1.
     999902    2    1    2    0    0  0.11972239125E-01  0.58391287391E-02  0.19656363118E-01  0.10201854734E+01  0.10199091124E+01 0.  0.
     999903    2    3    3    0    0  0.12235335089E+00  0.32351369824E-01  0.34627972238E-01  0.13276728680E+00  0.20275659800E-01 0.  0.
         14    1    1    2    0    0 -0.11972239125E-01 -0.58391287391E-02 -0.19656363118E-01  0.23744526636E-01  0.00000000000E+00 0.  1.
     999901    1    3    3    0    0 -0.11038111176E+00 -0.26512241085E-01 -0.14971609120E-01  0.88741818656E+00  0.88000000000E+00 0.  1.
        -11    1    4    4    0    0  0.32326440315E-01  0.14704226060E-02  0.14603934350E-01  0.35506293887E-01  0.51100000000E-03 0.  1.
         11    1    4    4    0    0  0.90026910573E-01  0.30880947218E-01  0.20024037888E-01  0.97260992915E-01  0.51100000000E-03 0. -1.
</event>
<event>
 8    1  0.1064884E+005  0.1043930E+01  0.7957747E-01            NaN
         13   -1    0    0    0    0  0.00000000000E+00  0.00000000000E+00  0.74505805969E-08  0.10566000000E+00  0.10566000000E+00 0. -1.
     999900   -1    0    0    0    0 -0.00000000000E+00 -0.00000000000E+00 -0.74505805969E-08  0.93827000000E+00  0.93827000000E+00 0.  1.
     999902    2    1    2    0    0  0.13284748520E-01 -0.18436924419E-01  0.74015750229E-02  0.10200304595E+01  0.10197504352E+01 0.  0.
     999903    2    3    3    0    0 -0.15487910840E-01  0.44338794108E-03 -0.12670132212E+00  0.12920616750E+00  0.20023404242E-01 0.  0.
         14    1    1    2    0    0 -0.13284748520E-01  0.18436924419E-01 -0.74015750229E-02  0.23899540542E-01  0.00000000000E+00 0.  1.
     999901    1    3    3    0    0  0.28772659360E-01 -0.18880312360E-01  0.13410289714E+00  0.89082429196E+00  0.88000000000E+00 0. -1.
        -11    1    4    4    0    0 -0.18621128732E-01 -0.47348255497E-02 -0.93821305905E-01  0.95769846877E-01  0.51100000000E-03 0. -1.
         11    1    4    4    0    0  0.31332178920E-02  0.51782134908E-02 -0.32880016217E-01  0.33436320622E-01  0.51100000000E-03 0.  1.
</event>
<event>
 8    1  0.1064884E+005  0.1043930E+01  0.7957747E-01            NaN
         13   -1    0    0    0    0  0.00000000000E+00  0.00000000000E+00  0.74505805969E-08  0.10566000000E+00  0.10566000000E+00 0.  1.
     999900   -1    0    0    0    0 -0.00000000000E+00 -0.00000000000E+00 -0.74505805969E-08  0.93827000000E+00  0.93827000000E+00 0.  1.
     999902    2    1    2    0    0 -0.19278384822E-01  0.72720765095E-02  0.92947926790E-02  0.10213261864E+01  0.10210760239E+01 0.  0.
     999903    2    3    3    0    0 -0.83720993367E-01 -0.87345926000E-01 -0.48606324165E-01  0.13202423795E+00  0.20719776501E-01 0.  0.
         14    1    1    2    0    0  0.19278384822E-01 -0.72720765095E-02 -0.92947926790E-02  0.22603813595E-01  0.00000000000E+00 0. -1.
     999901    1    3    3    0    0  0.64442608545E-01  0.94618002509E-01  0.57901116844E-01  0.88930194846E+00  0.88000000000E+00 0.  1.
        -11    1    4    4    0    0 -0.52108341421E-01 -0.46194284547E-01 -0.18601768263E-01  0.72079664774E-01  0.51100000000E-03 0.  1.
         11    1    4    4    0    0 -0.31612651946E-01 -0.41151641453E-01 -0.30004555902E-01  0.59944573175E-01  0.51100000000E-03 0. -1.
</event>
<event>
 8    1  0.1064884E+005  0.1043930E+01  0.7957747E-01            NaN
         13   -1    0    0    0    0  0.00000000000E+00  0.00000000000E+00  0.74505805969E-08  0.10566000000E+00  0.10566000000E+00 0. -1.
     999900   -1    0    0    0    0 -0.00000000000E+00 -0.00000000000E+00 -0.74505805969E-08  0.93827000000E+00  0.93827000000E+00 0.  1.
     999902    2    1    2    0    0  0.66143501051E-02 -0.13672957310E-02 -0.22477312184E-01  0.10204598341E+01  0.10201898962E+01 0.  0.
     999903    2    3    3    0    0 -0.74525547448E-01  0.29789636320E-01  0.97864651328E-01  0.12802685309E+00  0.19284850999E-01 0.  0.
         14    1    1    2    0    0 -0.66143501051E-02  0.13672957310E-02  0.22477312184E-01  0.23470165913E-01  0.00000000000E+00 0. -1.
     999901    1    3    3    0    0  0.81139897553E-01 -0.31156932051E-01 -0.12034196351E+00  0.89243298100E+00  0.88000000000E+00 0.  1.
        -11    1    4    4    0    0 -0.60967374071E-01  0.30128258711E-01  0.73492740162E-01  0.10013079772E+00  0.51100000000E-03 0. -1.
         11    1    4    4    0    0 -0.13558173377E-01 -0.33862239095E-03  0.24371911166E-01  0.27896055373E-01  0.51100000000E-03 0.  1.
</event>
<event>
 8    1  0.1064884E+005  0.1043930E+01  0.7957747E-01            NaN
         13   -1    0    0    0    0  0.00000000000E+00  0.00000000000E+00  0.74505805969E-08  0.10566000000E+00  0.10566000000E+00 0.  1.
     999900   -1    0    0    0    0 -0.00000000000E+00 -0.00000000000E+00 -0.74505805969E-08  0.93827000000E+00  0.93827000000E+00 0. -1.
     999902    2    1    2    0    0 -0.14019608857E-02 -0.19977962783E-01  0.11696333776E-01  0.10207375720E+01  0.10204740576E+01 0.  0.
     999903    2    3    3    0    0  0.10463141511E+00  0.73038896969E-01 -0.64949817509E-02  0.12931952365E+00  0.19973505233E-01 0.  0.
         14    1    1    2    0    0  0.14019608857E-02  0.19977962783E-01 -0.11696333776E-01  0.23192427968E-01  0.00000000000E+00 0.  1.
     999901    1    3    3    0    0 -0.10603337599E+00 -0.93016859752E-01  0.18191315527E-01  0.89141804838E+00  0.88000000000E+00 0. -1.
        -11    1    4    4    0    0  0.68375162625E-01  0.41942226958E-01 -0.12470093184E-01  0.81179292995E-01  0.51100000000E-03 0.  1.
         11    1    4    4    0    0  0.36256252480E-01  0.31096670012E-01  0.59751114328E-02  0.48140230653E-01  0.51100000000E-03 0. -1.
</event>
<event>
 8    1  0.1064884E+005  0.1043930E+01  0.7957747E-01            NaN
         13   -1    0    0    0    0  0.00000000000E+00  0.00000000000E+00  0.74505805969E-08  0.10566000000E+00  0.10566000000E+00 0.  1.
     999900   -1    0    0    0    0 -0.00000000000E+00 -0.00000000000E+00 -0.74505805969E-08  0.93827000000E+00  0.93827000000E+00 0. -1.
     999902    2    1    2    0    0 -0.22602404950E-01  0.96519066409E-03  0.39374380949E-02  0.10209669052E+01  0.10207086351E+01 0.  0.
     999903    2    3    3    0    0  0.63846560120E-01  0.57728944591E-01  0.95617984872E-01  0.13018024728E+00  0.19876706702E-01 0.  0.
         14    1    1    2    0    0  0.22602404950E-01 -0.96519066409E-03 -0.39374380949E-02  0.22963094767E-01  0.00000000000E+00 0. -1.
     999901    1    3    3    0    0 -0.86448965070E-01 -0.56763753927E-01 -0.91680546777E-01  0.89078665795E+00  0.88000000000E+00 0. -1.
        -11    1    4    4    0    0  0.17302004503E-01  0.50693736125E-02  0.18388385677E-01  0.25757557289E-01  0.51100000000E-03 0.  1.
         11    1    4    4    0    0  0.46544555616E-01  0.52659570979E-01  0.77229599195E-01  0.10442269000E+00  0.51100000000E-03 0. -1.
</event>
<event>
 8    1  0.1064884E+005  0.1043930E+01  0.7957747E-01            NaN
         13   -1    0    0    0    0  0.00000000000E+00  0.00000000000E+00  0.74505805969E-08  0.10566000000E+00  0.10566000000E+00 0. -1.
     999900   -1    0    0    0    0 -0.00000000000E+00 -0.00000000000E+00 -0.74505805969E-08  0.93827000000E+00  0.93827000000E+00 0. -1.
     999902    2    1    2    0    0 -0.20298758363E-01  0.50862862332E-02 -0.10242239296E-01  0.10206316446E+01  0.10203656896E+01 0.  0.
     999903    2    3    3    0    0  0.12113025023E+00  0.64329841680E-02 -0.33924314466E-01  0.12902364847E+00  0.27970018694E-01 0.  0.
         14    1    1    2    0    0  0.20298758363E-01 -0.50862862332E-02  0.10242239296E-01  0.23298355404E-01  0.00000000000E+00 0. -1.
     999901    1    3    3    0    0 -0.14142900860E+00 -0.13466979348E-02  0.23682075171E-01  0.89160799612E+00  0.88000000000E+00 0. -1.
        -11    1    4    4    0    0  0.20924964894E-01  0.11820336394E-01 -0.45871884114E-02  0.24471982486E-01  0.51100000000E-03 0. -1.
         11    1    4    4    0    0  0.10020528534E+00 -0.53873522258E-02 -0.29337126055E-01  0.10455166599E+00  0.51100000000E-03 0.  1.
</event>
<event>
 8    1  0.1064884E+005  0.1043930E+01  0.7957747E-01            NaN
         13   -1    0    0    0    0  0.00000000000E+00  0.00000000000E+00  0.74505805969E-08  0.10566000000E+00  0.10566000000E+00 0. -1.
     999900   -1    0    0    0    0 -0.00000000000E+00 -0.00000000000E+00 -0.74505805969E-08  0.93827000000E+00  0.93827000000E+00 0.  1.
     999902    2    1    2    0    0 -0.10973724128E-01  0.19393252447E-01  0.62116850638E-02  0.10207976440E+01  0.10205355085E+01 0.  0.
     999903    2    3    3    0    0  0.10865182743E+00 -0.64749755853E-01  0.12952244016E-01  0.12870137480E+00  0.19963285388E-01 0.  0.
         14    1    1    2    0    0  0.10973724128E-01 -0.19393252447E-01 -0.62116850638E-02  0.23132355977E-01  0.00000000000E+00 0.  1.
     999901    1    3    3    0    0 -0.11962555156E+00  0.84143008300E-01 -0.67405589517E-02  0.89209626923E+00  0.88000000000E+00 0. -1.
        -11    1    4    4    0    0  0.53234175514E-01 -0.25016980000E-01  0.14149033675E-01  0.60499446328E-01  0.51100000000E-03 0.  1.
         11    1    4    4    0    0  0.55417651913E-01 -0.39732775854E-01 -0.11967896595E-02  0.68201928470E-01  0.51100000000E-03 0. -1.
</event>
<event>
 8    1  0.1064884E+005  0.1043930E+01  0.7957747E-01            NaN
         13   -1    0    0    0    0  0.00000000000E+00  0.00000000000E+00  0.74505805969E-08  0.10566000000E+00  0.10566000000E+00 0.  1.
     999900   -1    0    0    0    0 -0.00000000000E+00 -0.00000000000E+00 -0.74505805969E-08  0.93827000000E+00  0.93827000000E+00 0.  1.
     999902    2    1    2    0    0 -0.10458356179E-01  0.80447512790E-02 -0.19606929154E-01  0.10202968261E+01  0.10200230813E+01 0.  0.
     999903    2    3    3    0    0  0.20653319152E-01 -0.11955770791E+00 -0.42984142276E-01  0.13024243563E+00  0.19870843944E-01 0.  0.
         14    1    1    2    0    0  0.10458356179E-01 -0.80447512790E-02  0.19606929154E-01  0.23633173887E-01  0.00000000000E+00 0.  1.
     999901    1    3    3    0    0 -0.31111675332E-01  0.12760245918E+00  0.23377213122E-01  0.89005439049E+00  0.88000000000E+00 0.  1.
        -11    1    4    4    0    0  0.15400641788E-02 -0.60594327453E-03 -0.26991177500E-02  0.32070738306E-02  0.51100000000E-03 0.  1.
         11    1    4    4    0    0  0.19113254973E-01 -0.11895176463E+00 -0.40285024526E-01  0.12703536180E+00  0.51100000000E-03 0. -1.
</event>
<event>
 8    1  0.1064884E+005  0.1043930E+01  0.7957747E-01            NaN
         13   -1    0    0    0    0  0.00000000000E+00  0.00000000000E+00  0.74505805969E-08  0.10566000000E+00  0.10566000000E+00 0. -1.
     999900   -1    0    0    0    0 -0.00000000000E+00 -0.00000000000E+00 -0.74505805969E-08  0.93827000000E+00  0.93827000000E+00 0.  1.
     999902    2    1    2    0    0 -0.17601160689E-01 -0.77988241149E-02  0.12929381793E-01  0.10207396695E+01  0.10204762033E+01 0.  0.
     999903    2    3    3    0    0  0.40139330285E-01 -0.58214524605E-01 -0.10663974990E+00  0.12935171557E+00  0.18966637858E-01 0.  0.
         14    1    1    2    0    0  0.17601160689E-01  0.77988241149E-02 -0.12929381793E-01  0.23190330501E-01  0.00000000000E+00 0.  1.
     999901    1    3    3    0    0 -0.57740490975E-01  0.50415700490E-01  0.11956913169E+00  0.89138795393E+00  0.88000000000E+00 0. -1.
        -11    1    4    4    0    0  0.17479965408E-01 -0.29623243282E-01 -0.35683134165E-01  0.49564431985E-01  0.51100000000E-03 0.  1.
         11    1    4    4    0    0  0.22659364878E-01 -0.28591281323E-01 -0.70956615736E-01  0.79787283586E-01  0.51100000000E-03 0. -1.
</event>
<event>
 8    1  0.1064884E+005  0.1043930E+01  0.7957747E-01            NaN
         13   -1    0    0    0    0  0.00000000000E+00  0.00000000000E+00  0.74505805969E-08  0.10566000000E+00  0.10566000000E+00 0.  1.
     999900   -1    0    0    0    0 -0.00000000000E+00 -0.00000000000E+00 -0.74505805969E-08  0.93827000000E+00  0.93827000000E+00 0. -1.
     999902    2    1    2    0    0  0.75033157294E-02  0.11897583748E-01  0.18766186927E-01  0.10204774518E+01  0.10202079237E+01 0.  0.
     999903    2    3    3    0    0 -0.10175174816E+00  0.79516744985E-01  0.70002983066E-02  0.13106896516E+00  0.21301137619E-01 0.  0.
         14    1    1    2    0    0 -0.75033157294E-02 -0.11897583748E-01 -0.18766186927E-01  0.23452548214E-01  0.00000000000E+00 0. -1.
     999901    1    3    3    0    0  0.10925506389E+00 -0.67619161237E-01  0.11765888620E-01  0.88940848663E+00  0.88000000000E+00 0. -1.
        -11    1    4    4    0    0 -0.33724333549E-01  0.16549123767E-01  0.77854770103E-02  0.38367680983E-01  0.51100000000E-03 0.  1.
         11    1    4    4    0    0 -0.68027414613E-01  0.62967621218E-01 -0.78517870370E-03  0.92701284173E-01  0.51100000000E-03 0. -1.
</event>
<event>
 8    1  0.1064884E+005  0.1043930E+01  0.7957747E-01            NaN
         13   -1    0    0    0    0  0.00000000000E+00  0.00000000000E+00  0.74505805969E-08  0.10566000000E+00  0.10566000000E+00 0. -1.
     999900   -1    0    0    0    0 -0.00000000000E+00 -0.00000000000E+00 -0.74505805969E-08  0.93827000000E+00  0.93827000000E+00 0. -1.
     999902    2    1    2    0    0  0.45127592853E-02  0.94283510645E-02 -0.21376889804E-01  0.10201344076E+01  0.10198568426E+01 0.  0.
     999903    2    3    3    0    0  0.48490088431E-01  0.98519760354E-01  0.67220085966E-01  0.13012277351E+00  0.18867018131E-01 0.  0.
         14    1    1    2    0    0 -0.45127592853E-02 -0.94283510645E-02  0.21376889804E-01  0.23795592404E-01  0.00000000000E+00 0. -1.
     999901    1    3    3    0    0 -0.43977329146E-01 -0.89091409290E-01 -0.88596975770E-01  0.89001163408E+00  0.88000000000E+00 0. -1.
        -11    1    4    4    0    0  0.17258684372E-01  0.17810326073E-01  0.16870392694E-01  0.29999019513E-01  0.51100000000E-03 0.  1.
         11    1    4    4    0    0  0.31231404059E-01  0.80709434281E-01  0.50349693271E-01  0.10012375400E+00  0.51100000000E-03 0. -1.
</event>
<event>
 8    1  0.1064884E+005  0.1043930E+01  0.7957747E-01            NaN
         13   -1    0    0    0    0  0.00000000000E+00  0.00000000000E+00  0.74505805969E-08  0.10566000000E+00  0.10566000000E+00 0.  1.
     999900   -1    0    0    0    0 -0.00000000000E+00 -0.00000000000E+00 -0.74505805969E-08  0.93827000000E+00  0.93827000000E+00 0. -1.
     999902    2    1    2    0    0  0.17330293191E-02 -0.24488833636E-01  0.69102637605E-02  0.10184259198E+01  0.10181065248E+01 0.  0.
     999903    2    3    3    0    0  0.10303183616E+00 -0.75123879263E-01  0.23367261321E-01  0.13101609962E+00  0.18974534538E-01 0.  0.
         14    1    1    2    0    0 -0.17330293191E-02  0.24488833636E-01 -0.69102637605E-02  0.25504080236E-01  0.00000000000E+00 0. -1.
     999901    1    3    3    0    0 -0.10129880684E+00  0.50635045627E-01 -0.16456997560E-01  0.88740982014E+00  0.88000000000E+00 0. -1.
        -11    1    4    4    0    0  0.65340666933E-01 -0.43870430629E-01  0.23192645924E-01  0.82049846952E-01  0.51100000000E-03 0.  1.
         11    1    4    4    0    0  0.37691169227E-01 -0.31253448634E-01  0.17461539714E-03  0.48966252672E-01  0.51100000000E-03 0. -1.
</event>
<event>
 8    1  0.1064884E+005  0.1043930E+01  0.7957747E-01            NaN
         13   -1    0    0    0    0  0.00000000000E+00  0.00000000000E+00  0.74505805969E-08  0.10566000000E+00  0.10566000000E+00 0. -1.
     999900   -1    0    0    0    0 -0.00000000000E+00 -0.00000000000E+00 -0.74505805969E-08  0.93827000000E+00  0.93827000000E+00 0.  1.
     999902    2    1    2    0    0 -0.22171134159E-01  0.56776144816E-03  0.83830436524E-02  0.10202201505E+01  0.10199446056E+01 0.  0.
     999903    2    3    3    0    0  0.16107550390E-01  0.78398121292E-01 -0.99693591661E-01  0.12937595440E+00  0.19839525121E-01 0.  0.
         14    1    1    2    0    0  0.22171134159E-01 -0.56776144816E-03 -0.83830436524E-02  0.23709849511E-01  0.00000000000E+00 0. -1.
     999901    1    3    3    0    0 -0.38278684549E-01 -0.77830359843E-01  0.10807663531E+00  0.89084419609E+00  0.88000000000E+00 0.  1.
        -11    1    4    4    0    0  0.69861786553E-02  0.23993951433E-01 -0.46225894538E-01  0.52551030859E-01  0.51100000000E-03 0.  1.
         11    1    4    4    0    0  0.91213717347E-02  0.54404169859E-01 -0.53467697123E-01  0.76824923541E-01  0.51100000000E-03 0. -1.
</event>
<event>
 8    1  0.1064884E+005  0.1043930E+01  0.7957747E-01            NaN
         13   -1    0    0    0    0  0.00000000000E+00  0.00000000000E+00  0.74505805969E-08  0.10566000000E+00  0.10566000000E+00 0.  1.
     999900   -1    0    0    0    0 -0.00000000000E+00 -0.00000000000E+00 -0.74505805969E-08  0.93827000000E+00  0.93827000000E+00 0. -1.
     999902    2    1    2    0    0  0.68021647983E-02  0.54183753144E-02  0.27699776341E-01  0.10148971592E+01  0.10144818076E+01 0.  0.
     999903    2    3    3    0    0 -0.91938273476E-01  0.82958723814E-01  0.47785461322E-02  0.12569101739E+00  0.20990506488E-01 0.  0.
         14    1    1    2    0    0 -0.68021647983E-02 -0.54183753144E-02 -0.27699776341E-01  0.29032840824E-01  0.00000000000E+00 0. -1.
     999901    1    3    3    0    0  0.98740438275E-01 -0.77540348499E-01  0.22921230209E-01  0.88920614179E+00  0.88000000000E+00 0.  1.
        -11    1    4    4    0    0 -0.53912633538E-01  0.34752417527E-01  0.59102189367E-03  0.64147587693E-01  0.51100000000E-03 0.  1.
         11    1    4    4    0    0 -0.38025639939E-01  0.48206306287E-01  0.41875242385E-02  0.61543429697E-01  0.51100000000E-03 0. -1.
</event>
<event>
 8    1  0.1064884E+005  0.1043930E+01  0.7957747E-01            NaN
         13   -1    0    0    0    0  0.00000000000E+00  0.00000000000E+00  0.74505805969E-08  0.10566000000E+00  0.10566000000E+00 0. -1.
     999900   -1    0    0    0    0 -0.00000000000E+00 -0.00000000000E+00 -0.74505805969E-08  0.93827000000E+00  0.93827000000E+00 0. -1.
     999902    2    1    2    0    0  0.25098988421E-02  0.69832949706E-02 -0.22175232776E-01  0.10205460964E+01  0.10202781620E+01 0.  0.
     999903    2    3    3    0    0 -0.49583827985E-01 -0.60450529991E-01  0.99812632441E-01  0.12805401439E+00  0.17956793466E-01 0.  0.
         14    1    1    2    0    0 -0.25098988421E-02 -0.69832949706E-02  0.22175232776E-01  0.23383903642E-01  0.00000000000E+00 0.  1.
     999901    1    3    3    0    0  0.52093726828E-01  0.67433824962E-01 -0.12198786522E+00  0.89249208197E+00  0.88000000000E+00 0. -1.
        -11    1    4    4    0    0 -0.17681515584E-01 -0.22425353935E-01  0.23348539597E-01  0.36891027565E-01  0.51100000000E-03 0. -1.
         11    1    4    4    0    0 -0.31902312401E-01 -0.38025176056E-01  0.76464092844E-01  0.91162986821E-01  0.51100000000E-03 0.  1.
</event>
<event>
 8    1  0.1064884E+005  0.1043930E+01  0.7957747E-01            NaN
         13   -1    0    0    0    0  0.00000000000E+00  0.00000000000E+00  0.74505805969E-08  0.10566000000E+00  0.10566000000E+00 0. -1.
     999900   -1    0    0    0    0 -0.00000000000E+00 -0.00000000000E+00 -0.74505805969E-08  0.93827000000E+00  0.93827000000E+00 0. -1.
     999902    2    1    2    0    0  0.17152738204E-01 -0.26803685714E-02  0.17044758955E-01  0.10196004992E+01  0.10193101850E+01 0.  0.
     999903    2    3    3    0    0  0.52565046340E-01  0.10263705211E+00 -0.56059603598E-01  0.12960609552E+00  0.18910639288E-01 0.  0.
         14    1    1    2    0    0 -0.17152738204E-01  0.26803685714E-02 -0.17044758955E-01  0.24329500846E-01  0.00000000000E+00 0.  1.
     999901    1    3    3    0    0 -0.35412308135E-01 -0.10531742069E+00  0.73104362553E-01  0.88999440363E+00  0.88000000000E+00 0.  1.
        -11    1    4    4    0    0  0.29596302905E-01  0.54584710343E-01 -0.40436444466E-01  0.74099925175E-01  0.51100000000E-03 0. -1.
         11    1    4    4    0    0  0.22968743435E-01  0.48052341771E-01 -0.15623159132E-01  0.55506170350E-01  0.51100000000E-03 0.  1.
</event>
<event>
 8    1  0.1064884E+005  0.1043930E+01  0.7957747E-01            NaN
         13   -1    0    0    0    0  0.00000000000E+00  0.00000000000E+00  0.74505805969E-08  0.10566000000E+00  0.10566000000E+00 0. -1.
     999900   -1    0    0    0    0 -0.00000000000E+00 -0.00000000000E+00 -0.74505805969E-08  0.93827000000E+00  0.93827000000E+00 0.  1.
     999902    2    1    2    0    0 -0.15870365660E-01  0.93368621815E-03 -0.17947388732E-01  0.10199539904E+01  0.10196721500E+01 0.  0.
     999903    2    3    3    0    0  0.11247557089E+00 -0.45611097502E-01  0.35128401582E-01  0.12784629740E+00  0.19481912057E-01 0.  0.
         14    1    1    2    0    0  0.15870365660E-01 -0.93368621815E-03  0.17947388732E-01  0.23976009644E-01  0.00000000000E+00 0. -1.
     999901    1    3    3    0    0 -0.12834593655E+00  0.46544783720E-01 -0.53075790315E-01  0.89210769296E+00  0.88000000000E+00 0. -1.
        -11    1    4    4    0    0  0.68331146778E-01 -0.33963546673E-01  0.14190754342E-01  0.77616407753E-01  0.51100000000E-03 0.  1.
         11    1    4    4    0    0  0.44144424114E-01 -0.11647550828E-01  0.20937647240E-01  0.50229889643E-01  0.51100000000E-03 0. -1.
</event>
<event>
 8    1  0.1064884E+005  0.1043930E+01  0.7957747E-01            NaN
         13   -1    0    0    0    0  0.00000000000E+00  0.00000000000E+00  0.74505805969E-08  0.10566000000E+00  0.10566000000E+00 0. -1.
     999900   -1    0    0    0    0 -0.00000000000E+00 -0.00000000000E+00 -0.74505805969E-08  0.93827000000E+00  0.93827000000E+00 0. -1.
     999902    2    1    2    0    0  0.11338177058E-01  0.20461168873E-01  0.41597502291E-02  0.10201704290E+01  0.10198937136E+01 0.  0.
     999903    2    3    3    0    0 -0.35743118919E-01  0.11738596609E+00  0.46034962076E-01  0.13260938994E+00  0.20223673776E-01 0.  0.
         14    1    1    2    0    0 -0.11338177058E-01 -0.20461168873E-01 -0.41597502291E-02  0.23759570968E-01  0.00000000000E+00 0. -1.
     999901    1    3    3    0    0  0.47081295977E-01 -0.96924797221E-01 -0.41875211847E-01  0.88756103909E+00  0.88000000000E+00 0. -1.
        -11    1    4    4    0    0 -0.13076212480E-01  0.41777650091E-01  0.62752240018E-02  0.44226676760E-01  0.51100000000E-03 0.  1.
         11    1    4    4    0    0 -0.22666906439E-01  0.75608316003E-01  0.39759738074E-01  0.88382713180E-01  0.51100000000E-03 0. -1.
</event>
<event>
 8    1  0.1064884E+005  0.1043930E+01  0.7957747E-01            NaN
         13   -1    0    0    0    0  0.00000000000E+00  0.00000000000E+00  0.74505805969E-08  0.10566000000E+00  0.10566000000E+00 0. -1.
     999900   -1    0    0    0    0 -0.00000000000E+00 -0.00000000000E+00 -0.74505805969E-08  0.93827000000E+00  0.93827000000E+00 0.  1.
     999902    2    1    2    0    0  0.20421122313E-01  0.71020507945E-02 -0.10370046174E-01  0.10199508587E+01  0.10196689438E+01 0.  0.
     999903    2    3    3    0    0 -0.88690476352E-01  0.60498636886E-01 -0.69476312392E-01  0.12964187461E+00  0.21306618860E-01 0.  0.
         14    1    1    2    0    0 -0.20421122313E-01 -0.71020507945E-02  0.10370046174E-01  0.23979141346E-01  0.00000000000E+00 0. -1.
     999901    1    3    3    0    0  0.10911159867E+00 -0.53396586092E-01  0.59106266218E-01  0.89030898405E+00  0.88000000000E+00 0. -1.
        -11    1    4    4    0    0 -0.97339587321E-02  0.16152182465E-01 -0.10869357568E-01  0.21772620557E-01  0.51100000000E-03 0.  1.
         11    1    4    4    0    0 -0.78956517620E-01  0.44346454421E-01 -0.58606954824E-01  0.10786925405E+00  0.51100000000E-03 0. -1.
</event>
<event>
 8    1  0.1064884E+005  0.1043930E+01  0.7957747E-01            NaN
         13   -1    0    0    0    0  0.00000000000E+00  0.00000000000E+00  0.74505805969E-08  0.10566000000E+00  0.10566000000E+00 0.  1.
     999900   -1    0    0    0    0 -0.00000000000E+00 -0.00000000000E+00 -0.74505805969E-08  0.93827000000E+00  0.93827000000E+00 0. -1.
     999902    2    1    2    0    0 -0.53624335890E-02 -0.88208481577E-02 -0.20982641894E-01  0.10205455112E+01  0.10202775633E+01 0.  0.
     999903    2    3    3    0    0 -0.38804462256E-01  0.11779827796E+00 -0.35838714975E-01  0.13073009477E+00  0.20584547742E-01 0.  0.
         14    1    1    2    0    0  0.53624335890E-02  0.88208481577E-02  0.20982641894E-01  0.23384488813E-01  0.00000000000E+00 0.  1.
     999901    1    3    3    0    0  0.33442028667E-01 -0.12661912612E+00  0.14856073081E-01  0.88981541641E+00  0.88000000000E+00 0.  1.
        -11    1    4    4    0    0 -0.53341284997E-02  0.23034898420E-01 -0.15251774453E-01  0.28141379089E-01  0.51100000000E-03 0.  1.
         11    1    4    4    0    0 -0.33470333757E-01  0.94763379544E-01 -0.20586940522E-01  0.10258871568E+00  0.51100000000E-03 0. -1.
</event>
<event>
 8    1  0.1064884E+005  0.1043930E+01  0.7957747E-01            NaN
         13   -1    0    0    0    0  0.00000000000E+00  0.00000000000E+00  0.74505805969E-08  0.10566000000E+00  0.10566000000E+00 0.  1.
     999900   -1    0    0    0    0 -0.00000000000E+00 -0.00000000000E+00 -0.74505805969E-08  0.93827000000E+00  0.93827000000E+00 0.  1.
     999902    2    1    2    0    0  0.16057827257E-01 -0.35370001924E-02 -0.16702401010E-01  0.10204921164E+01  0.10202229292E+01 0.  0.
     999903    2    3    3    0    0 -0.56195253836E-01  0.27235598294E-01 -0.11412612119E+00  0.13163957422E+00  0.20112722230E-01 0.  0.
         14    1    1    2    0    0 -0.16057827257E-01  0.35370001924E-02  0.16702401010E-01  0.23437883566E-01  0.00000000000E+00 0.  1.
     999901    1    3    3    0    0  0.72253081093E-01 -0.30772598486E-01  0.97423720177E-01  0.88885254221E+00  0.88000000000E+00 0. -1.
        -11    1    4    4    0    0 -0.34651485811E-01  0.76931312673E-02 -0.51064842500E-01  0.62191550858E-01  0.51100000000E-03 0.  1.
         11    1    4    4    0    0 -0.21543768025E-01  0.19542467027E-01 -0.63061278688E-01  0.69448023362E-01  0.51100000000E-03 0. -1.
</event>
<event>
 8    1  0.1064884E+005  0.1043930E+01  0.7957747E-01            NaN
         13   -1    0    0    0    0  0.00000000000E+00  0.00000000000E+00  0.74505805969E-08  0.10566000000E+00  0.10566000000E+00 0. -1.
     999900   -1    0    0    0    0 -0.00000000000E+00 -0.00000000000E+00 -0.74505805969E-08  0.93827000000E+00  0.93827000000E+00 0. -1.
     999902    2    1    2    0    0  0.15183327077E-01 -0.45252167377E-02  0.18473761808E-01  0.10195929730E+01  0.10193024770E+01 0.  0.
     999903    2    3    3    0    0  0.11107434999E+00  0.15239714440E-01 -0.63488543466E-01  0.13037783578E+00  0.19945545609E-01 0.  0.
         14    1    1    2    0    0 -0.15183327077E-01  0.45252167377E-02 -0.18473761808E-01  0.24337026996E-01  0.00000000000E+00 0.  1.
     999901    1    3    3    0    0 -0.95891022913E-01 -0.19764931178E-01  0.81962305274E-01  0.88921513722E+00  0.88000000000E+00 0. -1.
        -11    1    4    4    0    0  0.58874106171E-01  0.18091770121E-01 -0.34664195362E-01  0.70677719860E-01  0.51100000000E-03 0. -1.
         11    1    4    4    0    0  0.52200243819E-01 -0.28520556806E-02 -0.28824348105E-01  0.59700115922E-01  0.51100000000E-03 0.  1.
</event>
<event>
 8    1  0.1064884E+005  0.1043930E+01  0.7957747E-01            NaN
         13   -1    0    0    0    0  0.00000000000E+00  0.00000000000E+00  0.74505805969E-08  0.10566000000E+00  0.10566000000E+00 0. -1.
     999900   -1    0    0    0    0 -0.00000000000E+00 -0.00000000000E+00 -0.74505805969E-08  0.93827000000E+00  0.93827000000E+00 0. -1.
     999902    2    1    2    0    0 -0.21247806812E-01 -0.12016747598E-01 -0.41221560999E-02  0.10191739161E+01  0.10188732049E+01 0.  0.
     999903    2    3    3    0    0 -0.69744463081E-01  0.54205448323E-01  0.93152674408E-01  0.13001718218E+00  0.20604032454E-01 0.  0.
         14    1    1    2    0    0  0.21247806812E-01  0.12016747598E-01  0.41221560999E-02  0.24756083860E-01  0.00000000000E+00 0.  1.
     999901    1    3    3    0    0  0.48496656268E-01 -0.66222195921E-01 -0.97274830508E-01  0.88915673396E+00  0.88000000000E+00 0. -1.
        -11    1    4    4    0    0 -0.71388035186E-02  0.16604389859E-02  0.16059315116E-01  0.17660189588E-01  0.51100000000E-03 0.  1.
         11    1    4    4    0    0 -0.62605659562E-01  0.52545009337E-01  0.77093359292E-01  0.11235699259E+00  0.51100000000E-03 0. -1.
</event>
<event>
 8    1  0.1064884E+005  0.1043930E+01  0.7957747E-01            NaN
         13   -1    0    0    0    0  0.00000000000E+00  0.00000000000E+00  0.74505805969E-08  0.10566000000E+00  0.10566000000E+00 0.  1.
     999900   -1    0    0    0    0 -0.00000000000E+00 -0.00000000000E+00 -0.74505805969E-08  0.93827000000E+00  0.93827000000E+00 0. -1.
     999902    2    1    2    0    0  0.10029289691E-01  0.64251127839E-02 -0.20329040281E-01  0.10203686205E+01  0.10200965558E+01 0.  0.
     999903    2    3    3    0    0  0.32905996316E-01  0.10827569436E+00 -0.66143480620E-01  0.13301533818E+00  0.22620556566E-01 0.  0.
         14    1    1    2    0    0 -0.10029289691E-01 -0.64251127839E-02  0.20329040281E-01  0.23561379517E-01  0.00000000000E+00 0.  1.
     999901    1    3    3    0    0 -0.22876706625E-01 -0.10185058158E+00  0.45814440338E-01  0.88735328230E+00  0.88000000000E+00 0.  1.
        -11    1    4    4    0    0  0.12568502547E-01  0.65858636014E-01 -0.48586948304E-01  0.82802656120E-01  0.51100000000E-03 0. -1.
         11    1    4    4    0    0  0.20337493770E-01  0.42417058346E-01 -0.17556532315E-01  0.50212682058E-01  0.51100000000E-03 0.  1.
</event>
<event>
 8    1  0.1064884E+005  0.1043930E+01  0.7957747E-01            NaN
         13   -1    0    0    0    0  0.00000000000E+00  0.00000000000E+00  0.74505805969E-08  0.10566000000E+00  0.10566000000E+00 0.  1.
     999900   -1    0    0    0    0 -0.00000000000E+00 -0.00000000000E+00 -0.74505805969E-08  0.93827000000E+00  0.93827000000E+00 0.  1.
     999902    2    1    2    0    0  0.30692010645E-02  0.22576948578E-01 -0.66524496426E-03  0.10211356772E+01  0.10208812321E+01 0.  0.
     999903    2    3    3    0    0 -0.38051978445E-01 -0.92952652868E-01 -0.79039507472E-01  0.12918244676E+00  0.18780630228E-01 0.  0.
         14    1    1    2    0    0 -0.30692010645E-02 -0.22576948578E-01  0.66524496426E-03  0.22794322827E-01  0.00000000000E+00 0. -1.
     999901    1    3    3    0    0  0.41121179509E-01  0.11552960145E+00  0.78374262507E-01  0.89195323041E+00  0.88000000000E+00 0.  1.
        -11    1    4    4    0    0 -0.15763899336E-01 -0.60639337020E-01 -0.44013503127E-01  0.76570746993E-01  0.51100000000E-03 0. -1.
         11    1    4    4    0    0 -0.22288079108E-01 -0.32313315847E-01 -0.35026004345E-01  0.52611699770E-01  0.51100000000E-03 0.  1.
</event>
<event>
 8    1  0.1064884E+005  0.1043930E+01  0.7957747E-01            NaN
         13   -1    0    0    0    0  0.00000000000E+00  0.00000000000E+00  0.74505805969E-08  0.10566000000E+00  0.10566000000E+00 0. -1.
     999900   -1    0    0    0    0 -0.00000000000E+00 -0.00000000000E+00 -0.74505805969E-08  0.93827000000E+00  0.93827000000E+00 0. -1.
     999902    2    1    2    0    0 -0.23314550415E-01 -0.34823044743E-02 -0.54376663509E-02  0.10197377921E+01  0.10194507844E+01 0.  0.
     999903    2    3    3    0    0  0.96075885700E-01  0.62602016386E-01 -0.53178260724E-01  0.12794163940E+00  0.19787556959E-01 0.  0.
         14    1    1    2    0    0  0.23314550415E-01  0.34823044743E-02  0.54376663509E-02  0.24192207853E-01  0.00000000000E+00 0. -1.
     999901    1    3    3    0    0 -0.11939043611E+00 -0.66084320861E-01  0.47740594373E-01  0.89179615274E+00  0.88000000000E+00 0. -1.
        -11    1    4    4    0    0  0.46016458887E-01  0.18326557786E-01 -0.22726312777E-01  0.54498840559E-01  0.51100000000E-03 0.  1.
         11    1    4    4    0    0  0.50059426813E-01  0.44275458600E-01 -0.30451947947E-01  0.73442798843E-01  0.51100000000E-03 0. -1.
</event>
<event>
 8    1  0.1064884E+005  0.1043930E+01  0.7957747E-01            NaN
         13   -1    0    0    0    0  0.00000000000E+00  0.00000000000E+00  0.74505805969E-08  0.10566000000E+00  0.10566000000E+00 0.  1.
     999900   -1    0    0    0    0 -0.00000000000E+00 -0.00000000000E+00 -0.74505805969E-08  0.93827000000E+00  0.93827000000E+00 0.  1.
     999902    2    1    2    0    0 -0.14535970931E-01  0.18148287014E-01 -0.40607589026E-02  0.10203260907E+01  0.10200530314E+01 0.  0.
     999903    2    3    3    0    0  0.47706646114E-01 -0.11680520536E+00 -0.61077378925E-02  0.12786277008E+00  0.19804126557E-01 0.  0.
         14    1    1    2    0    0  0.14535970931E-01 -0.18148287014E-01  0.40607589026E-02  0.23603909323E-01  0.00000000000E+00 0. -1.
     999901    1    3    3    0    0 -0.62242617045E-01  0.13495349237E+00  0.20469789899E-02  0.89246332059E+00  0.88000000000E+00 0. -1.
        -11    1    4    4    0    0  0.22128333064E-01 -0.33469285405E-01 -0.67262598891E-02  0.40686114128E-01  0.51100000000E-03 0. -1.
         11    1    4    4    0    0  0.25578313050E-01 -0.83335919955E-01  0.61852199657E-03  0.87176655956E-01  0.51100000000E-03 0.  1.
</event>
<event>
 8    1  0.1064884E+005  0.1043930E+01  0.7957747E-01            NaN
         13   -1    0    0    0    0  0.00000000000E+00  0.00000000000E+00  0.74505805969E-08  0.10566000000E+00  0.10566000000E+00 0.  1.
     999900   -1    0    0    0    0 -0.00000000000E+00 -0.00000000000E+00 -0.74505805969E-08  0.93827000000E+00  0.93827000000E+00 0.  1.
     999902    2    1    2    0    0  0.18673357947E-02 -0.43676816628E-02 -0.23235767244E-01  0.10202136667E+01  0.10199379693E+01 0.  0.
     999903    2    3    3    0    0  0.10562946508E+00  0.15294029737E-01 -0.75738454503E-01  0.13234560525E+00  0.19686403927E-01 0.  0.
         14    1    1    2    0    0 -0.18673357947E-02  0.43676816628E-02  0.23235767244E-01  0.23716333307E-01  0.00000000000E+00 0.  1.
     999901    1    3    3    0    0 -0.10376212928E+00 -0.19661711399E-01  0.52502687259E-01  0.88786806145E+00  0.88000000000E+00 0. -1.
        -11    1    4    4    0    0  0.69273455890E-01  0.11943330832E-01 -0.38318110498E-01  0.80062435358E-01  0.51100000000E-03 0.  1.
         11    1    4    4    0    0  0.36356009187E-01  0.33506989044E-02 -0.37420344005E-01  0.52283169889E-01  0.51100000000E-03 0. -1.
</event>
<event>
 8    1  0.1064884E+005  0.1043930E+01  0.7957747E-01            NaN
         13   -1    0    0    0    0  0.00000000000E+00  0.00000000000E+00  0.74505805969E-08  0.10566000000E+00  0.10566000000E+00 0. -1.
     999900   -1    0    0    0    0 -0.00000000000E+00 -0.00000000000E+00 -0.74505805969E-08  0.93827000000E+00  0.93827000000E+00 0.  1.
     999902    2    1    2    0    0  0.17786075469E-01 -0.13025093843E-01  0.74684387453E-02  0.10206539366E+01  0.10203884962E+01 0.  0.
     999903    2    3    3    0    0 -0.17128540119E-01  0.18073569691E-01 -0.12544016254E+00  0.12944641107E+00  0.20027435011E-01 0.  0.
         14    1    1    2    0    0 -0.17786075469E-01  0.13025093843E-01 -0.74684387453E-02  0.23276063403E-01  0.00000000000E+00 0.  1.
     999901    1    3    3    0    0  0.34914615588E-01 -0.31098663534E-01  0.13290860129E+00  0.89120752552E+00  0.88000000000E+00 0. -1.
        -11    1    4    4    0    0  0.40781543461E-02  0.47717814300E-02 -0.16380753416E-01  0.17549685022E-01  0.51100000000E-03 0. -1.
         11    1    4    4    0    0 -0.21206694465E-01  0.13301788261E-01 -0.10905940913E+00  0.11189672605E+00  0.51100000000E-03 0.  1.
</event>
<event>
 8    1  0.1064884E+005  0.1043930E+01  0.7957747E-01            NaN
         13   -1    0    0    0    0  0.00000000000E+00  0.00000000000E+00  0.74505805969E-08  0.10566000000E+00  0.10566000000E+00 0. -1.
     999900   -1    0    0    0    0 -0.00000000000E+00 -0.00000000000E+00 -0.74505805969E-08  0.93827000000E+00  0.93827000000E+00 0. -1.
     999902    2    1    2    0    0  0.13799966980E-01  0.15718577140E-01 -0.11502748541E-01  0.10200589720E+01  0.10197796234E+01 0.  0.
     999903    2    3    3    0    0  0.49524261973E-01 -0.87815144542E-01 -0.80190387395E-01  0.13061338705E+00  0.21568646469E-01 0.  0.
         14    1    1    2    0    0 -0.13799966980E-01 -0.15718577140E-01  0.11502748541E-01  0.23871028046E-01  0.00000000000E+00 0. -1.
     999901    1    3    3    0    0 -0.35724294993E-01  0.10353372168E+00  0.68687638854E-01  0.88944558491E+00  0.88000000000E+00 0.  1.
        -11    1    4    4    0    0  0.29011746638E-01 -0.69644757341E-01 -0.54765379527E-01  0.93228652161E-01  0.51100000000E-03 0. -1.
         11    1    4    4    0    0  0.20512515336E-01 -0.18170387201E-01 -0.25425007868E-01  0.37384734886E-01  0.51100000000E-03 0.  1.
</event>
<event>
 8    1  0.1064884E+005  0.1043930E+01  0.7957747E-01            NaN
         13   -1    0    0    0    0  0.00000000000E+00  0.00000000000E+00  0.74505805969E-08  0.10566000000E+00  0.10566000000E+00 0. -1.
     999900   -1    0    0    0    0 -0.00000000000E+00 -0.00000000000E+00 -0.74505805969E-08  0.93827000000E+00  0.93827000000E+00 0. -1.
     999902    2    1    2    0    0 -0.21846164098E-01 -0.74905129965E-02  0.86708709305E-02  0.10192612612E+01  0.10189626941E+01 0.  0.
     999903    2    3    3    0    0  0.54628977090E-01  0.10440856630E+00  0.46103220356E-01  0.12809851965E+00  0.19956200877E-01 0.  0.
         14    1    1    2    0    0  0.21846164098E-01  0.74905129965E-02 -0.86708709305E-02  0.24668738789E-01  0.00000000000E+00 0.  1.
     999901    1    3    3    0    0 -0.76475141189E-01 -0.11189907930E+00 -0.37432349426E-01  0.89116274156E+00  0.88000000000E+00 0. -1.
        -11    1    4    4    0    0  0.35160033066E-01  0.47368872161E-01  0.18685578521E-01  0.61882549565E-01  0.51100000000E-03 0. -1.
         11    1    4    4    0    0  0.19468944024E-01  0.57039694141E-01  0.27417641835E-01  0.66215970082E-01  0.51100000000E-03 0.  1.
</event>
<event>
 7    1  0.1064884E+005  0.1043930E+01  0.7957747E-01            NaN
         13   -1    0    0    0    0  0.00000000000E+00  0.00000000000E+00  0.74505805969E-08  0.10566000000E+00  0.10566000000E+00 0.  1.
     999900   -1    0    0    0    0 -0.00000000000E+00 -0.00000000000E+00 -0.74505805969E-08  0.93827000000E+00  0.93827000000E+00 0.  1.
     999902    2    1    2    0    0  0.23651783314E-01 -0.85501579158E-02  0.19078629418E-03  0.10187794840E+01  0.10184689925E+01 0.  0.
         14    1    1    2    0    0 -0.23651783314E-01  0.85501579158E-02 -0.19078629418E-03  0.25150515973E-01  0.00000000000E+00 0.  1.
     999901    1    3    3    0    0 -0.97352047238E-01 -0.28560016839E-01  0.17872402654E-01  0.88600932187E+00  0.88000000000E+00 0. -1.
        -11    1    3    3    0    0  0.40068014994E-01 -0.13538520012E-01 -0.15750657322E-01  0.45134041219E-01  0.51100000000E-03 0.  1.
         11    1    3    3    0    0  0.80935815558E-01  0.33548378935E-01 -0.19309590371E-02  0.87636120938E-01  0.51100000000E-03 0. -1.
</event>
<event>
 8    1  0.1064884E+005  0.1043930E+01  0.7957747E-01            NaN
         13   -1    0    0    0    0  0.00000000000E+00  0.00000000000E+00  0.74505805969E-08  0.10566000000E+00  0.10566000000E+00 0.  1.
     999900   -1    0    0    0    0 -0.00000000000E+00 -0.00000000000E+00 -0.74505805969E-08  0.93827000000E+00  0.93827000000E+00 0.  1.
     999902    2    1    2    0    0 -0.14015611825E-01  0.44734526134E-02 -0.15084136906E-01  0.10228591590E+01  0.10226421069E+01 0.  0.
     999903    2    3    3    0    0  0.42659067150E-01 -0.68801278001E-01 -0.10425582696E+00  0.13351513353E+00  0.20089837257E-01 0.  0.
         14    1    1    2    0    0  0.14015611825E-01 -0.44734526134E-02  0.15084136906E-01  0.21070840973E-01  0.00000000000E+00 0.  1.
     999901    1    3    3    0    0 -0.56674678975E-01  0.73274730615E-01  0.89171690054E-01  0.88934402550E+00  0.88000000000E+00 0. -1.
        -11    1    4    4    0    0  0.14215474551E-01 -0.35502430232E-01 -0.36708802478E-01  0.53012258671E-01  0.51100000000E-03 0. -1.
         11    1    4    4    0    0  0.28443592599E-01 -0.33298847770E-01 -0.67547024483E-01  0.80502874857E-01  0.51100000000E-03 0.  1.
</event>
<event>
 8    1  0.1064884E+005  0.1043930E+01  0.7957747E-01            NaN
         13   -1    0    0    0    0  0.00000000000E+00  0.00000000000E+00  0.74505805969E-08  0.10566000000E+00  0.10566000000E+00 0. -1.
     999900   -1    0    0    0    0 -0.00000000000E+00 -0.00000000000E+00 -0.74505805969E-08  0.93827000000E+00  0.93827000000E+00 0.  1.
     999902    2    1    2    0    0 -0.29539485478E-02  0.22558893079E-01  0.72987984040E-02  0.10200364459E+01  0.10197565636E+01 0.  0.
     999903    2    3    3    0    0 -0.91102253383E-01 -0.32090594525E-01 -0.83620206607E-01  0.12929352249E+00  0.19875844069E-01 0.  0.
         14    1    1    2    0    0  0.29539485478E-02 -0.22558893079E-01 -0.72987984040E-02  0.23893554091E-01  0.00000000000E+00 0.  1.
     999901    1    3    3    0    0  0.88148304835E-01  0.54649487604E-01  0.90919005011E-01  0.89074292341E+00  0.88000000000E+00 0. -1.
        -11    1    4    4    0    0 -0.10060736243E-01 -0.68134260049E-02 -0.37314974942E-02  0.12721099882E-01  0.51100000000E-03 0.  1.
         11    1    4    4    0    0 -0.81041517141E-01 -0.25277168520E-01 -0.79888709113E-01  0.11657242261E+00  0.51100000000E-03 0. -1.
</event>
<event>
 8    1  0.1064884E+005  0.1043930E+01  0.7957747E-01            NaN
         13   -1    0    0    0    0  0.00000000000E+00  0.00000000000E+00  0.74505805969E-08  0.10566000000E+00  0.10566000000E+00 0. -1.
     999900   -1    0    0    0    0 -0.00000000000E+00 -0.00000000000E+00 -0.74505805969E-08  0.93827000000E+00  0.93827000000E+00 0. -1.
     999902    2    1    2    0    0 -0.23749381632E-01 -0.84939125337E-02  0.11885919616E-02  0.10186794074E+01  0.10183664088E+01 0.  0.
     999903    2    3    3    0    0  0.72946865543E-01  0.96914655780E-02 -0.10188023924E+00  0.12721765486E+00  0.19737752204E-01 0.  0.
         14    1    1    2    0    0  0.23749381632E-01  0.84939125337E-02 -0.11885919616E-02  0.25250592645E-01  0.00000000000E+00 0. -1.
     999901    1    3    3    0    0 -0.96696247176E-01 -0.18185378112E-01  0.10306883121E+00  0.89146175249E+00  0.88000000000E+00 0.  1.
        -11    1    4    4    0    0  0.42540460186E-01  0.15351351650E-01 -0.62173433030E-01  0.76884014242E-01  0.51100000000E-03 0.  1.
         11    1    4    4    0    0  0.30406405358E-01 -0.56598860721E-02 -0.39706806215E-01  0.50333640618E-01  0.51100000000E-03 0. -1.
</event>
<event>
 8    1  0.1064884E+005  0.1043930E+01  0.7957747E-01            NaN
         13   -1    0    0    0    0  0.00000000000E+00  0.00000000000E+00  0.74505805969E-08  0.10566000000E+00  0.10566000000E+00 0.  1.
     999900   -1    0    0    0    0 -0.00000000000E+00 -0.00000000000E+00 -0.74505805969E-08  0.93827000000E+00  0.93827000000E+00 0.  1.
     999902    2    1    2    0    0  0.21686682069E-01 -0.10343713338E-01  0.77160407188E-02  0.10186942740E+01  0.10183816485E+01 0.  0.
     999903    2    3    3    0    0  0.11323850427E+00 -0.11426642725E-01  0.63526998789E-01  0.13218551938E+00  0.21995566496E-01 0.  0.
         14    1    1    2    0    0 -0.21686682069E-01  0.10343713338E-01 -0.77160407188E-02  0.25235726047E-01  0.00000000000E+00 0.  1.
     999901    1    3    3    0    0 -0.91551822206E-01  0.10829293875E-02 -0.55810958070E-01  0.88650875457E+00  0.88000000000E+00 0.  1.
        -11    1    4    4    0    0  0.52719518492E-01 -0.10379586752E-01  0.18817592352E-01  0.56933701391E-01  0.51100000000E-03 0. -1.
         11    1    4    4    0    0  0.60518985783E-01 -0.10470559735E-02  0.44709406437E-01  0.75251817994E-01  0.51100000000E-03 0.  1.
</event>
<event>
 8    1  0.1064884E+005  0.1043930E+01  0.7957747E-01            NaN
         13   -1    0    0    0    0  0.00000000000E+00  0.00000000000E+00  0.74505805969E-08  0.10566000000E+00  0.10566000000E+00 0.  1.
     999900   -1    0    0    0    0 -0.00000000000E+00 -0.00000000000E+00 -0.74505805969E-08  0.93827000000E+00  0.93827000000E+00 0.  1.
     999902    2    1    2    0    0  0.21247397568E-01 -0.51341723013E-03  0.10185100342E-01  0.10203619757E+01  0.10200897557E+01 0.  0.
     999903    2    3    3    0    0  0.12153752080E+00 -0.49656078769E-01 -0.10524099549E-01  0.13306158633E+00  0.18908568595E-01 0.  0.
         14    1    1    2    0    0 -0.21247397568E-01  0.51341723013E-03 -0.10185100342E-01  0.23568024305E-01  0.00000000000E+00 0. -1.
     999901    1    3    3    0    0 -0.10029012323E+00  0.49142661539E-01  0.20709199891E-01  0.88730038936E+00  0.88000000000E+00 0.  1.
        -11    1    4    4    0    0  0.47524675903E-01 -0.26593759673E-01 -0.10872349265E-01  0.55536402231E-01  0.51100000000E-03 0. -1.
         11    1    4    4    0    0  0.74012844893E-01 -0.23062319096E-01  0.34824971564E-03  0.77525184102E-01  0.51100000000E-03 0.  1.
</event>
<event>
 8    1  0.1064884E+005  0.1043930E+01  0.7957747E-01            NaN
         13   -1    0    0    0    0  0.00000000000E+00  0.00000000000E+00  0.74505805969E-08  0.10566000000E+00  0.10566000000E+00 0. -1.
     999900   -1    0    0    0    0 -0.00000000000E+00 -0.00000000000E+00 -0.74505805969E-08  0.93827000000E+00  0.93827000000E+00 0.  1.
     999902    2    1    2    0    0  0.50986417202E-02  0.24966541868E-01 -0.18589632660E-01  0.10123879835E+01  0.10118965018E+01 0.  0.
     999903    2    3    3    0    0  0.76292281271E-01 -0.46890857266E-01 -0.83354784751E-01  0.12422890710E+00  0.21576295849E-01 0.  0.
         14    1    1    2    0    0 -0.50986417202E-02 -0.24966541868E-01  0.18589632660E-01  0.31542016465E-01  0.00000000000E+00 0.  1.
     999901    1    3    3    0    0 -0.71193639551E-01  0.71857399134E-01  0.64765152092E-01  0.88815907643E+00  0.88000000000E+00 0. -1.
        -11    1    4    4    0    0  0.50336784900E-01 -0.42180044831E-01 -0.57530400655E-01  0.87309542528E-01  0.51100000000E-03 0.  1.
         11    1    4    4    0    0  0.25955496371E-01 -0.47108124345E-02 -0.25824384096E-01  0.36919364575E-01  0.51100000000E-03 0. -1.
</event>
<event>
 8    1  0.1064884E+005  0.1043930E+01  0.7957747E-01            NaN
         13   -1    0    0    0    0  0.00000000000E+00  0.00000000000E+00  0.74505805969E-08  0.10566000000E+00  0.10566000000E+00 0. -1.
     999900   -1    0    0    0    0 -0.00000000000E+00 -0.00000000000E+00 -0.74505805969E-08  0.93827000000E+00  0.93827000000E+00 0. -1.
     999902    2    1    2    0    0  0.41903011297E-02  0.95273747794E-02 -0.21358043233E-01  0.10201708859E+01  0.10198941812E+01 0.  0.
     999903    2    3    3    0    0 -0.10411215436E+00 -0.38067171562E-01  0.61722089334E-01  0.12837664327E+00  0.19557504672E-01 0.  0.
         14    1    1    2    0    0 -0.41903011297E-02 -0.95273747794E-02  0.21358043233E-01  0.23759114135E-01  0.00000000000E+00 0. -1.
     999901    1    3    3    0    0  0.10830245549E+00  0.47594546342E-01 -0.83080132566E-01  0.89179424260E+00  0.88000000000E+00 0. -1.
        -11    1    4    4    0    0 -0.13950563191E-01 -0.12734844601E-01  0.11157360299E-01  0.21944071869E-01  0.51100000000E-03 0.  1.
         11    1    4    4    0    0 -0.90161591165E-01 -0.25332326962E-01  0.50564729034E-01  0.10643257140E+00  0.51100000000E-03 0. -1.
</event>
<event>
 8    1  0.1064884E+005  0.1043930E+01  0.7957747E-01            NaN
         13   -1    0    0    0    0  0.00000000000E+00  0.00000000000E+00  0.74505805969E-08  0.10566000000E+00  0.10566000000E+00 0. -1.
     999900   -1    0    0    0    0 -0.00000000000E+00 -0.00000000000E+00 -0.74505805969E-08  0.93827000000E+00  0.93827000000E+00 0.  1.
     999902    2    1    2    0    0 -0.13638115380E-02  0.20632745925E-01 -0.11550003875E-01  0.10202451361E+01  0.10199701785E+01 0.  0.
     999903    2    3    3    0    0  0.67684637948E-01 -0.34139189199E-01  0.10267001312E+00  0.12849748937E+00  0.14959235438E-01 0.  0.
         14    1    1    2    0    0  0.13638115380E-02 -0.20632745925E-01  0.11550003875E-01  0.23684863855E-01  0.00000000000E+00 0. -1.
     999901    1    3    3    0    0 -0.69048449486E-01  0.54771935124E-01 -0.11422001700E+00  0.89174764678E+00  0.88000000000E+00 0.  1.
        -11    1    4    4    0    0  0.24957944097E-01 -0.48172184557E-02  0.32352387864E-01  0.41146599965E-01  0.51100000000E-03 0.  1.
         11    1    4    4    0    0  0.42726693852E-01 -0.29321970743E-01  0.70317625261E-01  0.87350889401E-01  0.51100000000E-03 0. -1.
</event>
<event>
 8    1  0.1458898E+005  0.1043930E+01  0.7957747E-01            NaN
         13   -1    0    0    0    0  0.00000000000E+00  0.00000000000E+00  0.74505805969E-08  0.10566000000E+00  0.10566000000E+00 0. -1.
     999900   -1    0    0    0    0 -0.00000000000E+00 -0.00000000000E+00 -0.74505805969E-08  0.93827000000E+00  0.93827000000E+00 0. -1.
     999902    2    1    2    0    0  0.17494693225E-01  0.64938721672E-02 -0.13117309596E-01  0.10211199479E+01  0.10208651475E+01 0.  0.
     999903    2    3    3    0    0 -0.89525052944E-01 -0.57836901953E-01 -0.72821039563E-01  0.13030222806E+00  0.17774265175E-01 0.  0.
         14    1    1    2    0    0 -0.17494693225E-01 -0.64938721672E-02  0.13117309596E-01  0.22810052122E-01  0.00000000000E+00 0. -1.
     999901    1    3    3    0    0  0.10701974617E+00  0.64330774120E-01  0.59703729966E-01  0.89081771982E+00  0.88000000000E+00 0. -1.
        -11    1    4    4    0    0 -0.57270080060E-01 -0.32981087894E-01 -0.35291340773E-01  0.74922320328E-01  0.51100000000E-03 0.  1.
         11    1    4    4    0    0 -0.32254972884E-01 -0.24855814059E-01 -0.37529698790E-01  0.55379907733E-01  0.51100000000E-03 0. -1.
</event>
<event>
 8    1  0.1064884E+005  0.1043930E+01  0.7957747E-01            NaN
         13   -1    0    0    0    0  0.00000000000E+00  0.00000000000E+00  0.74505805969E-08  0.10566000000E+00  0.10566000000E+00 0.  1.
     999900   -1    0    0    0    0 -0.00000000000E+00 -0.00000000000E+00 -0.74505805969E-08  0.93827000000E+00  0.93827000000E+00 0. -1.
     999902    2    1    2    0    0  0.35476473567E-02 -0.13821582121E-01  0.18849249844E-01  0.10202885924E+01  0.10200146546E+01 0.  0.
     999903    2    3    3    0    0  0.10182216283E+00 -0.49452893353E-02  0.82252046154E-01  0.13250675909E+00  0.20010831499E-01 0.  0.
         14    1    1    2    0    0 -0.35476473567E-02  0.13821582121E-01 -0.18849249844E-01  0.23641407610E-01  0.00000000000E+00 0. -1.
     999901    1    3    3    0    0 -0.98274515472E-01 -0.88762927855E-02 -0.63402796310E-01  0.88778183330E+00  0.88000000000E+00 0. -1.
        -11    1    4    4    0    0  0.42126343489E-01 -0.10717903507E-01  0.40632211176E-01  0.59504117315E-01  0.51100000000E-03 0. -1.
         11    1    4    4    0    0  0.59695819339E-01  0.57726141722E-02  0.41619834978E-01  0.73002641771E-01  0.51100000000E-03 0.  1.
</event>
<event>
 8    1  0.1064884E+005  0.1043930E+01  0.7957747E-01            NaN
         13   -1    0    0    0    0  0.00000000000E+00  0.00000000000E+00  0.74505805969E-08  0.10566000000E+00  0.10566000000E+00 0.  1.
     999900   -1    0    0    0    0 -0.00000000000E+00 -0.00000000000E+00 -0.74505805969E-08  0.93827000000E+00  0.93827000000E+00 0. -1.
     999902    2    1    2    0    0 -0.67960083995E-02 -0.29903298389E-03 -0.23185897127E-01  0.10197667846E+01  0.10194804726E+01 0.  0.
     999903    2    3    3    0    0  0.20893872325E-01 -0.11257474534E+00 -0.61146902424E-01  0.13138983593E+00  0.20364629121E-01 0.  0.
         14    1    1    2    0    0  0.67960083995E-02  0.29903298389E-03  0.23185897127E-01  0.24163215359E-01  0.00000000000E+00 0.  1.
     999901    1    3    3    0    0 -0.27689880724E-01  0.11227571236E+00  0.37961005297E-01  0.88837694871E+00  0.88000000000E+00 0.  1.
        -11    1    4    4    0    0  0.10003283592E-01 -0.38034935579E-01 -0.31662323845E-01  0.50492433882E-01  0.51100000000E-03 0.  1.
         11    1    4    4    0    0  0.10890588733E-01 -0.74539809766E-01 -0.29484578579E-01  0.80897402047E-01  0.51100000000E-03 0. -1.
</event>
<event>
 8    1  0.1064884E+005  0.1043930E+01  0.7957747E-01            NaN
         13   -1    0    0    0    0  0.00000000000E+00  0.00000000000E+00  0.74505805969E-08  0.10566000000E+00  0.10566000000E+00 0. -1.
     999900   -1    0    0    0    0 -0.00000000000E+00 -0.00000000000E+00 -0.74505805969E-08  0.93827000000E+00  0.93827000000E+00 0.  1.
     999902    2    1    2    0    0 -0.18675274817E-01 -0.11908484963E-01  0.87235837300E-02  0.10201249834E+01  0.10198471958E+01 0.  0.
     999903    2    3    3    0    0  0.11751476594E+00 -0.28634179126E-01  0.40086034846E-01  0.12893977289E+00  0.19721521612E-01 0.  0.
         14    1    1    2    0    0  0.18675274817E-01  0.11908484963E-01 -0.87235837300E-02  0.23805016629E-01  0.00000000000E+00 0.  1.
     999901    1    3    3    0    0 -0.13619004076E+00  0.16725694163E-01 -0.31362451116E-01  0.89118521048E+00  0.88000000000E+00 0.  1.
        -11    1    4    4    0    0  0.61446503843E-01 -0.21079386957E-01  0.29641474009E-01  0.71406522752E-01  0.51100000000E-03 0.  1.
         11    1    4    4    0    0  0.56068262095E-01 -0.75547921688E-02  0.10444560838E-01  0.57533250135E-01  0.51100000000E-03 0. -1.
</event>
<event>
 8    1  0.1064884E+005  0.1043930E+01  0.7957747E-01            NaN
         13   -1    0    0    0    0  0.00000000000E+00  0.00000000000E+00  0.74505805969E-08  0.10566000000E+00  0.10566000000E+00 0. -1.
     999900   -1    0    0    0    0 -0.00000000000E+00 -0.00000000000E+00 -0.74505805969E-08  0.93827000000E+00  0.93827000000E+00 0.  1.
     999902    2    1    2    0    0 -0.95458199793E-03 -0.21640269034E-01  0.78401827141E-02  0.10208934869E+01  0.10206335438E+01 0.  0.
     999903    2    3    3    0    0 -0.82809012246E-02  0.71717867204E-01  0.10686569075E+00  0.13040178689E+00  0.19295708410E-01 0.  0.
         14    1    1    2    0    0  0.95458199793E-03  0.21640269034E-01 -0.78401827141E-02  0.23036513096E-01  0.00000000000E+00 0.  1.
     999901    1    3    3    0    0  0.73263192266E-02 -0.93358136238E-01 -0.99025508034E-01  0.89049170002E+00  0.88000000000E+00 0.  1.
        -11    1    4    4    0    0  0.34323506934E-02  0.39723546463E-01  0.66897020950E-01  0.77879481943E-01  0.51100000000E-03 0. -1.
         11    1    4    4    0    0 -0.11713251918E-01  0.31994320742E-01  0.39968669799E-01  0.52522304945E-01  0.51100000000E-03 0.  1.
</event>
<event>
 8    1  0.1064884E+005  0.1043930E+01  0.7957747E-01            NaN
         13   -1    0    0    0    0  0.00000000000E+00  0.00000000000E+00  0.74505805969E-08  0.10566000000E+00  0.10566000000E+00 0.  1.
     999900   -1    0    0    0    0 -0.00000000000E+00 -0.00000000000E+00 -0.74505805969E-08  0.93827000000E+00  0.93827000000E+00 0. -1.
     999902    2    1    2    0    0  0.22289212153E-01 -0.71551868832E-02  0.57193649733E-02  0.10198319334E+01  0.10195471816E+01 0.  0.
     999903    2    3    3    0    0 -0.11676536590E+00 -0.48188353797E-02  0.47711221007E-01  0.12792109135E+00  0.20738205137E-01 0.  0.
         14    1    1    2    0    0 -0.22289212153E-01  0.71551868832E-02 -0.57193649733E-02  0.24098066592E-01  0.00000000000E+00 0. -1.
     999901    1    3    3    0    0  0.13905457806E+00 -0.23363515035E-02 -0.41991856033E-01  0.89191084206E+00  0.88000000000E+00 0.  1.
        -11    1    4    4    0    0 -0.79697148194E-01 -0.12173299523E-01  0.36489160855E-01  0.88496014783E-01  0.51100000000E-03 0. -1.
         11    1    4    4    0    0 -0.37068217709E-01  0.73544641437E-02  0.11222060152E-01  0.39425076563E-01  0.51100000000E-03 0.  1.
</event>
<event>
 8    1  0.1064884E+005  0.1043930E+01  0.7957747E-01            NaN
         13   -1    0    0    0    0  0.00000000000E+00  0.00000000000E+00  0.74505805969E-08  0.10566000000E+00  0.10566000000E+00 0.  1.
     999900   -1    0    0    0    0 -0.00000000000E+00 -0.00000000000E+00 -0.74505805969E-08  0.93827000000E+00  0.93827000000E+00 0.  1.
     999902    2    1    2    0    0  0.21246744290E-01  0.10983688248E-01 -0.61780841672E-03  0.10200041304E+01  0.10197234815E+01 0.  0.
     999903    2    3    3    0    0  0.75896557118E-01 -0.54526929371E-02  0.10567496988E+00  0.13177279148E+00  0.20170524809E-01 0.  0.
         14    1    1    2    0    0 -0.21246744290E-01 -0.10983688248E-01  0.61780841672E-03  0.23925869633E-01  0.00000000000E+00 0. -1.
     999901    1    3    3    0    0 -0.54649812827E-01  0.16436381185E-01 -0.10629277830E+00  0.88823133889E+00  0.88000000000E+00 0.  1.
        -11    1    4    4    0    0  0.29491278807E-01 -0.52776014398E-04  0.25559661676E-01  0.39029421428E-01  0.51100000000E-03 0.  1.
         11    1    4    4    0    0  0.46405278311E-01 -0.53999169227E-02  0.80115308207E-01  0.92743370049E-01  0.51100000000E-03 0. -1.
</event>
<event>
 7    1  0.1064884E+005  0.1043930E+01  0.7957747E-01            NaN
         13   -1    0    0    0    0  0.00000000000E+00  0.00000000000E+00  0.74505805969E-08  0.10566000000E+00  0.10566000000E+00 0.  1.
     999900   -1    0    0    0    0 -0.00000000000E+00 -0.00000000000E+00 -0.74505805969E-08  0.93827000000E+00  0.93827000000E+00 0.  1.
     999902    2    1    2    0    0  0.19609230429E-01  0.22289019132E-02  0.11879820728E-01  0.10208948082E+01  0.10206348952E+01 0.  0.
         14    1    1    2    0    0 -0.19609230429E-01 -0.22289019132E-02 -0.11879820728E-01  0.23035191822E-01  0.00000000000E+00 0. -1.
     999901    1    3    3    0    0 -0.78512330292E-01  0.70050005097E-01 -0.32177264868E-01  0.88685205395E+00  0.88000000000E+00 0.  1.
        -11    1    3    3    0    0  0.22827377754E-01 -0.33816801921E-01  0.29011145485E-01  0.50065686360E-01  0.51100000000E-03 0. -1.
         11    1    3    3    0    0  0.75294182966E-01 -0.34004301262E-01  0.15045940111E-01  0.83977067868E-01  0.51100000000E-03 0.  1.
</event>
<event>
 8    1  0.1064884E+005  0.1043930E+01  0.7957747E-01            NaN
         13   -1    0    0    0    0  0.00000000000E+00  0.00000000000E+00  0.74505805969E-08  0.10566000000E+00  0.10566000000E+00 0.  1.
     999900   -1    0    0    0    0 -0.00000000000E+00 -0.00000000000E+00 -0.74505805969E-08  0.93827000000E+00  0.93827000000E+00 0. -1.
     999902    2    1    2    0    0 -0.88084410657E-02  0.18057671506E-01  0.12384764896E-01  0.10203280819E+01  0.10200550692E+01 0.  0.
     999903    2    3    3    0    0  0.51281018361E-01 -0.10850873938E+00  0.42002039038E-01  0.12875252013E+00  0.20227476123E-01 0.  0.
         14    1    1    2    0    0  0.88084410657E-02 -0.18057671506E-01 -0.12384764896E-01  0.23601918052E-01  0.00000000000E+00 0. -1.
     999901    1    3    3    0    0 -0.60089459427E-01  0.12656641089E+00 -0.29617274141E-01  0.89157556182E+00  0.88000000000E+00 0. -1.
        -11    1    4    4    0    0  0.24846539150E-01 -0.35435681983E-01  0.83981948104E-02  0.44088874587E-01  0.51100000000E-03 0. -1.
         11    1    4    4    0    0  0.26434479211E-01 -0.73073057400E-01  0.33603844228E-01  0.84663645544E-01  0.51100000000E-03 0.  1.
</event>
<event>
 8    1  0.1064884E+005  0.1043930E+01  0.7957747E-01            NaN
         13   -1    0    0    0    0  0.00000000000E+00  0.00000000000E+00  0.74505805969E-08  0.10566000000E+00  0.10566000000E+00 0.  1.
     999900   -1    0    0    0    0 -0.00000000000E+00 -0.00000000000E+00 -0.74505805969E-08  0.93827000000E+00  0.93827000000E+00 0.  1.
     999902    2    1    2    0    0  0.32067042680E-02  0.36179475747E-01 -0.10111438038E-01  0.10062274988E+01  0.10055209101E+01 0.  0.
     999903    2    3    3    0    0 -0.39797039702E-01  0.28051159723E-01  0.10513082064E+00  0.11763525840E+00  0.20368913559E-01 0.  0.
         14    1    1    2    0    0 -0.32067042680E-02 -0.36179475747E-01  0.10111438038E-01  0.37702501200E-01  0.00000000000E+00 0.  1.
     999901    1    3    3    0    0  0.43003743970E-01  0.81283160232E-02 -0.11524225868E+00  0.88859224040E+00  0.88000000000E+00 0.  1.
        -11    1    4    4    0    0 -0.23494552456E-01  0.27788460737E-01  0.75393080675E-01  0.83717204205E-01  0.51100000000E-03 0. -1.
         11    1    4    4    0    0 -0.16302487247E-01  0.26269898687E-03  0.29737739963E-01  0.33918054194E-01  0.51100000000E-03 0.  1.
</event>
<event>
 8    1  0.1064884E+005  0.1043930E+01  0.7957747E-01            NaN
         13   -1    0    0    0    0  0.00000000000E+00  0.00000000000E+00  0.74505805969E-08  0.10566000000E+00  0.10566000000E+00 0. -1.
     999900   -1    0    0    0    0 -0.00000000000E+00 -0.00000000000E+00 -0.74505805969E-08  0.93827000000E+00  0.93827000000E+00 0. -1.
     999902    2    1    2    0    0  0.54227435020E-02  0.20315224873E-01  0.94784161798E-02  0.10208658529E+01  0.10206052786E+01 0.  0.
     999903    2    3    3    0    0 -0.86362087850E-01 -0.10845801535E-01  0.96082261205E-01  0.13131782675E+00  0.20893278233E-01 0.  0.
         14    1    1    2    0    0 -0.54227435020E-02 -0.20315224873E-01 -0.94784161798E-02  0.23064147112E-01  0.00000000000E+00 0. -1.
     999901    1    3    3    0    0  0.91784831352E-01  0.31161026408E-01 -0.86603845025E-01  0.88954802614E+00  0.88000000000E+00 0. -1.
        -11    1    4    4    0    0 -0.10147619431E-01 -0.74030840852E-02  0.19625964209E-01  0.23307068160E-01  0.51100000000E-03 0. -1.
         11    1    4    4    0    0 -0.76214468419E-01 -0.34427174498E-02  0.76456296996E-01  0.10801075859E+00  0.51100000000E-03 0.  1.
</event>
<event>
 8    1  0.1064884E+005  0.1043930E+01  0.7957747E-01            NaN
         13   -1    0    0    0    0  0.00000000000E+00  0.00000000000E+00  0.74505805969E-08  0.10566000000E+00  0.10566000000E+00 0. -1.
     999900   -1    0    0    0    0 -0.00000000000E+00 -0.00000000000E+00 -0.74505805969E-08  0.93827000000E+00  0.93827000000E+00 0. -1.
     999902    2    1    2    0    0  0.92933937270E-02  0.22422457875E-01  0.18558593565E-03  0.10196572122E+01  0.10193682662E+01 0.  0.
     999903    2    3    3    0    0  0.24399589604E-01 -0.17713217899E-02  0.12697860484E+00  0.13011238156E+00  0.14394033319E-01 0.  0.
         14    1    1    2    0    0 -0.92933937270E-02 -0.22422457875E-01 -0.18558593565E-03  0.24272787772E-01  0.00000000000E+00 0. -1.
     999901    1    3    3    0    0 -0.15106195877E-01  0.24193779664E-01 -0.12679301890E+00  0.88954483067E+00  0.88000000000E+00 0. -1.
        -11    1    4    4    0    0  0.39226392733E-02 -0.63593993208E-03  0.58243526535E-01  0.58381170104E-01  0.51100000000E-03 0. -1.
         11    1    4    4    0    0  0.20476950330E-01 -0.11353818578E-02  0.68735078300E-01  0.71731211454E-01  0.51100000000E-03 0.  1.
</event>
<event>
 8    1  0.1064884E+005  0.1043930E+01  0.7957747E-01            NaN
         13   -1    0    0    0    0  0.00000000000E+00  0.00000000000E+00  0.74505805969E-08  0.10566000000E+00  0.10566000000E+00 0.  1.
     999900   -1    0    0    0    0 -0.00000000000E+00 -0.00000000000E+00 -0.74505805969E-08  0.93827000000E+00  0.93827000000E+00 0.  1.
     999902    2    1    2    0    0  0.13577855113E-01 -0.19232557699E-01 -0.11122792066E-01  0.10178922211E+01  0.10175591422E+01 0.  0.
     999903    2    3    3    0    0  0.11062209411E+00 -0.62440169552E-01 -0.26744925573E-01  0.13136611712E+00  0.20143068392E-01 0.  0.
         14    1    1    2    0    0 -0.13577855113E-01  0.19232557699E-01  0.11122792066E-01  0.26037778870E-01  0.00000000000E+00 0. -1.
     999901    1    3    3    0    0 -0.97044238992E-01  0.43207611853E-01  0.15622133508E-01  0.88652610401E+00  0.88000000000E+00 0. -1.
        -11    1    4    4    0    0  0.22035336924E-01 -0.16924102034E-01  0.15357708331E-02  0.27831654929E-01  0.51100000000E-03 0.  1.
         11    1    4    4    0    0  0.88586757181E-01 -0.45516067519E-01 -0.28280696406E-01  0.10353446219E+00  0.51100000000E-03 0. -1.
</event>
<event>
 8    1  0.1064884E+005  0.1043930E+01  0.7957747E-01            NaN
         13   -1    0    0    0    0  0.00000000000E+00  0.00000000000E+00  0.74505805969E-08  0.10566000000E+00  0.10566000000E+00 0. -1.
     999900   -1    0    0    0    0 -0.00000000000E+00 -0.00000000000E+00 -0.74505805969E-08  0.93827000000E+00  0.93827000000E+00 0. -1.
     999902    2    1    2    0    0 -0.10221313364E-01 -0.15223665129E-01  0.15337699174E-01  0.10200243471E+01  0.10197441779E+01 0.  0.
     999903    2    3    3    0    0 -0.42537904859E-01  0.12572791373E-01  0.12323879123E+00  0.13240976248E+00  0.19416413220E-01 0.  0.
         14    1    1    2    0    0  0.10221313364E-01  0.15223665129E-01 -0.15337699174E-01  0.23905652946E-01  0.00000000000E+00 0. -1.
     999901    1    3    3    0    0  0.32316591495E-01 -0.27796456502E-01 -0.10790109206E+00  0.88761458457E+00  0.88000000000E+00 0. -1.
        -11    1    4    4    0    0 -0.34671559585E-01  0.14699255157E-01  0.80194808219E-01  0.88598270482E-01  0.51100000000E-03 0. -1.
         11    1    4    4    0    0 -0.78663452745E-02 -0.21264637838E-02  0.43043983016E-01  0.43811491998E-01  0.51100000000E-03 0.  1.
</event>
<event>
 8    1  0.1064884E+005  0.1043930E+01  0.7957747E-01            NaN
         13   -1    0    0    0    0  0.00000000000E+00  0.00000000000E+00  0.74505805969E-08  0.10566000000E+00  0.10566000000E+00 0.  1.
     999900   -1    0    0    0    0 -0.00000000000E+00 -0.00000000000E+00 -0.74505805969E-08  0.93827000000E+00  0.93827000000E+00 0.  1.
     999902    2    1    2    0    0 -0.16318278538E-01 -0.91269089767E-02 -0.25828335157E-01  0.10120444299E+01  0.10115420103E+01 0.  0.
     999903    2    3    3    0    0  0.17890081891E-01  0.61258169304E-01 -0.10559433904E+00  0.12497798002E+00  0.19917648386E-01 0.  0.
         14    1    1    2    0    0  0.16318278538E-01  0.91269089767E-02  0.25828335157E-01  0.31885570073E-01  0.00000000000E+00 0.  1.
     999901    1    3    3    0    0 -0.34208360428E-01 -0.70385078281E-01  0.79766003882E-01  0.88706644990E+00  0.88000000000E+00 0. -1.
        -11    1    4    4    0    0  0.10289270743E-01  0.13603460019E-01 -0.40477324509E-01  0.43927191320E-01  0.51100000000E-03 0. -1.
         11    1    4    4    0    0  0.76008111478E-02  0.47654709285E-01 -0.65117014531E-01  0.81050788704E-01  0.51100000000E-03 0.  1.
</event>
<event>
 8    1  0.1064884E+005  0.1043930E+01  0.7957747E-01            NaN
         13   -1    0    0    0    0  0.00000000000E+00  0.00000000000E+00  0.74505805969E-08  0.10566000000E+00  0.10566000000E+00 0. -1.
     999900   -1    0    0    0    0 -0.00000000000E+00 -0.00000000000E+00 -0.74505805969E-08  0.93827000000E+00  0.93827000000E+00 0.  1.
     999902    2    1    2    0    0  0.56815374709E-02  0.13225949229E-01  0.21248575858E-01  0.10182647009E+01  0.10179412034E+01 0.  0.
     999903    2    3    3    0    0 -0.11847015602E+00  0.36698235613E-01  0.29367908007E-01  0.12920310869E+00  0.21190349433E-01 0.  0.
         14    1    1    2    0    0 -0.56815374709E-02 -0.13225949229E-01 -0.21248575858E-01  0.25665299084E-01  0.00000000000E+00 0.  1.
     999901    1    3    3    0    0  0.12415169349E+00 -0.23472286384E-01 -0.81193321488E-02  0.88906159223E+00  0.88000000000E+00 0.  1.
        -11    1    4    4    0    0 -0.76806551308E-01  0.13355387974E-01  0.20712850130E-01  0.80665333281E-01  0.51100000000E-03 0. -1.
         11    1    4    4    0    0 -0.41663604711E-01  0.23342847639E-01  0.86550578765E-02  0.48537775405E-01  0.51100000000E-03 0.  1.
</event>
<event>
 8    1  0.1064884E+005  0.1043930E+01  0.7957747E-01            NaN
         13   -1    0    0    0    0  0.00000000000E+00  0.00000000000E+00  0.74505805969E-08  0.10566000000E+00  0.10566000000E+00 0.  1.
     999900   -1    0    0    0    0 -0.00000000000E+00 -0.00000000000E+00 -0.74505805969E-08  0.93827000000E+00  0.93827000000E+00 0. -1.
     999902    2    1    2    0    0 -0.17201080065E-01  0.89348805454E-02 -0.89653063277E-02  0.10225738308E+01  0.10223507976E+01 0.  0.
     999903    2    3    3    0    0  0.84002370300E-01 -0.85783863358E-02  0.97134239389E-01  0.13027008963E+00  0.20130793899E-01 0.  0.
         14    1    1    2    0    0  0.17201080065E-01 -0.89348805454E-02  0.89653063277E-02  0.21356169210E-01  0.00000000000E+00 0. -1.
     999901    1    3    3    0    0 -0.10120345037E+00  0.17513266881E-01 -0.10609954572E+00  0.89230374116E+00  0.88000000000E+00 0. -1.
        -11    1    4    4    0    0  0.48920358161E-01 -0.50087704254E-02  0.71029295337E-01  0.86392772503E-01  0.51100000000E-03 0. -1.
         11    1    4    4    0    0  0.35082012140E-01 -0.35696159104E-02  0.26104944052E-01  0.43877317129E-01  0.51100000000E-03 0.  1.
</event>
<event>
 8    1  0.1064884E+005  0.1043930E+01  0.7957747E-01            NaN
         13   -1    0    0    0    0  0.00000000000E+00  0.00000000000E+00  0.74505805969E-08  0.10566000000E+00  0.10566000000E+00 0.  1.
     999900   -1    0    0    0    0 -0.00000000000E+00 -0.00000000000E+00 -0.74505805969E-08  0.93827000000E+00  0.93827000000E+00 0. -1.
     999902    2    1    2    0    0 -0.22042190474E-02  0.38004590962E-02  0.20073296278E-01  0.10233815379E+01  0.10231752210E+01 0.  0.
     999903    2    3    3    0    0  0.74595607195E-01  0.82582852564E-01 -0.69988230340E-01  0.13196919931E+00  0.11536248489E-01 0.  0.
         14    1    1    2    0    0  0.22042190474E-02 -0.38004590962E-02 -0.20073296278E-01  0.20548462094E-01  0.00000000000E+00 0. -1.
     999901    1    3    3    0    0 -0.76799826242E-01 -0.78782393467E-01  0.90061526618E-01  0.89141233860E+00  0.88000000000E+00 0.  1.
        -11    1    4    4    0    0  0.43623562771E-01  0.43271930093E-01 -0.33099429559E-01  0.69794759982E-01  0.51100000000E-03 0.  1.
         11    1    4    4    0    0  0.30972044424E-01  0.39310922470E-01 -0.36888800781E-01  0.62174439324E-01  0.51100000000E-03 0. -1.
</event>
<event>
 8    1  0.1064884E+005  0.1043930E+01  0.7957747E-01            NaN
         13   -1    0    0    0    0  0.00000000000E+00  0.00000000000E+00  0.74505805969E-08  0.10566000000E+00  0.10566000000E+00 0.  1.
     999900   -1    0    0    0    0 -0.00000000000E+00 -0.00000000000E+00 -0.74505805969E-08  0.93827000000E+00  0.93827000000E+00 0.  1.
     999902    2    1    2    0    0  0.19400536289E-01 -0.12757722786E-01  0.41950993723E-02  0.10203346793E+01  0.10200618210E+01 0.  0.
     999903    2    3    3    0    0 -0.11958595995E+00  0.31846849422E-01  0.25739577075E-01  0.12805054380E+00  0.20479069845E-01 0.  0.
         14    1    1    2    0    0 -0.19400536289E-01  0.12757722786E-01 -0.41950993723E-02  0.23595320674E-01  0.00000000000E+00 0. -1.
     999901    1    3    3    0    0  0.13898649624E+00 -0.44604572208E-01 -0.21544477703E-01  0.89228413553E+00  0.88000000000E+00 0.  1.
        -11    1    4    4    0    0 -0.58630101374E-01  0.13870896169E-01  0.22417166295E-02  0.60292428730E-01  0.51100000000E-03 0. -1.
         11    1    4    4    0    0 -0.60955858581E-01  0.17975953253E-01  0.23497860446E-01  0.67758115065E-01  0.51100000000E-03 0.  1.
</event>
<event>
 8    1  0.1266983E+005  0.1043930E+01  0.7957747E-01            NaN
         13   -1    0    0    0    0  0.00000000000E+00  0.00000000000E+00  0.74505805969E-08  0.10566000000E+00  0.10566000000E+00 0.  1.
     999900   -1    0    0    0    0 -0.00000000000E+00 -0.00000000000E+00 -0.74505805969E-08  0.93827000000E+00  0.93827000000E+00 0. -1.
     999902    2    1    2    0    0 -0.46427885825E-02 -0.13519825113E-02 -0.22798135662E-01  0.10206246716E+01  0.10203585556E+01 0.  0.
     999903    2    3    3    0    0 -0.11388860315E+00  0.55561509162E-01  0.25538248208E-01  0.13073130745E+00  0.19513518361E-01 0.  0.
         14    1    1    2    0    0  0.46427885825E-02  0.13519825113E-02  0.22798135662E-01  0.23305328408E-01  0.00000000000E+00 0.  1.
     999901    1    3    3    0    0  0.10924581457E+00 -0.56913491673E-01 -0.48336383870E-01  0.88989336414E+00  0.88000000000E+00 0. -1.
        -11    1    4    4    0    0 -0.61901296090E-01  0.32561384723E-01  0.23701431839E-01  0.73851426695E-01  0.51100000000E-03 0.  1.
         11    1    4    4    0    0 -0.51987307060E-01  0.23000124439E-01  0.18368163685E-02  0.56879880757E-01  0.51100000000E-03 0. -1.
</event>
<event>
 7    1  0.1064884E+005  0.1043930E+01  0.7957747E-01            NaN
         13   -1    0    0    0    0  0.00000000000E+00  0.00000000000E+00  0.74505805969E-08  0.10566000000E+00  0.10566000000E+00 0.  1.
     999900   -1    0    0    0    0 -0.00000000000E+00 -0.00000000000E+00 -0.74505805969E-08  0.93827000000E+00  0.93827000000E+00 0.  1.
     999903    2    1    2    0    0 -0.91013913051E-01  0.47159560885E-01  0.39141997026E-01  0.11139599408E+00  0.19220172052E-01 0.  0.
         14    1    1    2    0    0 -0.17630389774E-01  0.47834604218E-02  0.36807447970E-01  0.41091366043E-01  0.00000000000E+00 0.  1.
     999901    1    1    2    0    0  0.10864430283E+00 -0.51943021307E-01 -0.75949444996E-01  0.89144263988E+00  0.88000000000E+00 0. -1.
        -11    1    3    3    0    0 -0.38605283017E-01  0.15836939088E-01  0.67330413503E-02  0.42270219816E-01  0.51100000000E-03 0.  1.
         11    1    3    3    0    0 -0.52408630035E-01  0.31322621797E-01  0.32408955676E-01  0.69125774263E-01  0.51100000000E-03 0. -1.
</event>
<event>
 8    1  0.1064884E+005  0.1043930E+01  0.7957747E-01            NaN
         13   -1    0    0    0    0  0.00000000000E+00  0.00000000000E+00  0.74505805969E-08  0.10566000000E+00  0.10566000000E+00 0.  1.
     999900   -1    0    0    0    0 -0.00000000000E+00 -0.00000000000E+00 -0.74505805969E-08  0.93827000000E+00  0.93827000000E+00 0. -1.
     999902    2    1    2    0    0  0.35962589367E-02  0.12274469307E-01 -0.19688918976E-01  0.10204513032E+01  0.10201811667E+01 0.  0.
     999903    2    3    3    0    0  0.12039239586E+00  0.31695825828E-01 -0.40861262006E-01  0.13226956792E+00  0.18073226317E-01 0.  0.
         14    1    1    2    0    0 -0.35962589367E-02 -0.12274469307E-01  0.19688918976E-01  0.23478696845E-01  0.00000000000E+00 0.  1.
     999901    1    3    3    0    0 -0.11679613693E+00 -0.19421356521E-01  0.21172343030E-01  0.88818173523E+00  0.88000000000E+00 0. -1.
        -11    1    4    4    0    0  0.75223205540E-01  0.20931794677E-01 -0.34625915711E-01  0.85415957759E-01  0.51100000000E-03 0. -1.
         11    1    4    4    0    0  0.45169190322E-01  0.10764031151E-01 -0.62353462955E-02  0.46853610164E-01  0.51100000000E-03 0.  1.
</event>
<event>
 8    1  0.1064884E+005  0.1043930E+01  0.7957747E-01            NaN
         13   -1    0    0    0    0  0.00000000000E+00  0.00000000000E+00  0.74505805969E-08  0.10566000000E+00  0.10566000000E+00 0. -1.
     999900   -1    0    0    0    0 -0.00000000000E+00 -0.00000000000E+00 -0.74505805969E-08  0.93827000000E+00  0.93827000000E+00 0.  1.
     999902    2    1    2    0    0 -0.22060954062E-01  0.27157463000E-03 -0.76373620457E-02  0.10205828643E+01  0.10203157816E+01 0.  0.
     999903    2    3    3    0    0 -0.87990791025E-01  0.18552361611E-01 -0.96563329664E-01  0.13345899566E+00  0.20006435467E-01 0.  0.
         14    1    1    2    0    0  0.22060954062E-01 -0.27157463000E-03  0.76373620457E-02  0.23347135711E-01  0.00000000000E+00 0. -1.
     999901    1    3    3    0    0  0.65929836963E-01 -0.18280786981E-01  0.88925967618E-01  0.88712386863E+00  0.88000000000E+00 0. -1.
        -11    1    4    4    0    0 -0.57975672866E-01  0.15054060691E-01 -0.50403127029E-01  0.78284990406E-01  0.51100000000E-03 0.  1.
         11    1    4    4    0    0 -0.30015118159E-01  0.34983009195E-02 -0.46160202635E-01  0.55174005254E-01  0.51100000000E-03 0. -1.
</event>
<event>
 8    1  0.1064884E+005  0.1043930E+01  0.7957747E-01            NaN
         13   -1    0    0    0    0  0.00000000000E+00  0.00000000000E+00  0.74505805969E-08  0.10566000000E+00  0.10566000000E+00 0.  1.
     999900   -1    0    0    0    0 -0.00000000000E+00 -0.00000000000E+00 -0.74505805969E-08  0.93827000000E+00  0.93827000000E+00 0. -1.
     999902    2    1    2    0    0  0.23313534606E-01  0.13228846212E-02  0.66614177312E-02  0.10196473847E+01  0.10193582019E+01 0.  0.
     999903    2    3    3    0    0  0.75153465049E-01 -0.90908326483E-01 -0.53939046702E-01  0.13124072614E+00  0.20058422308E-01 0.  0.
         14    1    1    2    0    0 -0.23313534606E-01 -0.13228846212E-02 -0.66614177312E-02  0.24282615298E-01  0.00000000000E+00 0. -1.
     999901    1    3    3    0    0 -0.51839930443E-01  0.92231211104E-01  0.60600464433E-01  0.88840665856E+00  0.88000000000E+00 0. -1.
        -11    1    4    4    0    0  0.22519381258E-01 -0.36928836484E-01 -0.27910678755E-01  0.51479399820E-01  0.51100000000E-03 0. -1.
         11    1    4    4    0    0  0.52634083791E-01 -0.53979489999E-01 -0.26028367947E-01  0.79761326318E-01  0.51100000000E-03 0.  1.
</event>
<event>
 8    1  0.1064884E+005  0.1043930E+01  0.7957747E-01            NaN
         13   -1    0    0    0    0  0.00000000000E+00  0.00000000000E+00  0.74505805969E-08  0.10566000000E+00  0.10566000000E+00 0.  1.
     999900   -1    0    0    0    0 -0.00000000000E+00 -0.00000000000E+00 -0.74505805969E-08  0.93827000000E+00  0.93827000000E+00 0. -1.
     999902    2    1    2    0    0 -0.14742430755E-01 -0.97044797594E-02  0.16470235014E-01  0.10197890631E+01  0.10195032851E+01 0.  0.
     999903    2    3    3    0    0 -0.30847867987E-01  0.24583689255E-01 -0.12051678210E+00  0.12838539109E+00  0.20064026050E-01 0.  0.
         14    1    1    2    0    0  0.14742430755E-01  0.97044797594E-02 -0.16470235014E-01  0.24140936879E-01  0.00000000000E+00 0. -1.
     999901    1    3    3    0    0  0.16105437232E-01 -0.34288169014E-01  0.13698701712E+00  0.89140367203E+00  0.88000000000E+00 0.  1.
        -11    1    4    4    0    0 -0.28487046075E-01  0.25915329686E-01 -0.92013884730E-01  0.99749346919E-01  0.51100000000E-03 0. -1.
         11    1    4    4    0    0 -0.23608219124E-02 -0.13316404308E-02 -0.28502897373E-01  0.28636044175E-01  0.51100000000E-03 0.  1.
</event>
<event>
 8    1  0.1064884E+005  0.1043930E+01  0.7957747E-01            NaN
         13   -1    0    0    0    0  0.00000000000E+00  0.00000000000E+00  0.74505805969E-08  0.10566000000E+00  0.10566000000E+00 0. -1.
     999900   -1    0    0    0    0 -0.00000000000E+00 -0.00000000000E+00 -0.74505805969E-08  0.93827000000E+00  0.93827000000E+00 0. -1.
     999902    2    1    2    0    0  0.20114828092E-01 -0.14875876937E-02  0.12114896532E-01  0.10204015078E+01  0.10201302109E+01 0.  0.
     999903    2    3    3    0    0  0.11798817289E+00  0.10877891428E-01  0.58819796488E-01  0.13365834073E+00  0.19111413460E-01 0.  0.
         14    1    1    2    0    0 -0.20114828092E-01  0.14875876937E-02 -0.12114896532E-01  0.23528492181E-01  0.00000000000E+00 0.  1.
     999901    1    3    3    0    0 -0.97873344799E-01 -0.12365479121E-01 -0.46704899956E-01  0.88674316709E+00  0.88000000000E+00 0.  1.
        -11    1    4    4    0    0  0.72130509418E-01  0.11574373756E-02  0.43960418212E-01  0.84480350026E-01  0.51100000000E-03 0. -1.
         11    1    4    4    0    0  0.45857663472E-01  0.97204540520E-02  0.14859378277E-01  0.49177990706E-01  0.51100000000E-03 0.  1.
</event>
<event>
 8    1  0.1064884E+005  0.1043930E+01  0.7957747E-01            NaN
         13   -1    0    0    0    0  0.00000000000E+00  0.00000000000E+00  0.74505805969E-08  0.10566000000E+00  0.10566000000E+00 0.  1.
     999900   -1    0    0    0    0 -0.00000000000E+00 -0.00000000000E+00 -0.74505805969E-08  0.93827000000E+00  0.93827000000E+00 0. -1.
     999902    2    1    2    0    0  0.74806423745E-02  0.18291202620E-01  0.12113346205E-01  0.10207511031E+01  0.10204878996E+01 0.  0.
     999903    2    3    3    0    0  0.22627937180E-01 -0.90728442602E-01 -0.86042151077E-01  0.12847915735E+00  0.18972829892E-01 0.  0.
         14    1    1    2    0    0 -0.74806423745E-02 -0.18291202620E-01 -0.12113346205E-01  0.23178896865E-01  0.00000000000E+00 0. -1.
     999901    1    3    3    0    0 -0.15147294805E-01  0.10901964522E+00  0.98155497282E-01  0.89227194578E+00  0.88000000000E+00 0.  1.
        -11    1    4    4    0    0  0.13548260989E-01 -0.79466600044E-01 -0.68935725034E-01  0.10607021828E+00  0.51100000000E-03 0. -1.
         11    1    4    4    0    0  0.90796761904E-02 -0.11261842557E-01 -0.17106426043E-01  0.22408939075E-01  0.51100000000E-03 0.  1.
</event>
<event>
 8    1  0.1064884E+005  0.1043930E+01  0.7957747E-01            NaN
         13   -1    0    0    0    0  0.00000000000E+00  0.00000000000E+00  0.74505805969E-08  0.10566000000E+00  0.10566000000E+00 0.  1.
     999900   -1    0    0    0    0 -0.00000000000E+00 -0.00000000000E+00 -0.74505805969E-08  0.93827000000E+00  0.93827000000E+00 0. -1.
     999902    2    1    2    0    0  0.13936429122E-01 -0.33085081899E-02 -0.18245652451E-01  0.10207335754E+01  0.10204699690E+01 0.  0.
     999903    2    3    3    0    0  0.43026321862E-01  0.12120375081E+00 -0.18742092849E-01  0.13149245453E+00  0.19934542180E-01 0.  0.
         14    1    1    2    0    0 -0.13936429122E-01  0.33085081899E-02  0.18245652451E-01  0.23196424649E-01  0.00000000000E+00 0.  1.
     999901    1    3    3    0    0 -0.29089892740E-01 -0.12451225900E+00  0.49644039743E-03  0.88924112082E+00  0.88000000000E+00 0. -1.
        -11    1    4    4    0    0  0.41688497213E-01  0.10874613327E+00 -0.22028736644E-01  0.11852923125E+00  0.51100000000E-03 0. -1.
         11    1    4    4    0    0  0.13378246491E-02  0.12457617540E-01  0.32866437949E-02  0.12963223288E-01  0.51100000000E-03 0.  1.
</event>
<event>
 8    1  0.1064884E+005  0.1043930E+01  0.7957747E-01            NaN
         13   -1    0    0    0    0  0.00000000000E+00  0.00000000000E+00  0.74505805969E-08  0.10566000000E+00  0.10566000000E+00 0.  1.
     999900   -1    0    0    0    0 -0.00000000000E+00 -0.00000000000E+00 -0.74505805969E-08  0.93827000000E+00  0.93827000000E+00 0.  1.
     999902    2    1    2    0    0  0.33264891863E-02 -0.20599570551E-01 -0.99100063954E-02  0.10208298687E+01  0.10205684714E+01 0.  0.
     999903    2    3    3    0    0  0.99670869100E-01  0.80570396654E-01  0.45927198508E-04  0.12975370903E+00  0.20252208099E-01 0.  0.
         14    1    1    2    0    0 -0.33264891863E-02  0.20599570551E-01  0.99100063954E-02  0.23100131254E-01  0.00000000000E+00 0.  1.
     999901    1    3    3    0    0 -0.96344379914E-01 -0.10116996721E+00 -0.99559335939E-02  0.89107615972E+00  0.88000000000E+00 0. -1.
        -11    1    4    4    0    0  0.48686009128E-01  0.48511002985E-01  0.71757755203E-02  0.69104252913E-01  0.51100000000E-03 0. -1.
         11    1    4    4    0    0  0.50984859972E-01  0.32059393669E-01 -0.71298483218E-02  0.60649456114E-01  0.51100000000E-03 0.  1.
</event>
<event>
 8    1  0.1064884E+005  0.1043930E+01  0.7957747E-01            NaN
         13   -1    0    0    0    0  0.00000000000E+00  0.00000000000E+00  0.74505805969E-08  0.10566000000E+00  0.10566000000E+00 0.  1.
     999900   -1    0    0    0    0 -0.00000000000E+00 -0.00000000000E+00 -0.74505805969E-08  0.93827000000E+00  0.93827000000E+00 0.  1.
     999902    2    1    2    0    0 -0.11192995116E-01 -0.89340850831E-02  0.19922332030E-01  0.10193943050E+01  0.10190989887E+01 0.  0.
     999903    2    3    3    0    0  0.60169309980E-01 -0.25474039765E-02  0.11504351052E+00  0.13137324281E+00  0.19926978804E-01 0.  0.
         14    1    1    2    0    0  0.11192995116E-01  0.89340850831E-02 -0.19922332030E-01  0.24535695007E-01  0.00000000000E+00 0. -1.
     999901    1    3    3    0    0 -0.71362305096E-01 -0.63866811066E-02 -0.95121178485E-01  0.88802106218E+00  0.88000000000E+00 0.  1.
        -11    1    4    4    0    0  0.98866920367E-02 -0.84265033125E-03  0.38595065019E-01  0.39853442810E-01  0.51100000000E-03 0.  1.
         11    1    4    4    0    0  0.50282617943E-01 -0.17047536453E-02  0.76448445497E-01  0.91519800000E-01  0.51100000000E-03 0. -1.
</event>
<event>
 8    1  0.1064884E+005  0.1043930E+01  0.7957747E-01            NaN
         13   -1    0    0    0    0  0.00000000000E+00  0.00000000000E+00  0.74505805969E-08  0.10566000000E+00  0.10566000000E+00 0.  1.
     999900   -1    0    0    0    0 -0.00000000000E+00 -0.00000000000E+00 -0.74505805969E-08  0.93827000000E+00  0.93827000000E+00 0. -1.
     999902    2    1    2    0    0  0.22103926513E-01 -0.73101828688E-02 -0.45781542617E-02  0.10202027617E+01  0.10199268077E+01 0.  0.
     999903    2    3    3    0    0  0.82756037697E-01 -0.73841594113E-01  0.69418598711E-01  0.13252003306E+00  0.21011295040E-01 0.  0.
         14    1    1    2    0    0 -0.22103926513E-01  0.73101828688E-02  0.45781542617E-02  0.23727238299E-01  0.00000000000E+00 0.  1.
     999901    1    3    3    0    0 -0.60652111184E-01  0.66531411244E-01 -0.73996752973E-01  0.88768272864E+00  0.88000000000E+00 0. -1.
        -11    1    4    4    0    0  0.19281456075E-01 -0.24264397838E-01  0.10498212057E-01  0.32726275807E-01  0.51100000000E-03 0.  1.
         11    1    4    4    0    0  0.63474581622E-01 -0.49577196275E-01  0.58920386654E-01  0.99793757255E-01  0.51100000000E-03 0. -1.
</event>
<event>
 8    1  0.1064884E+005  0.1043930E+01  0.7957747E-01            NaN
         13   -1    0    0    0    0  0.00000000000E+00  0.00000000000E+00  0.74505805969E-08  0.10566000000E+00  0.10566000000E+00 0. -1.
     999900   -1    0    0    0    0 -0.00000000000E+00 -0.00000000000E+00 -0.74505805969E-08  0.93827000000E+00  0.93827000000E+00 0. -1.
     999902    2    1    2    0    0 -0.67132909118E-02 -0.23362418260E-01  0.10598226503E-02  0.10195990714E+01  0.10193087228E+01 0.  0.
     999903    2    3    3    0    0  0.12058495988E+00 -0.37474210342E-01  0.24956554298E-01  0.13000644492E+00  0.18270115684E-01 0.  0.
         14    1    1    2    0    0  0.67132909118E-02  0.23362418260E-01 -0.10598226503E-02  0.24330928586E-01  0.00000000000E+00 0. -1.
     999901    1    3    3    0    0 -0.12729825080E+00  0.14111792082E-01 -0.23896731647E-01  0.88959262650E+00  0.88000000000E+00 0. -1.
        -11    1    4    4    0    0  0.53096432454E-01 -0.12060126041E-01  0.18890360522E-01  0.57634925359E-01  0.51100000000E-03 0. -1.
         11    1    4    4    0    0  0.67488527430E-01 -0.25414084301E-01  0.60661937754E-02  0.72371519560E-01  0.51100000000E-03 0.  1.
</event>
<event>
 8    1  0.1064884E+005  0.1043930E+01  0.7957747E-01            NaN
         13   -1    0    0    0    0  0.00000000000E+00  0.00000000000E+00  0.74505805969E-08  0.10566000000E+00  0.10566000000E+00 0.  1.
     999900   -1    0    0    0    0 -0.00000000000E+00 -0.00000000000E+00 -0.74505805969E-08  0.93827000000E+00  0.93827000000E+00 0. -1.
     999902    2    1    2    0    0  0.18820284722E-01  0.44940171135E-02  0.15572852521E-01  0.10190922658E+01  0.10187895431E+01 0.  0.
     999903    2    3    3    0    0 -0.80394385124E-01 -0.52407390414E-01 -0.79840810950E-01  0.12657611012E+00  0.20908487038E-01 0.  0.
         14    1    1    2    0    0 -0.18820284722E-01 -0.44940171135E-02 -0.15572852521E-01  0.24837734246E-01  0.00000000000E+00 0.  1.
     999901    1    3    3    0    0  0.99214669847E-01  0.56901407528E-01  0.95413663471E-01  0.89251615563E+00  0.88000000000E+00 0.  1.
        -11    1    4    4    0    0 -0.54455661597E-01 -0.23349191825E-01 -0.47209022137E-01  0.75759862269E-01  0.51100000000E-03 0. -1.
         11    1    4    4    0    0 -0.25938723527E-01 -0.29058198589E-01 -0.32631788814E-01  0.50816247851E-01  0.51100000000E-03 0.  1.
</event>
<event>
 8    1  0.1064884E+005  0.1043930E+01  0.7957747E-01            NaN
         13   -1    0    0    0    0  0.00000000000E+00  0.00000000000E+00  0.74505805969E-08  0.10566000000E+00  0.10566000000E+00 0.  1.
     999900   -1    0    0    0    0 -0.00000000000E+00 -0.00000000000E+00 -0.74505805969E-08  0.93827000000E+00  0.93827000000E+00 0.  1.
     999902    2    1    2    0    0 -0.79496070790E-02 -0.53017108955E-02 -0.21479620521E-01  0.10204208850E+01  0.10201500400E+01 0.  0.
     999903    2    3    3    0    0  0.99374867338E-01  0.52873400223E-01 -0.64482248351E-01  0.13095356554E+00  0.17886175249E-01 0.  0.
         14    1    1    2    0    0  0.79496070790E-02  0.53017108955E-02  0.21479620521E-01  0.23509115017E-01  0.00000000000E+00 0.  1.
     999901    1    3    3    0    0 -0.10732447442E+00 -0.58175111118E-01  0.43002627830E-01  0.88946731945E+00  0.88000000000E+00 0. -1.
        -11    1    4    4    0    0  0.40287881203E-01  0.31106031326E-01 -0.31624430819E-01  0.59925489587E-01  0.51100000000E-03 0. -1.
         11    1    4    4    0    0  0.59086986135E-01  0.21767368897E-01 -0.32857817532E-01  0.71028075950E-01  0.51100000000E-03 0.  1.
</event>
<event>
 8    1  0.1064884E+005  0.1043930E+01  0.7957747E-01            NaN
         13   -1    0    0    0    0  0.00000000000E+00  0.00000000000E+00  0.74505805969E-08  0.10566000000E+00  0.10566000000E+00 0. -1.
     999900   -1    0    0    0    0 -0.00000000000E+00 -0.00000000000E+00 -0.74505805969E-08  0.93827000000E+00  0.93827000000E+00 0. -1.
     999902    2    1    2    0    0  0.36097608007E-02  0.11536846846E-02  0.23001335521E-01  0.10206185694E+01  0.10203523124E+01 0.  0.
     999903    2    3    3    0    0  0.29809990485E-01 -0.24512125070E-01 -0.12069756915E+00  0.12820915604E+00  0.19498838041E-01 0.  0.
         14    1    1    2    0    0 -0.36097608007E-02 -0.11536846846E-02 -0.23001335521E-01  0.23311430611E-01  0.00000000000E+00 0.  1.
     999901    1    3    3    0    0 -0.26200229685E-01  0.25665809755E-01  0.14369890468E+00  0.89240941335E+00  0.88000000000E+00 0.  1.
        -11    1    4    4    0    0  0.21611875932E-01 -0.58618077475E-02 -0.53798819937E-01  0.58275278798E-01  0.51100000000E-03 0.  1.
         11    1    4    4    0    0  0.81981145529E-02 -0.18650317323E-01 -0.66898749217E-01  0.69933877243E-01  0.51100000000E-03 0. -1.
</event>
<event>
 8    1  0.1064884E+005  0.1043930E+01  0.7957747E-01            NaN
         13   -1    0    0    0    0  0.00000000000E+00  0.00000000000E+00  0.74505805969E-08  0.10566000000E+00  0.10566000000E+00 0.  1.
     999900   -1    0    0    0    0 -0.00000000000E+00 -0.00000000000E+00 -0.74505805969E-08  0.93827000000E+00  0.93827000000E+00 0.  1.
     999902    2    1    2    0    0  0.23202646610E-01  0.38197597572E-02  0.55029023621E-02  0.10197797348E+01  0.10194937333E+01 0.  0.
     999903    2    3    3    0    0 -0.80086708673E-01  0.98206417092E-01 -0.81260359092E-02  0.12862134263E+00  0.20470370199E-01 0.  0.
         14    1    1    2    0    0 -0.23202646610E-01 -0.38197597572E-02 -0.55029023621E-02  0.24150265189E-01  0.00000000000E+00 0. -1.
     999901    1    3    3    0    0  0.10328935528E+00 -0.94386657334E-01  0.13628938271E-01  0.89115839218E+00  0.88000000000E+00 0. -1.
        -11    1    4    4    0    0 -0.26615365064E-01  0.48638466845E-01 -0.40025210097E-02  0.55591001160E-01  0.51100000000E-03 0. -1.
         11    1    4    4    0    0 -0.53471343609E-01  0.49567950247E-01 -0.41235148995E-02  0.73030341469E-01  0.51100000000E-03 0.  1.
</event>
<event>
 8    1  0.1064884E+005  0.1043930E+01  0.7957747E-01            NaN
         13   -1    0    0    0    0  0.00000000000E+00  0.00000000000E+00  0.74505805969E-08  0.10566000000E+00  0.10566000000E+00 0. -1.
     999900   -1    0    0    0    0 -0.00000000000E+00 -0.00000000000E+00 -0.74505805969E-08  0.93827000000E+00  0.93827000000E+00 0. -1.
     999902    2    1    2    0    0 -0.30626674909E-02 -0.19684349042E-01  0.10816212037E-01  0.10212618732E+01  0.10210102691E+01 0.  0.
     999903    2    3    3    0    0  0.60125757837E-01  0.81966798116E-01 -0.76803758839E-01  0.12884773610E+00  0.19216112454E-01 0.  0.
         14    1    1    2    0    0  0.30626674909E-02  0.19684349042E-01 -0.10816212037E-01  0.22668126790E-01  0.00000000000E+00 0. -1.
     999901    1    3    3    0    0 -0.63188425328E-01 -0.10165114716E+00  0.87619970876E-01  0.89241413711E+00  0.88000000000E+00 0.  1.
        -11    1    4    4    0    0  0.25444040538E-01  0.39808801138E-01 -0.24412080242E-01  0.53182239796E-01  0.51100000000E-03 0. -1.
         11    1    4    4    0    0  0.34681717299E-01  0.42157996978E-01 -0.52391678597E-01  0.75665496306E-01  0.51100000000E-03 0.  1.
</event>
<event>
 8    1  0.1064884E+005  0.1043930E+01  0.7957747E-01            NaN
         13   -1    0    0    0    0  0.00000000000E+00  0.00000000000E+00  0.74505805969E-08  0.10566000000E+00  0.10566000000E+00 0.  1.
     999900   -1    0    0    0    0 -0.00000000000E+00 -0.00000000000E+00 -0.74505805969E-08  0.93827000000E+00  0.93827000000E+00 0.  1.
     999902    2    1    2    0    0 -0.64112849247E-02  0.14540456790E-01  0.14954022979E-01  0.10221090866E+01  0.10218761337E+01 0.  0.
     999903    2    3    3    0    0  0.10267248482E+00 -0.77083138988E-01  0.12346233858E-01  0.13064907478E+00  0.20815902421E-01 0.  0.
         14    1    1    2    0    0  0.64112849247E-02 -0.14540456790E-01 -0.14954022979E-01  0.21820913393E-01  0.00000000000E+00 0. -1.
     999901    1    3    3    0    0 -0.10908376975E+00  0.91623595778E-01  0.26077891218E-02  0.89146001183E+00  0.88000000000E+00 0.  1.
        -11    1    4    4    0    0  0.49574241592E-01 -0.25086902148E-01  0.87101415163E-02  0.56241317330E-01  0.51100000000E-03 0.  1.
         11    1    4    4    0    0  0.53098243232E-01 -0.51996236840E-01  0.36360923412E-02  0.74407757448E-01  0.51100000000E-03 0. -1.
</event>
<event>
 8    1  0.1064884E+005  0.1043930E+01  0.7957747E-01            NaN
         13   -1    0    0    0    0  0.00000000000E+00  0.00000000000E+00  0.74505805969E-08  0.10566000000E+00  0.10566000000E+00 0. -1.
     999900   -1    0    0    0    0 -0.00000000000E+00 -0.00000000000E+00 -0.74505805969E-08  0.93827000000E+00  0.93827000000E+00 0. -1.
     999902    2    1    2    0    0 -0.20506989774E-01  0.40750845572E-02 -0.12757444303E-02  0.10229831514E+01  0.10227686725E+01 0.  0.
     999903    2    3    3    0    0  0.76739397742E-01  0.89760458982E-01  0.55222193913E-01  0.13169708039E+00  0.18674986511E-01 0.  0.
         14    1    1    2    0    0  0.20506989774E-01 -0.40750845572E-02  0.12757444303E-02  0.20946848632E-01  0.00000000000E+00 0. -1.
     999901    1    3    3    0    0 -0.97246387517E-01 -0.85685374425E-01 -0.56497938344E-01  0.89128607097E+00  0.88000000000E+00 0. -1.
        -11    1    4    4    0    0  0.80555801737E-02  0.11250270809E-01  0.39633642486E-03  0.13852045653E-01  0.51100000000E-03 0.  1.
         11    1    4    4    0    0  0.68683817569E-01  0.78510188173E-01  0.54825857488E-01  0.11784503474E+00  0.51100000000E-03 0. -1.
</event>
<event>
 8    1  0.1064884E+005  0.1043930E+01  0.7957747E-01            NaN
         13   -1    0    0    0    0  0.00000000000E+00  0.00000000000E+00  0.74505805969E-08  0.10566000000E+00  0.10566000000E+00 0.  1.
     999900   -1    0    0    0    0 -0.00000000000E+00 -0.00000000000E+00 -0.74505805969E-08  0.93827000000E+00  0.93827000000E+00 0.  1.
     999902    2    1    2    0    0 -0.84202937129E-02  0.17390959991E-01  0.14037934177E-01  0.10200467332E+01  0.10197670948E+01 0.  0.
     999903    2    3    3    0    0 -0.43946929479E-01 -0.12148732426E-01  0.12291515193E+00  0.13213402140E+00  0.16502749107E-01 0.  0.
         14    1    1    2    0    0  0.84202937129E-02 -0.17390959991E-01 -0.14037934177E-01  0.23883266769E-01  0.00000000000E+00 0. -1.
     999901    1    3    3    0    0  0.35526635766E-01  0.29539692417E-01 -0.10887721775E+00  0.88791271183E+00  0.88000000000E+00 0.  1.
        -11    1    4    4    0    0 -0.12263313167E-01  0.50976363151E-03  0.52070423726E-01  0.53499895858E-01  0.51100000000E-03 0. -1.
         11    1    4    4    0    0 -0.31683616312E-01 -0.12658496057E-01  0.70844728205E-01  0.78634125547E-01  0.51100000000E-03 0.  1.
</event>
<event>
 8    1  0.1064884E+005  0.1043930E+01  0.7957747E-01            NaN
         13   -1    0    0    0    0  0.00000000000E+00  0.00000000000E+00  0.74505805969E-08  0.10566000000E+00  0.10566000000E+00 0.  1.
     999900   -1    0    0    0    0 -0.00000000000E+00 -0.00000000000E+00 -0.74505805969E-08  0.93827000000E+00  0.93827000000E+00 0. -1.
     999902    2    1    2    0    0  0.21129100916E-01  0.29145369163E-01  0.81527139303E-02  0.10070198633E+01  0.10063432053E+01 0.  0.
     999903    2    3    3    0    0 -0.97952119988E-02 -0.26633212644E-01  0.11351425562E+00  0.11844312613E+00  0.18385149002E-01 0.  0.
         14    1    1    2    0    0 -0.21129100916E-01 -0.29145369163E-01 -0.81527139303E-02  0.36910136732E-01  0.00000000000E+00 0.  1.
     999901    1    3    3    0    0  0.30924312915E-01  0.55778581807E-01 -0.10536154169E+00  0.88857673714E+00  0.88000000000E+00 0. -1.
        -11    1    4    4    0    0  0.88277048847E-03 -0.20959173807E-01  0.83121629626E-01  0.85729415506E-01  0.51100000000E-03 0. -1.
         11    1    4    4    0    0 -0.10677982487E-01 -0.56740388368E-02  0.30392625996E-01  0.32713710622E-01  0.51100000000E-03 0.  1.
</event>
<event>
 8    1  0.1064884E+005  0.1043930E+01  0.7957747E-01            NaN
         13   -1    0    0    0    0  0.00000000000E+00  0.00000000000E+00  0.74505805969E-08  0.10566000000E+00  0.10566000000E+00 0.  1.
     999900   -1    0    0    0    0 -0.00000000000E+00 -0.00000000000E+00 -0.74505805969E-08  0.93827000000E+00  0.93827000000E+00 0.  1.
     999902    2    1    2    0    0  0.10954725878E-01 -0.15549126558E-01  0.12902106823E-01  0.10209464033E+01  0.10206876666E+01 0.  0.
     999903    2    3    3    0    0 -0.57583609496E-01  0.43427814737E-01  0.10775917512E+00  0.13124215672E+00  0.20263679347E-01 0.  0.
         14    1    1    2    0    0 -0.10954725878E-01  0.15549126558E-01 -0.12902106823E-01  0.22983596678E-01  0.00000000000E+00 0. -1.
     999901    1    3    3    0    0  0.68538335375E-01 -0.58976941296E-01 -0.94857068301E-01  0.88970424661E+00  0.88000000000E+00 0.  1.
        -11    1    4    4    0    0 -0.10585126357E-01  0.18891938400E-01  0.26680334977E-01  0.34366431762E-01  0.51100000000E-03 0.  1.
         11    1    4    4    0    0 -0.46998483139E-01  0.24535876337E-01  0.81078840147E-01  0.96875724955E-01  0.51100000000E-03 0. -1.
</event>
<event>
 8    1  0.1064884E+005  0.1043930E+01  0.7957747E-01            NaN
         13   -1    0    0    0    0  0.00000000000E+00  0.00000000000E+00  0.74505805969E-08  0.10566000000E+00  0.10566000000E+00 0. -1.
     999900   -1    0    0    0    0 -0.00000000000E+00 -0.00000000000E+00 -0.74505805969E-08  0.93827000000E+00  0.93827000000E+00 0.  1.
     999902    2    1    2    0    0  0.27434808009E-02  0.14824815442E-01 -0.61183019056E-03  0.10288410578E+01  0.10287304050E+01 0.  0.
     999903    2    3    3    0    0 -0.10340417478E+00 -0.85916981252E-01 -0.13398085952E-01  0.13666410076E+00  0.20577091595E-01 0.  0.
         14    1    1    2    0    0 -0.27434808009E-02 -0.14824815442E-01  0.61183019056E-03  0.15088942176E-01  0.00000000000E+00 0.  1.
     999901    1    3    3    0    0  0.10614765558E+00  0.10074179669E+00  0.12786255761E-01  0.89217695707E+00  0.88000000000E+00 0. -1.
        -11    1    4    4    0    0 -0.50239039510E-01 -0.46610449156E-01  0.27973909289E-02  0.68589952460E-01  0.51100000000E-03 0. -1.
         11    1    4    4    0    0 -0.53165135272E-01 -0.39306532096E-01 -0.16195476880E-01  0.68074148296E-01  0.51100000000E-03 0.  1.
</event>
<event>
 8    1  0.1064884E+005  0.1043930E+01  0.7957747E-01            NaN
         13   -1    0    0    0    0  0.00000000000E+00  0.00000000000E+00  0.74505805969E-08  0.10566000000E+00  0.10566000000E+00 0. -1.
     999900   -1    0    0    0    0 -0.00000000000E+00 -0.00000000000E+00 -0.74505805969E-08  0.93827000000E+00  0.93827000000E+00 0.  1.
     999902    2    1    2    0    0 -0.22879154099E-02  0.10658326148E-01 -0.22418687808E-01  0.10190014614E+01  0.10186964937E+01 0.  0.
     999903    2    3    3    0    0 -0.69624892587E-01 -0.95463608263E-01  0.44570215739E-01  0.12755115620E+00  0.17940656254E-01 0.  0.
         14    1    1    2    0    0  0.22879154099E-02 -0.10658326148E-01  0.22418687808E-01  0.24928538590E-01  0.00000000000E+00 0. -1.
     999901    1    3    3    0    0  0.67336977177E-01  0.10612193441E+00 -0.66988903547E-01  0.89145030521E+00  0.88000000000E+00 0.  1.
        -11    1    4    4    0    0 -0.42932250400E-01 -0.72092536721E-01  0.28700422772E-01  0.88681944969E-01  0.51100000000E-03 0. -1.
         11    1    4    4    0    0 -0.26692642187E-01 -0.23371071542E-01  0.15869792967E-01  0.38869211231E-01  0.51100000000E-03 0.  1.
</event>
<event>
 8    1  0.1064884E+005  0.1043930E+01  0.7957747E-01            NaN
         13   -1    0    0    0    0  0.00000000000E+00  0.00000000000E+00  0.74505805969E-08  0.10566000000E+00  0.10566000000E+00 0. -1.
     999900   -1    0    0    0    0 -0.00000000000E+00 -0.00000000000E+00 -0.74505805969E-08  0.93827000000E+00  0.93827000000E+00 0.  1.
     999902    2    1    2    0    0  0.99335655866E-02  0.35401339748E-01  0.13670501783E-03  0.10071611372E+01  0.10064897451E+01 0.  0.
     999903    2    3    3    0    0 -0.10557889624E+00 -0.92153659093E-02 -0.45920106656E-01  0.11729878317E+00  0.20457811175E-01 0.  0.
         14    1    1    2    0    0 -0.99335655866E-02 -0.35401339748E-01 -0.13670501783E-03  0.36768862771E-01  0.00000000000E+00 0. -1.
     999901    1    3    3    0    0  0.11551246183E+00  0.44616705658E-01  0.46056811674E-01  0.88986235405E+00  0.88000000000E+00 0.  1.
        -11    1    4    4    0    0 -0.32835731772E-01 -0.83122756024E-03 -0.24573383652E-01  0.41024243142E-01  0.51100000000E-03 0.  1.
         11    1    4    4    0    0 -0.72743164471E-01 -0.83841383491E-02 -0.21346723004E-01  0.76274540033E-01  0.51100000000E-03 0. -1.
</event>
<event>
 8    1  0.1064884E+005  0.1043930E+01  0.7957747E-01            NaN
         13   -1    0    0    0    0  0.00000000000E+00  0.00000000000E+00  0.74505805969E-08  0.10566000000E+00  0.10566000000E+00 0.  1.
     999900   -1    0    0    0    0 -0.00000000000E+00 -0.00000000000E+00 -0.74505805969E-08  0.93827000000E+00  0.93827000000E+00 0.  1.
     999902    2    1    2    0    0  0.16493032792E-01 -0.11986067452E-01  0.12253176536E-01  0.10201428968E+01  0.10198655321E+01 0.  0.
     999903    2    3    3    0    0  0.48258827937E-01 -0.52004862719E-01 -0.10780202948E+00  0.13052285306E+00  0.19532470162E-01 0.  0.
         14    1    1    2    0    0 -0.16493032792E-01  0.11986067452E-01 -0.12253176536E-01  0.23787103204E-01  0.00000000000E+00 0. -1.
     999901    1    3    3    0    0 -0.31765795146E-01  0.40018795268E-01  0.12005520602E+00  0.88962004373E+00  0.88000000000E+00 0. -1.
        -11    1    4    4    0    0  0.18127938446E-01 -0.90673135579E-02 -0.39514079280E-01  0.44412407161E-01  0.51100000000E-03 0.  1.
         11    1    4    4    0    0  0.30130889491E-01 -0.42937549161E-01 -0.68287950204E-01  0.86110445903E-01  0.51100000000E-03 0. -1.
</event>
<event>
 8    1  0.1064884E+005  0.1043930E+01  0.7957747E-01            NaN
         13   -1    0    0    0    0  0.00000000000E+00  0.00000000000E+00  0.74505805969E-08  0.10566000000E+00  0.10566000000E+00 0.  1.
     999900   -1    0    0    0    0 -0.00000000000E+00 -0.00000000000E+00 -0.74505805969E-08  0.93827000000E+00  0.93827000000E+00 0. -1.
     999902    2    1    2    0    0 -0.18913024317E-01  0.14678752715E-01 -0.32665291490E-02  0.10197672501E+01  0.10194809493E+01 0.  0.
     999903    2    3    3    0    0  0.14060176922E-01 -0.24737660250E-01  0.12441639626E+00  0.12906875170E+00  0.19226611687E-01 0.  0.
         14    1    1    2    0    0  0.18913024317E-01 -0.14678752715E-01  0.32665291490E-02  0.24162749901E-01  0.00000000000E+00 0.  1.
     999901    1    3    3    0    0 -0.32973201239E-01  0.39416412965E-01 -0.12768292541E+00  0.89069849840E+00  0.88000000000E+00 0. -1.
        -11    1    4    4    0    0 -0.38061229364E-02 -0.43232315330E-02  0.10726638327E-01  0.12186008103E-01  0.51100000000E-03 0.  1.
         11    1    4    4    0    0  0.17866299859E-01 -0.20414428717E-01  0.11368975793E+00  0.11688274360E+00  0.51100000000E-03 0. -1.
</event>
<event>
 8    1  0.1064884E+005  0.1043930E+01  0.7957747E-01            NaN
         13   -1    0    0    0    0  0.00000000000E+00  0.00000000000E+00  0.74505805969E-08  0.10566000000E+00  0.10566000000E+00 0. -1.
     999900   -1    0    0    0    0 -0.00000000000E+00 -0.00000000000E+00 -0.74505805969E-08  0.93827000000E+00  0.93827000000E+00 0. -1.
     999902    2    1    2    0    0 -0.26946690236E-01  0.10909007184E-01  0.73970738194E-02  0.10139325459E+01  0.10134887076E+01 0.  0.
     999903    2    3    3    0    0 -0.99129188076E-01  0.77440135719E-02  0.78442819106E-01  0.12811776383E+00  0.19347347753E-01 0.  0.
         14    1    1    2    0    0  0.26946690236E-01 -0.10909007184E-01 -0.73970738194E-02  0.29997454117E-01  0.00000000000E+00 0.  1.
     999901    1    3    3    0    0  0.72182497840E-01  0.31649936122E-02 -0.71045745286E-01  0.88581478205E+00  0.88000000000E+00 0.  1.
        -11    1    4    4    0    0 -0.41044214759E-01 -0.16501024162E-03  0.21270220522E-01  0.46231355114E-01  0.51100000000E-03 0.  1.
         11    1    4    4    0    0 -0.58084973317E-01  0.79090238135E-02  0.57172598583E-01  0.81886408717E-01  0.51100000000E-03 0. -1.
</event>
<event>
 8    1  0.1064884E+005  0.1043930E+01  0.7957747E-01            NaN
         13   -1    0    0    0    0  0.00000000000E+00  0.00000000000E+00  0.74505805969E-08  0.10566000000E+00  0.10566000000E+00 0.  1.
     999900   -1    0    0    0    0 -0.00000000000E+00 -0.00000000000E+00 -0.74505805969E-08  0.93827000000E+00  0.93827000000E+00 0. -1.
     999902    2    1    2    0    0  0.18738480378E-01  0.13079562796E-01  0.60275909272E-02  0.10202966028E+01  0.10200228528E+01 0.  0.
     999903    2    3    3    0    0  0.32519274865E-01  0.84781099833E-01 -0.93263361261E-01  0.13170799503E+00  0.20089879904E-01 0.  0.
         14    1    1    2    0    0 -0.18738480378E-01 -0.13079562796E-01 -0.60275909272E-02  0.23633397179E-01  0.00000000000E+00 0. -1.
     999901    1    3    3    0    0 -0.13780794487E-01 -0.71701537037E-01  0.99290952188E-01  0.88858860779E+00  0.88000000000E+00 0.  1.
        -11    1    4    4    0    0  0.71058095265E-02  0.36071830500E-01 -0.48358253380E-01  0.60749084566E-01  0.51100000000E-03 0.  1.
         11    1    4    4    0    0  0.25413465338E-01  0.48709269332E-01 -0.44905107881E-01  0.70958910464E-01  0.51100000000E-03 0. -1.
</event>
<event>
 8    1  0.1064884E+005  0.1043930E+01  0.7957747E-01            NaN
         13   -1    0    0    0    0  0.00000000000E+00  0.00000000000E+00  0.74505805969E-08  0.10566000000E+00  0.10566000000E+00 0. -1.
     999900   -1    0    0    0    0 -0.00000000000E+00 -0.00000000000E+00 -0.74505805969E-08  0.93827000000E+00  0.93827000000E+00 0. -1.
     999902    2    1    2    0    0  0.17405187743E-01 -0.11427554811E-01 -0.12581358313E-01  0.10196026461E+01  0.10193123838E+01 0.  0.
     999903    2    3    3    0    0 -0.46224921520E-01  0.98036392647E-01 -0.66567016613E-01  0.12890314692E+00  0.20903969267E-01 0.  0.
         14    1    1    2    0    0 -0.17405187743E-01  0.11427554811E-01  0.12581358313E-01  0.24327353871E-01  0.00000000000E+00 0. -1.
     999901    1    3    3    0    0  0.63630109263E-01 -0.10946394746E+00  0.53985658300E-01  0.89069949921E+00  0.88000000000E+00 0. -1.
        -11    1    4    4    0    0 -0.27490374319E-01  0.35066680106E-01 -0.29924244758E-01  0.53676012139E-01  0.51100000000E-03 0.  1.
         11    1    4    4    0    0 -0.18734547200E-01  0.62969712542E-01 -0.36642771855E-01  0.75227134776E-01  0.51100000000E-03 0. -1.
</event>
<event>
 8    1  0.1064884E+005  0.1043930E+01  0.7957747E-01            NaN
         13   -1    0    0    0    0  0.00000000000E+00  0.00000000000E+00  0.74505805969E-08  0.10566000000E+00  0.10566000000E+00 0. -1.
     999900   -1    0    0    0    0 -0.00000000000E+00 -0.00000000000E+00 -0.74505805969E-08  0.93827000000E+00  0.93827000000E+00 0.  1.
     999902    2    1    2    0    0  0.15263543462E-01  0.16200261722E-02  0.17929144198E-01  0.10203279989E+01  0.10200549843E+01 0.  0.
     999903    2    3    3    0    0  0.71303092699E-01 -0.93522464703E-01 -0.53437803358E-01  0.13056074516E+00  0.18971739915E-01 0.  0.
         14    1    1    2    0    0 -0.15263543462E-01 -0.16200261722E-02 -0.17929144198E-01  0.23602001091E-01  0.00000000000E+00 0.  1.
     999901    1    3    3    0    0 -0.56039549237E-01  0.95142490875E-01  0.71366947556E-01  0.88976725375E+00  0.88000000000E+00 0. -1.
        -11    1    4    4    0    0  0.16001834564E-01 -0.18209664752E-01 -0.31502553585E-02  0.24450681578E-01  0.51100000000E-03 0.  1.
         11    1    4    4    0    0  0.55301258134E-01 -0.75312799951E-01 -0.50287548000E-01  0.10611006358E+00  0.51100000000E-03 0. -1.
</event>
<event>
 8    1  0.1064884E+005  0.1043930E+01  0.7957747E-01            NaN
         13   -1    0    0    0    0  0.00000000000E+00  0.00000000000E+00  0.74505805969E-08  0.10566000000E+00  0.10566000000E+00 0.  1.
     999900   -1    0    0    0    0 -0.00000000000E+00 -0.00000000000E+00 -0.74505805969E-08  0.93827000000E+00  0.93827000000E+00 0. -1.
     999902    2    1    2    0    0 -0.11609496392E-01 -0.19329291107E-01 -0.40673628733E-02  0.10210183143E+01  0.10207612124E+01 0.  0.
     999903    2    3    3    0    0 -0.43363951621E-01 -0.91602657886E-01  0.83845146542E-01  0.13312170191E+00  0.20491454030E-01 0.  0.
         14    1    1    2    0    0  0.11609496392E-01  0.19329291107E-01  0.40673628733E-02  0.22911685707E-01  0.00000000000E+00 0. -1.
     999901    1    3    3    0    0  0.31754455229E-01  0.72273366779E-01 -0.87912509416E-01  0.88789661238E+00  0.88000000000E+00 0. -1.
        -11    1    4    4    0    0 -0.17806621312E-01 -0.41566281256E-01  0.50480138510E-01  0.67774161780E-01  0.51100000000E-03 0.  1.
         11    1    4    4    0    0 -0.25557330308E-01 -0.50036376631E-01  0.33365008032E-01  0.65347540128E-01  0.51100000000E-03 0. -1.
</event>
<event>
 8    1  0.1064884E+005  0.1043930E+01  0.7957747E-01            NaN
         13   -1    0    0    0    0  0.00000000000E+00  0.00000000000E+00  0.74505805969E-08  0.10566000000E+00  0.10566000000E+00 0. -1.
     999900   -1    0    0    0    0 -0.00000000000E+00 -0.00000000000E+00 -0.74505805969E-08  0.93827000000E+00  0.93827000000E+00 0.  1.
     999902    2    1    2    0    0 -0.43068524276E-02  0.12228971114E-01  0.19954084925E-01  0.10201337352E+01  0.10198561543E+01 0.  0.
     999903    2    3    3    0    0 -0.12089055759E+00 -0.44177423105E-01  0.83624408071E-02  0.13057889833E+00  0.20365329541E-01 0.  0.
         14    1    1    2    0    0  0.43068524276E-02 -0.12228971114E-01 -0.19954084925E-01  0.23796264781E-01  0.00000000000E+00 0.  1.
     999901    1    3    3    0    0  0.11658370516E+00  0.56406394219E-01  0.11591644118E-01  0.88955483689E+00  0.88000000000E+00 0. -1.
        -11    1    4    4    0    0 -0.93387033537E-01 -0.28930820655E-01 -0.97232256649E-03  0.97771861743E-01  0.51100000000E-03 0.  1.
         11    1    4    4    0    0 -0.27503524049E-01 -0.15246602451E-01  0.93347633736E-02  0.32807036588E-01  0.51100000000E-03 0. -1.
</event>
<event>
 8    1  0.1064884E+005  0.1043930E+01  0.7957747E-01            NaN
         13   -1    0    0    0    0  0.00000000000E+00  0.00000000000E+00  0.74505805969E-08  0.10566000000E+00  0.10566000000E+00 0.  1.
     999900   -1    0    0    0    0 -0.00000000000E+00 -0.00000000000E+00 -0.74505805969E-08  0.93827000000E+00  0.93827000000E+00 0. -1.
     999902    2    1    2    0    0 -0.12943259770E-01  0.17790113434E-01  0.86615777583E-02  0.10202859936E+01  0.10200119949E+01 0.  0.
     999903    2    3    3    0    0 -0.53933895063E-01  0.46408758579E-02  0.11897860364E+00  0.13235413764E+00  0.20767928655E-01 0.  0.
         14    1    1    2    0    0  0.12943259770E-01 -0.17790113434E-01 -0.86615777583E-02  0.23644006402E-01  0.00000000000E+00 0.  1.
     999901    1    3    3    0    0  0.40990635293E-01  0.13149237576E-01 -0.11031702588E+00  0.88793185596E+00  0.88000000000E+00 0. -1.
        -11    1    4    4    0    0 -0.41447111731E-01 -0.22537770849E-02  0.70453320592E-01  0.81773309126E-01  0.51100000000E-03 0. -1.
         11    1    4    4    0    0 -0.12486783333E-01  0.68946529428E-02  0.48525283047E-01  0.50580828512E-01  0.51100000000E-03 0.  1.
</event>
<event>
 8    1  0.1064884E+005  0.1043930E+01  0.7957747E-01            NaN
         13   -1    0    0    0    0  0.00000000000E+00  0.00000000000E+00  0.74505805969E-08  0.10566000000E+00  0.10566000000E+00 0.  1.
     999900   -1    0    0    0    0 -0.00000000000E+00 -0.00000000000E+00 -0.74505805969E-08  0.93827000000E+00  0.93827000000E+00 0.  1.
     999902    2    1    2    0    0  0.36659501132E-03  0.16904669623E-01  0.11900691877E-01  0.10232532325E+01  0.10230443046E+01 0.  0.
     999903    2    3    3    0    0 -0.81920866047E-01 -0.94574570642E-01  0.32775348248E-01  0.13216704221E+00  0.27175832774E-01 0.  0.
         14    1    1    2    0    0 -0.36659501132E-03 -0.16904669623E-01 -0.11900691877E-01  0.20676767497E-01  0.00000000000E+00 0. -1.
     999901    1    3    3    0    0  0.82287461059E-01  0.11147924027E+00 -0.20874656371E-01  0.89108619030E+00  0.88000000000E+00 0. -1.
        -11    1    4    4    0    0 -0.45684225627E-01 -0.71051913437E-01  0.26347116707E-01  0.88486465372E-01  0.51100000000E-03 0.  1.
         11    1    4    4    0    0 -0.36236640420E-01 -0.23522657205E-01  0.64282315415E-02  0.43680576835E-01  0.51100000000E-03 0. -1.
</event>
<event>
 7    1  0.1064884E+005  0.1043930E+01  0.7957747E-01            NaN
         13   -1    0    0    0    0  0.00000000000E+00  0.00000000000E+00  0.74505805969E-08  0.10566000000E+00  0.10566000000E+00 0.  1.
     999900   -1    0    0    0    0 -0.00000000000E+00 -0.00000000000E+00 -0.74505805969E-08  0.93827000000E+00  0.93827000000E+00 0. -1.
     999902    2    1    2    0    0  0.15641009422E-01  0.18798565533E-01  0.15430573432E-02  0.10194267703E+01  0.10191322444E+01 0.  0.
         14    1    1    2    0    0 -0.15641009422E-01 -0.18798565533E-01 -0.15430573432E-02  0.24503229743E-01  0.00000000000E+00 0.  1.
     999901    1    3    3    0    0 -0.71315724429E-01  0.53045598785E-01 -0.47074498501E-01  0.88572895206E+00  0.88000000000E+00 0. -1.
        -11    1    3    3    0    0  0.12898919920E-01 -0.43494534459E-01  0.14203371783E-02  0.45392016276E-01  0.51100000000E-03 0.  1.
         11    1    3    3    0    0  0.74057813932E-01  0.92475012066E-02  0.47197218666E-01  0.88305801925E-01  0.51100000000E-03 0. -1.
</event>
<event>
 8    1  0.1064884E+005  0.1043930E+01  0.7957747E-01            NaN
         13   -1    0    0    0    0  0.00000000000E+00  0.00000000000E+00  0.74505805969E-08  0.10566000000E+00  0.10566000000E+00 0. -1.
     999900   -1    0    0    0    0 -0.00000000000E+00 -0.00000000000E+00 -0.74505805969E-08  0.93827000000E+00  0.93827000000E+00 0. -1.
     999902    2    1    2    0    0  0.17650161250E-01  0.26623747530E-01  0.19360808414E-02  0.10119284292E+01  0.10114222883E+01 0.  0.
     999903    2    3    3    0    0  0.30904292331E-01 -0.77619994179E-01 -0.85742323058E-01  0.12135000358E+00  0.19852924810E-01 0.  0.
         14    1    1    2    0    0 -0.17650161250E-01 -0.26623747530E-01 -0.19360808414E-02  0.32001570801E-01  0.00000000000E+00 0.  1.
     999901    1    3    3    0    0 -0.13254131081E-01  0.10424374171E+00  0.87678403900E-01  0.89057842562E+00  0.88000000000E+00 0. -1.
        -11    1    4    4    0    0  0.23941040798E-01 -0.35477675822E-01 -0.37420999094E-01  0.56854473971E-01  0.51100000000E-03 0.  1.
         11    1    4    4    0    0  0.69632515325E-02 -0.42142318357E-01 -0.48321323964E-01  0.64495529605E-01  0.51100000000E-03 0. -1.
</event>
<event>
 8    1  0.1064884E+005  0.1043930E+01  0.7957747E-01            NaN
         13   -1    0    0    0    0  0.00000000000E+00  0.00000000000E+00  0.74505805969E-08  0.10566000000E+00  0.10566000000E+00 0. -1.
     999900   -1    0    0    0    0 -0.00000000000E+00 -0.00000000000E+00 -0.74505805969E-08  0.93827000000E+00  0.93827000000E+00 0. -1.
     999902    2    1    2    0    0 -0.17664395629E-01 -0.15101842364E-01 -0.64876601887E-02  0.10198014640E+01  0.10195159830E+01 0.  0.
     999903    2    3    3    0    0  0.46768135913E-01  0.10172715459E+00  0.57552682283E-01  0.12744406298E+00  0.19849570117E-01 0.  0.
         14    1    1    2    0    0  0.17664395629E-01  0.15101842364E-01  0.64876601887E-02  0.24128536019E-01  0.00000000000E+00 0. -1.
     999901    1    3    3    0    0 -0.64432531542E-01 -0.11682899696E+00 -0.64040342472E-01  0.89235740100E+00  0.88000000000E+00 0.  1.
        -11    1    4    4    0    0  0.48250810993E-03  0.14750019492E-01  0.11333140899E-01  0.18614432377E-01  0.51100000000E-03 0. -1.
         11    1    4    4    0    0  0.46285627803E-01  0.86977135099E-01  0.46219541384E-01  0.10882963061E+00  0.51100000000E-03 0.  1.
</event>
<event>
 8    1  0.1064884E+005  0.1043930E+01  0.7957747E-01            NaN
         13   -1    0    0    0    0  0.00000000000E+00  0.00000000000E+00  0.74505805969E-08  0.10566000000E+00  0.10566000000E+00 0. -1.
     999900   -1    0    0    0    0 -0.00000000000E+00 -0.00000000000E+00 -0.74505805969E-08  0.93827000000E+00  0.93827000000E+00 0. -1.
     999902    2    1    2    0    0  0.51799376560E-02  0.24521989405E-01 -0.58977626787E-02  0.10181823142E+01  0.10178567098E+01 0.  0.
     999903    2    3    3    0    0  0.87032378001E-01  0.96070313051E-01  0.83674586368E-02  0.13137766767E+00  0.19645287660E-01 0.  0.
         14    1    1    2    0    0 -0.51799376560E-02 -0.24521989405E-01  0.58977626787E-02  0.25747685782E-01  0.00000000000E+00 0. -1.
     999901    1    3    3    0    0 -0.81852440345E-01 -0.71548323645E-01 -0.14265221315E-01  0.88680464655E+00  0.88000000000E+00 0. -1.
        -11    1    4    4    0    0  0.63288573292E-01  0.70010239201E-01 -0.27206338312E-02  0.94416842098E-01  0.51100000000E-03 0.  1.
         11    1    4    4    0    0  0.23743804709E-01  0.26060073849E-01  0.11088092468E-01  0.36960825568E-01  0.51100000000E-03 0. -1.
</event>
<event>
 8    1  0.1064884E+005  0.1043930E+01  0.7957747E-01            NaN
         13   -1    0    0    0    0  0.00000000000E+00  0.00000000000E+00  0.74505805969E-08  0.10566000000E+00  0.10566000000E+00 0. -1.
     999900   -1    0    0    0    0 -0.00000000000E+00 -0.00000000000E+00 -0.74505805969E-08  0.93827000000E+00  0.93827000000E+00 0. -1.
     999902    2    1    2    0    0  0.19044897409E-01  0.59167045143E-02 -0.12586753240E-01  0.10203473397E+01  0.10200747775E+01 0.  0.
     999903    2    3    3    0    0 -0.13390179112E-01  0.50394899133E-01 -0.11988317036E+00  0.13212278188E+00  0.19118373388E-01 0.  0.
         14    1    1    2    0    0 -0.19044897409E-01 -0.59167045143E-02  0.12586753240E-01  0.23582660299E-01  0.00000000000E+00 0. -1.
     999901    1    3    3    0    0  0.32435076521E-01 -0.44478194619E-01  0.10729641712E+00  0.88822455782E+00  0.88000000000E+00 0.  1.
        -11    1    4    4    0    0  0.42335805954E-02  0.60095963809E-02 -0.11170490084E-01  0.13382056009E-01  0.51100000000E-03 0. -1.
         11    1    4    4    0    0 -0.17623759708E-01  0.44385302753E-01 -0.10871268028E+00  0.11874072587E+00  0.51100000000E-03 0.  1.
</event>
<event>
 8    1  0.1064884E+005  0.1043930E+01  0.7957747E-01            NaN
         13   -1    0    0    0    0  0.00000000000E+00  0.00000000000E+00  0.74505805969E-08  0.10566000000E+00  0.10566000000E+00 0. -1.
     999900   -1    0    0    0    0 -0.00000000000E+00 -0.00000000000E+00 -0.74505805969E-08  0.93827000000E+00  0.93827000000E+00 0.  1.
     999902    2    1    2    0    0  0.12051179747E-01 -0.91596665138E-02  0.16651226414E-01  0.10214268054E+01  0.10211788899E+01 0.  0.
     999903    2    3    3    0    0 -0.10585718877E+00 -0.57324453163E-01 -0.45007472554E-01  0.13012212960E+00  0.20353345699E-01 0.  0.
         14    1    1    2    0    0 -0.12051179747E-01  0.91596665138E-02 -0.16651226414E-01  0.22503194552E-01  0.00000000000E+00 0.  1.
     999901    1    3    3    0    0  0.11790836851E+00  0.48164786649E-01  0.61658698968E-01  0.89130467585E+00  0.88000000000E+00 0.  1.
        -11    1    4    4    0    0 -0.98450550884E-01 -0.58248057618E-01 -0.40303440582E-01  0.12128468835E+00  0.51100000000E-03 0. -1.
         11    1    4    4    0    0 -0.74066378814E-02  0.92360445474E-03 -0.47040319721E-02  0.88374412411E-02  0.51100000000E-03 0.  1.
</event>
<event>
 8    1  0.1064884E+005  0.1043930E+01  0.7957747E-01            NaN
         13   -1    0    0    0    0  0.00000000000E+00  0.00000000000E+00  0.74505805969E-08  0.10566000000E+00  0.10566000000E+00 0. -1.
     999900   -1    0    0    0    0 -0.00000000000E+00 -0.00000000000E+00 -0.74505805969E-08  0.93827000000E+00  0.93827000000E+00 0. -1.
     999902    2    1    2    0    0 -0.65599401102E-02  0.20668983130E-01  0.98661979366E-02  0.10201060301E+01  0.10198277949E+01 0.  0.
     999903    2    3    3    0    0  0.12071071294E+00  0.37177089776E-01 -0.24041915551E-01  0.13015092067E+00  0.20199906589E-01 0.  0.
         14    1    1    2    0    0  0.65599401102E-02 -0.20668983130E-01 -0.98661979366E-02  0.23823969854E-01  0.00000000000E+00 0.  1.
     999901    1    3    3    0    0 -0.12727065305E+00 -0.16508106646E-01  0.33908113487E-01  0.88995510947E+00  0.88000000000E+00 0. -1.
        -11    1    4    4    0    0  0.92008014366E-01  0.27535730976E-01 -0.26888587600E-01  0.99734389515E-01  0.51100000000E-03 0. -1.
         11    1    4    4    0    0  0.28702698575E-01  0.96413588006E-02  0.28466720487E-02  0.30416531160E-01  0.51100000000E-03 0.  1.
</event>
<event>
 8    1  0.1064884E+005  0.1043930E+01  0.7957747E-01            NaN
         13   -1    0    0    0    0  0.00000000000E+00  0.00000000000E+00  0.74505805969E-08  0.10566000000E+00  0.10566000000E+00 0.  1.
     999900   -1    0    0    0    0 -0.00000000000E+00 -0.00000000000E+00 -0.74505805969E-08  0.93827000000E+00  0.93827000000E+00 0. -1.
     999902    2    1    2    0    0 -0.90888273413E-02 -0.10173306387E-01  0.19457353161E-01  0.10201667608E+01  0.10198899589E+01 0.  0.
     999903    2    3    3    0    0  0.89437531754E-01  0.25129064068E-01  0.90603866805E-01  0.13111359748E+00  0.18739605603E-01 0.  0.
         14    1    1    2    0    0  0.90888273413E-02  0.10173306387E-01 -0.19457353161E-01  0.23763239201E-01  0.00000000000E+00 0. -1.
     999901    1    3    3    0    0 -0.98526359096E-01 -0.35302370454E-01 -0.71146513644E-01  0.88905316331E+00  0.88000000000E+00 0.  1.
        -11    1    4    4    0    0  0.33366657301E-01  0.17633251194E-01  0.42646938628E-01  0.56949871487E-01  0.51100000000E-03 0. -1.
         11    1    4    4    0    0  0.56070874454E-01  0.74958128733E-02  0.47956928177E-01  0.74163725998E-01  0.51100000000E-03 0.  1.
</event>
<event>
 8    1  0.1064884E+005  0.1043930E+01  0.7957747E-01            NaN
         13   -1    0    0    0    0  0.00000000000E+00  0.00000000000E+00  0.74505805969E-08  0.10566000000E+00  0.10566000000E+00 0. -1.
     999900   -1    0    0    0    0 -0.00000000000E+00 -0.00000000000E+00 -0.74505805969E-08  0.93827000000E+00  0.93827000000E+00 0.  1.
     999902    2    1    2    0    0  0.74283623042E-02 -0.80744807947E-02  0.21897269507E-01  0.10194377927E+01  0.10191435350E+01 0.  0.
     999903    2    3    3    0    0  0.30546898525E-01  0.11905640010E+00  0.36751548469E-01  0.12987757709E+00  0.20247698669E-01 0.  0.
         14    1    1    2    0    0 -0.74283623042E-02  0.80744807947E-02 -0.21897269507E-01  0.24492207301E-01  0.00000000000E+00 0.  1.
     999901    1    3    3    0    0 -0.23118536221E-01 -0.12713088089E+00 -0.14854278962E-01  0.88956021561E+00  0.88000000000E+00 0.  1.
        -11    1    4    4    0    0  0.71582812555E-02  0.47376023775E-01  0.23317579086E-01  0.53288828423E-01  0.51100000000E-03 0.  1.
         11    1    4    4    0    0  0.23388617270E-01  0.71680376325E-01  0.13433969383E-01  0.76588748666E-01  0.51100000000E-03 0. -1.
</event>
<event>
 8    1  0.1064884E+005  0.1043930E+01  0.7957747E-01            NaN
         13   -1    0    0    0    0  0.00000000000E+00  0.00000000000E+00  0.74505805969E-08  0.10566000000E+00  0.10566000000E+00 0.  1.
     999900   -1    0    0    0    0 -0.00000000000E+00 -0.00000000000E+00 -0.74505805969E-08  0.93827000000E+00  0.93827000000E+00 0. -1.
     999902    2    1    2    0    0 -0.29671857286E-02  0.79179459241E-02 -0.21788392182E-01  0.10205583913E+01  0.10202907419E+01 0.  0.
     999903    2    3    3    0    0  0.12589314699E+00 -0.26941142381E-01 -0.55931232383E-03  0.13023776636E+00  0.19663502849E-01 0.  0.
         14    1    1    2    0    0  0.29671857286E-02 -0.79179459241E-02  0.21788392182E-01  0.23371608688E-01  0.00000000000E+00 0.  1.
     999901    1    3    3    0    0 -0.12886033272E+00  0.34859088305E-01 -0.21229079858E-01  0.89032062495E+00  0.88000000000E+00 0. -1.
        -11    1    4    4    0    0  0.62054670182E-01 -0.80378905229E-02  0.80977502813E-02  0.63096944903E-01  0.51100000000E-03 0. -1.
         11    1    4    4    0    0  0.63838476807E-01 -0.18903251858E-01 -0.86570626051E-02  0.67140821456E-01  0.51100000000E-03 0.  1.
</event>
<event>
 8    1  0.1064884E+005  0.1043930E+01  0.7957747E-01            NaN
         13   -1    0    0    0    0  0.00000000000E+00  0.00000000000E+00  0.74505805969E-08  0.10566000000E+00  0.10566000000E+00 0.  1.
     999900   -1    0    0    0    0 -0.00000000000E+00 -0.00000000000E+00 -0.74505805969E-08  0.93827000000E+00  0.93827000000E+00 0.  1.
     999902    2    1    2    0    0 -0.12884991735E-01  0.13418323942E-01  0.17315771468E-01  0.10185152332E+01  0.10181980995E+01 0.  0.
     999903    2    3    3    0    0 -0.16675763034E-01 -0.11841829566E-01  0.12727517552E+00  0.13130414455E+00  0.24969943398E-01 0.  0.
         14    1    1    2    0    0  0.12884991735E-01 -0.13418323942E-01 -0.17315771468E-01  0.25414766789E-01  0.00000000000E+00 0. -1.
     999901    1    3    3    0    0  0.37907712991E-02  0.25260153508E-01 -0.10995940405E+00  0.88721108866E+00  0.88000000000E+00 0.  1.
        -11    1    4    4    0    0  0.64737027617E-03  0.41720423499E-02  0.41635904507E-02  0.59516075211E-02  0.51100000000E-03 0. -1.
         11    1    4    4    0    0 -0.17323133310E-01 -0.16013871916E-01  0.12311158507E+00  0.12535253703E+00  0.51100000000E-03 0.  1.
</event>
<event>
 8    1  0.1064884E+005  0.1043930E+01  0.7957747E-01            NaN
         13   -1    0    0    0    0  0.00000000000E+00  0.00000000000E+00  0.74505805969E-08  0.10566000000E+00  0.10566000000E+00 0.  1.
     999900   -1    0    0    0    0 -0.00000000000E+00 -0.00000000000E+00 -0.74505805969E-08  0.93827000000E+00  0.93827000000E+00 0.  1.
     999902    2    1    2    0    0  0.10428098947E-01 -0.19176391066E-01 -0.90447938140E-02  0.10203018914E+01  0.10200282653E+01 0.  0.
     999903    2    3    3    0    0  0.12336925125E+00 -0.36116532033E-01 -0.26772488814E-01  0.13274516450E+00  0.19497089506E-01 0.  0.
         14    1    1    2    0    0 -0.10428098947E-01  0.19176391066E-01  0.90447938140E-02  0.23628108623E-01  0.00000000000E+00 0.  1.
     999901    1    3    3    0    0 -0.11294115231E+00  0.16940140967E-01  0.17727695000E-01  0.88755672688E+00  0.88000000000E+00 0.  1.
        -11    1    4    4    0    0  0.18782531648E-01 -0.48030544528E-02  0.29010165940E-02  0.19609432564E-01  0.51100000000E-03 0. -1.
         11    1    4    4    0    0  0.10458671960E+00 -0.31313477580E-01 -0.29673505408E-01  0.11313573193E+00  0.51100000000E-03 0.  1.
</event>
<event>
 8    1  0.1064884E+005  0.1043930E+01  0.7957747E-01            NaN
         13   -1    0    0    0    0  0.00000000000E+00  0.00000000000E+00  0.74505805969E-08  0.10566000000E+00  0.10566000000E+00 0. -1.
     999900   -1    0    0    0    0 -0.00000000000E+00 -0.00000000000E+00 -0.74505805969E-08  0.93827000000E+00  0.93827000000E+00 0.  1.
     999902    2    1    2    0    0 -0.68201443889E-02  0.22942781725E-01 -0.16044606790E-02  0.10199412548E+01  0.10196591113E+01 0.  0.
     999903    2    3    3    0    0  0.55411772287E-01  0.31896874291E-01  0.11178355611E+00  0.13044149111E+00  0.20773639313E-01 0.  0.
         14    1    1    2    0    0  0.68201443889E-02 -0.22942781725E-01  0.16044606790E-02  0.23988745212E-01  0.00000000000E+00 0. -1.
     999901    1    3    3    0    0 -0.62231916676E-01 -0.89540925660E-02 -0.11338801679E+00  0.88949976367E+00  0.88000000000E+00 0.  1.
        -11    1    4    4    0    0  0.11479442211E-01  0.11318567091E-01  0.14313033254E-01  0.21564127537E-01  0.51100000000E-03 0. -1.
         11    1    4    4    0    0  0.43932330076E-01  0.20578307200E-01  0.97470522853E-01  0.10887736358E+00  0.51100000000E-03 0.  1.
</event>
<event>
 8    1  0.1064884E+005  0.1043930E+01  0.7957747E-01            NaN
         13   -1    0    0    0    0  0.00000000000E+00  0.00000000000E+00  0.74505805969E-08  0.10566000000E+00  0.10566000000E+00 0. -1.
     999900   -1    0    0    0    0 -0.00000000000E+00 -0.00000000000E+00 -0.74505805969E-08  0.93827000000E+00  0.93827000000E+00 0. -1.
     999902    2    1    2    0    0  0.50870737980E-02 -0.21541822089E-01 -0.89930237797E-02  0.10200385183E+01  0.10197586852E+01 0.  0.
     999903    2    3    3    0    0  0.48823909626E-01 -0.57894763413E-01 -0.10714172134E+00  0.13275749523E+00  0.20239226914E-01 0.  0.
         14    1    1    2    0    0 -0.50870737980E-02  0.21541822089E-01  0.89930237797E-02  0.23891481651E-01  0.00000000000E+00 0. -1.
     999901    1    3    3    0    0 -0.43736835828E-01  0.36352941324E-01  0.98148697563E-01  0.88728102312E+00  0.88000000000E+00 0.  1.
        -11    1    4    4    0    0  0.33273251885E-01 -0.46952153997E-01 -0.66900969800E-01  0.88247464197E-01  0.51100000000E-03 0. -1.
         11    1    4    4    0    0  0.15550657740E-01 -0.10942609416E-01 -0.40240751543E-01  0.44510031035E-01  0.51100000000E-03 0.  1.
</event>
<event>
 8    1  0.1064884E+005  0.1043930E+01  0.7957747E-01            NaN
         13   -1    0    0    0    0  0.00000000000E+00  0.00000000000E+00  0.74505805969E-08  0.10566000000E+00  0.10566000000E+00 0.  1.
     999900   -1    0    0    0    0 -0.00000000000E+00 -0.00000000000E+00 -0.74505805969E-08  0.93827000000E+00  0.93827000000E+00 0. -1.
     999902    2    1    2    0    0  0.13120908286E-01  0.12672536575E-01 -0.14111225424E-01  0.10208675175E+01  0.10206069812E+01 0.  0.
     999903    2    3    3    0    0  0.84767664853E-02  0.12549748485E+00  0.32559879480E-01  0.13242549402E+00  0.25590846788E-01 0.  0.
         14    1    1    2    0    0 -0.13120908286E-01 -0.12672536575E-01  0.14111225424E-01  0.23062482531E-01  0.00000000000E+00 0.  1.
     999901    1    3    3    0    0  0.46441418009E-02 -0.11282494828E+00 -0.46671104905E-01  0.88844202345E+00  0.88000000000E+00 0. -1.
        -11    1    4    4    0    0  0.15579549267E-01  0.57451143818E-01  0.98548450372E-02  0.60338506553E-01  0.51100000000E-03 0.  1.
         11    1    4    4    0    0 -0.71027827820E-02  0.68046341033E-01  0.22705034443E-01  0.72086987462E-01  0.51100000000E-03 0. -1.
</event>
<event>
 8    1  0.1064884E+005  0.1043930E+01  0.7957747E-01            NaN
         13   -1    0    0    0    0  0.00000000000E+00  0.00000000000E+00  0.74505805969E-08  0.10566000000E+00  0.10566000000E+00 0. -1.
     999900   -1    0    0    0    0 -0.00000000000E+00 -0.00000000000E+00 -0.74505805969E-08  0.93827000000E+00  0.93827000000E+00 0.  1.
     999902    2    1    2    0    0 -0.14435137854E-01  0.41413603470E-02 -0.21088011828E-01  0.10180412319E+01  0.10177120032E+01 0.  0.
     999903    2    3    3    0    0 -0.48395255908E-01 -0.10512392662E+00 -0.55252474131E-01  0.12997625510E+00  0.21162472683E-01 0.  0.
         14    1    1    2    0    0  0.14435137854E-01 -0.41413603470E-02  0.21088011828E-01  0.25888768090E-01  0.00000000000E+00 0. -1.
     999901    1    3    3    0    0  0.33960118054E-01  0.10926528696E+00  0.34164462304E-01  0.88806497681E+00  0.88000000000E+00 0.  1.
        -11    1    4    4    0    0 -0.10897543039E-01 -0.46914478901E-01 -0.26750666784E-01  0.55096134793E-01  0.51100000000E-03 0. -1.
         11    1    4    4    0    0 -0.37497712869E-01 -0.58209447717E-01 -0.28501807347E-01  0.74880120305E-01  0.51100000000E-03 0.  1.
</event>
<event>
 8    1  0.1064884E+005  0.1043930E+01  0.7957747E-01            NaN
         13   -1    0    0    0    0  0.00000000000E+00  0.00000000000E+00  0.74505805969E-08  0.10566000000E+00  0.10566000000E+00 0.  1.
     999900   -1    0    0    0    0 -0.00000000000E+00 -0.00000000000E+00 -0.74505805969E-08  0.93827000000E+00  0.93827000000E+00 0.  1.
     999902    2    1    2    0    0  0.20705129533E-01  0.19951758442E-02  0.13305256245E-01  0.10192376336E+01  0.10189384872E+01 0.  0.
     999903    2    3    3    0    0  0.16903454457E-01  0.12603810157E+00  0.21440879613E-01  0.13049285102E+00  0.19933465064E-01 0.  0.
         14    1    1    2    0    0 -0.20705129533E-01 -0.19951758442E-02 -0.13305256245E-01  0.24692366419E-01  0.00000000000E+00 0.  1.
     999901    1    3    3    0    0  0.38016750760E-02 -0.12404292573E+00 -0.81356233678E-02  0.88874478256E+00  0.88000000000E+00 0.  1.
        -11    1    4    4    0    0  0.16402717854E-01  0.10505179540E+00  0.10577437091E-01  0.10685070035E+00  0.51100000000E-03 0.  1.
         11    1    4    4    0    0  0.50073660295E-03  0.20986306174E-01  0.10863442522E-01  0.23642150672E-01  0.51100000000E-03 0. -1.
</event>
<event>
 8    1  0.1064884E+005  0.1043930E+01  0.7957747E-01            NaN
         13   -1    0    0    0    0  0.00000000000E+00  0.00000000000E+00  0.74505805969E-08  0.10566000000E+00  0.10566000000E+00 0.  1.
     999900   -1    0    0    0    0 -0.00000000000E+00 -0.00000000000E+00 -0.74505805969E-08  0.93827000000E+00  0.93827000000E+00 0.  1.
     999902    2    1    2    0    0  0.15182871877E-01  0.21011411699E-02  0.17393241436E-01  0.10207468328E+01  0.10204835312E+01 0.  0.
     999903    2    3    3    0    0  0.18064570490E-01 -0.22982539384E-01  0.12952621492E+00  0.13327215772E+00  0.11397449179E-01 0.  0.
         14    1    1    2    0    0 -0.15182871877E-01 -0.21011411699E-02 -0.17393241436E-01  0.23183167176E-01  0.00000000000E+00 0. -1.
     999901    1    3    3    0    0 -0.28816986135E-02  0.25083680553E-01 -0.11213297348E+00  0.88747467511E+00  0.88000000000E+00 0.  1.
        -11    1    4    4    0    0  0.11363614895E-01 -0.19781479395E-01  0.80039838084E-01  0.83229054254E-01  0.51100000000E-03 0. -1.
         11    1    4    4    0    0  0.67009555951E-02 -0.32010599888E-02  0.49486376834E-01  0.50043103462E-01  0.51100000000E-03 0.  1.
</event>
<event>
 8    1  0.1064884E+005  0.1043930E+01  0.7957747E-01            NaN
         13   -1    0    0    0    0  0.00000000000E+00  0.00000000000E+00  0.74505805969E-08  0.10566000000E+00  0.10566000000E+00 0.  1.
     999900   -1    0    0    0    0 -0.00000000000E+00 -0.00000000000E+00 -0.74505805969E-08  0.93827000000E+00  0.93827000000E+00 0.  1.
     999902    2    1    2    0    0  0.18092996019E-02  0.77607394194E-02  0.22547769198E-01  0.10200154743E+01  0.10197350947E+01 0.  0.
     999903    2    3    3    0    0  0.14639681086E-01  0.33208946300E-01  0.12682895235E+00  0.13340011520E+00  0.19820524833E-01 0.  0.
         14    1    1    2    0    0 -0.18092996019E-02 -0.77607394194E-02 -0.22547769198E-01  0.23914525653E-01  0.00000000000E+00 0. -1.
     999901    1    3    3    0    0 -0.12830381484E-01 -0.25448206880E-01 -0.10428118315E+00  0.88661535915E+00  0.88000000000E+00 0.  1.
        -11    1    4    4    0    0  0.88460426438E-03  0.25498821859E-01  0.74958976316E-01  0.79183847420E-01  0.51100000000E-03 0. -1.
         11    1    4    4    0    0  0.13755076822E-01  0.77101244405E-02  0.51869976031E-01  0.54216267777E-01  0.51100000000E-03 0.  1.
</event>
<event>
 8    1  0.1064884E+005  0.1043930E+01  0.7957747E-01            NaN
         13   -1    0    0    0    0  0.00000000000E+00  0.00000000000E+00  0.74505805969E-08  0.10566000000E+00  0.10566000000E+00 0. -1.
     999900   -1    0    0    0    0 -0.00000000000E+00 -0.00000000000E+00 -0.74505805969E-08  0.93827000000E+00  0.93827000000E+00 0. -1.
     999902    2    1    2    0    0  0.16703672625E-01  0.89987895884E-02 -0.13240575369E-01  0.10207933682E+01  0.10205311347E+01 0.  0.
     999903    2    3    3    0    0 -0.68562518314E-01  0.22248134706E-01 -0.10834838021E+00  0.13147263700E+00  0.18705196377E-01 0.  0.
         14    1    1    2    0    0 -0.16703672625E-01 -0.89987895884E-02  0.13240575369E-01  0.23136631763E-01  0.00000000000E+00 0.  1.
     999901    1    3    3    0    0  0.85266190939E-01 -0.13249345117E-01  0.95107804837E-01  0.88932073123E+00  0.88000000000E+00 0.  1.
        -11    1    4    4    0    0 -0.14300985760E-01 -0.25923549911E-02 -0.17193117595E-01  0.22518945618E-01  0.51100000000E-03 0. -1.
         11    1    4    4    0    0 -0.54261532554E-01  0.24840489697E-01 -0.91155262612E-01  0.10895369138E+00  0.51100000000E-03 0.  1.
</event>
<event>
 8    1  0.1064884E+005  0.1043930E+01  0.7957747E-01            NaN
         13   -1    0    0    0    0  0.00000000000E+00  0.00000000000E+00  0.74505805969E-08  0.10566000000E+00  0.10566000000E+00 0.  1.
     999900   -1    0    0    0    0 -0.00000000000E+00 -0.00000000000E+00 -0.74505805969E-08  0.93827000000E+00  0.93827000000E+00 0.  1.
     999902    2    1    2    0    0  0.10680218131E-01  0.15484865102E-01  0.15777069656E-01  0.10193787468E+01  0.10190830513E+01 0.  0.
     999903    2    3    3    0    0  0.12036301444E+00  0.11194404791E-01 -0.45275698178E-01  0.13046021043E+00  0.18905229844E-01 0.  0.
         14    1    1    2    0    0 -0.10680218131E-01 -0.15484865102E-01 -0.15777069656E-01  0.24551253196E-01  0.00000000000E+00 0. -1.
     999901    1    3    3    0    0 -0.10968279631E+00  0.42904603109E-02  0.61052767834E-01  0.88891853638E+00  0.88000000000E+00 0. -1.
        -11    1    4    4    0    0  0.66500745304E-01  0.12441278223E-01 -0.32644455889E-01  0.75120277896E-01  0.51100000000E-03 0. -1.
         11    1    4    4    0    0  0.53862269135E-01 -0.12468734321E-02 -0.12631242289E-01  0.55339932531E-01  0.51100000000E-03 0.  1.
</event>
<event>
 8    1  0.1064884E+005  0.1043930E+01  0.7957747E-01            NaN
         13   -1    0    0    0    0  0.00000000000E+00  0.00000000000E+00  0.74505805969E-08  0.10566000000E+00  0.10566000000E+00 0.  1.
     999900   -1    0    0    0    0 -0.00000000000E+00 -0.00000000000E+00 -0.74505805969E-08  0.93827000000E+00  0.93827000000E+00 0.  1.
     999902    2    1    2    0    0  0.16242605823E-01 -0.72847311702E-02  0.14894610445E-01  0.10207192488E+01  0.10204553130E+01 0.  0.
     999903    2    3    3    0    0  0.12615689488E+00  0.15162767410E-01  0.35437319880E-01  0.13335965760E+00  0.19583743136E-01 0.  0.
         14    1    1    2    0    0 -0.16242605823E-01  0.72847311702E-02 -0.14894610445E-01  0.23210751225E-01  0.00000000000E+00 0. -1.
     999901    1    3    3    0    0 -0.10991428906E+00 -0.22447498581E-01 -0.20542709436E-01  0.88735959117E+00  0.88000000000E+00 0.  1.
        -11    1    4    4    0    0  0.70840418241E-01  0.14249933751E-01  0.28170374781E-01  0.77558085360E-01  0.51100000000E-03 0. -1.
         11    1    4    4    0    0  0.55316476637E-01  0.91283365979E-03  0.72669450995E-02  0.55801572244E-01  0.51100000000E-03 0.  1.
</event>
<event>
 8    1  0.1064884E+005  0.1043930E+01  0.7957747E-01            NaN
         13   -1    0    0    0    0  0.00000000000E+00  0.00000000000E+00  0.74505805969E-08  0.10566000000E+00  0.10566000000E+00 0.  1.
     999900   -1    0    0    0    0 -0.00000000000E+00 -0.00000000000E+00 -0.74505805969E-08  0.93827000000E+00  0.93827000000E+00 0. -1.
     999902    2    1    2    0    0 -0.19379714264E-01  0.13347720824E-01 -0.27063430269E-02  0.10202433103E+01  0.10199683098E+01 0.  0.
     999903    2    3    3    0    0  0.20384037073E-01  0.75499089580E-01  0.10297880109E+00  0.13085402644E+00  0.20062932654E-01 0.  0.
         14    1    1    2    0    0  0.19379714264E-01 -0.13347720824E-01  0.27063430269E-02  0.23686689696E-01  0.00000000000E+00 0.  1.
     999901    1    3    3    0    0 -0.39763751338E-01 -0.62151368756E-01 -0.10568514412E+00  0.88938928386E+00  0.88000000000E+00 0. -1.
        -11    1    4    4    0    0  0.27190820850E-02  0.15411598532E-01  0.35433639602E-01  0.38739059270E-01  0.51100000000E-03 0. -1.
         11    1    4    4    0    0  0.17664954988E-01  0.60087491049E-01  0.67545161492E-01  0.92114967173E-01  0.51100000000E-03 0.  1.
</event>
<event>
 8    1  0.1064884E+005  0.1043930E+01  0.7957747E-01            NaN
         13   -1    0    0    0    0  0.00000000000E+00  0.00000000000E+00  0.74505805969E-08  0.10566000000E+00  0.10566000000E+00 0.  1.
     999900   -1    0    0    0    0 -0.00000000000E+00 -0.00000000000E+00 -0.74505805969E-08  0.93827000000E+00  0.93827000000E+00 0.  1.
     999902    2    1    2    0    0  0.74638320560E-03  0.13427312463E-01 -0.19268663102E-01  0.10204325281E+01  0.10201619544E+01 0.  0.
     999903    2    3    3    0    0 -0.76081634826E-01  0.42010561242E-01  0.93728471837E-01  0.12942865663E+00  0.20333428427E-01 0.  0.
         14    1    1    2    0    0 -0.74638320560E-03 -0.13427312463E-01  0.19268663102E-01  0.23497471898E-01  0.00000000000E+00 0.  1.
     999901    1    3    3    0    0  0.76828018032E-01 -0.28583248779E-01 -0.11299713494E+00  0.89100387147E+00  0.88000000000E+00 0.  1.
        -11    1    4    4    0    0 -0.60293207530E-01  0.41942390619E-01  0.76347193843E-01  0.10594144672E+00  0.51100000000E-03 0.  1.
         11    1    4    4    0    0 -0.15788427296E-01  0.68170623539E-04  0.17381277994E-01  0.23487209912E-01  0.51100000000E-03 0. -1.
</event>
<event>
 8    1  0.1064884E+005  0.1043930E+01  0.7957747E-01            NaN
         13   -1    0    0    0    0  0.00000000000E+00  0.00000000000E+00  0.74505805969E-08  0.10566000000E+00  0.10566000000E+00 0.  1.
     999900   -1    0    0    0    0 -0.00000000000E+00 -0.00000000000E+00 -0.74505805969E-08  0.93827000000E+00  0.93827000000E+00 0. -1.
     999902    2    1    2    0    0 -0.17037185668E-01  0.15037031980E-01  0.56045075594E-02  0.10205251174E+01  0.10202566964E+01 0.  0.
     999903    2    3    3    0    0  0.75513727065E-01  0.10502506648E+00 -0.65169442244E-02  0.13102500641E+00  0.19811465801E-01 0.  0.
         14    1    1    2    0    0  0.17037185668E-01 -0.15037031980E-01 -0.56045075594E-02  0.23404882636E-01  0.00000000000E+00 0. -1.
     999901    1    3    3    0    0 -0.92550912733E-01 -0.89988034501E-01  0.12121451784E-01  0.88950011096E+00  0.88000000000E+00 0.  1.
        -11    1    4    4    0    0  0.13937168466E-01  0.13389446841E-01 -0.71671555613E-02  0.20619194732E-01  0.51100000000E-03 0. -1.
         11    1    4    4    0    0  0.61576558599E-01  0.91635619639E-01  0.65021133691E-03  0.11040581167E+00  0.51100000000E-03 0.  1.
</event>
<event>
 8    1  0.1064884E+005  0.1043930E+01  0.7957747E-01            NaN
         13   -1    0    0    0    0  0.00000000000E+00  0.00000000000E+00  0.74505805969E-08  0.10566000000E+00  0.10566000000E+00 0. -1.
     999900   -1    0    0    0    0 -0.00000000000E+00 -0.00000000000E+00 -0.74505805969E-08  0.93827000000E+00  0.93827000000E+00 0. -1.
     999902    2    1    2    0    0  0.22000950443E-01  0.40451644656E-02 -0.88089703245E-02  0.10198883043E+01  0.10196048990E+01 0.  0.
     999903    2    3    3    0    0 -0.89320253223E-01 -0.59963238668E-01 -0.67521510868E-01  0.12863264595E+00  0.20334835767E-01 0.  0.
         14    1    1    2    0    0 -0.22000950443E-01 -0.40451644656E-02  0.88089703245E-02  0.24041695742E-01  0.00000000000E+00 0. -1.
     999901    1    3    3    0    0  0.11132120367E+00  0.64008403133E-01  0.58712540544E-01  0.89125565831E+00  0.88000000000E+00 0.  1.
        -11    1    4    4    0    0 -0.14908880987E-01 -0.29059386871E-02 -0.13998341705E-01  0.20662378939E-01  0.51100000000E-03 0.  1.
         11    1    4    4    0    0 -0.74411372236E-01 -0.57057299981E-01 -0.53523169163E-01  0.10797026701E+00  0.51100000000E-03 0. -1.
</event>
<event>
 8    1  0.1064884E+005  0.1043930E+01  0.7957747E-01            NaN
         13   -1    0    0    0    0  0.00000000000E+00  0.00000000000E+00  0.74505805969E-08  0.10566000000E+00  0.10566000000E+00 0. -1.
     999900   -1    0    0    0    0 -0.00000000000E+00 -0.00000000000E+00 -0.74505805969E-08  0.93827000000E+00  0.93827000000E+00 0. -1.
     999902    2    1    2    0    0 -0.11440849545E-02  0.35653655625E-02 -0.23342705144E-01  0.10202888781E+01  0.10200149470E+01 0.  0.
     999903    2    3    3    0    0  0.10400547415E+00 -0.42481259194E-01 -0.65886419122E-01  0.13181451772E+00  0.20303960724E-01 0.  0.
         14    1    1    2    0    0  0.11440849545E-02 -0.35653655625E-02  0.23342705144E-01  0.23641121916E-01  0.00000000000E+00 0. -1.
     999901    1    3    3    0    0 -0.10514955910E+00  0.46046624757E-01  0.42543713978E-01  0.88847436037E+00  0.88000000000E+00 0. -1.
        -11    1    4    4    0    0  0.67795428977E-01 -0.30373887935E-01 -0.53933277749E-01  0.91803337783E-01  0.51100000000E-03 0. -1.
         11    1    4    4    0    0  0.36210045170E-01 -0.12107371260E-01 -0.11953141374E-01  0.40011179934E-01  0.51100000000E-03 0.  1.
</event>
<event>
 8    1  0.1064884E+005  0.1043930E+01  0.7957747E-01            NaN
         13   -1    0    0    0    0  0.00000000000E+00  0.00000000000E+00  0.74505805969E-08  0.10566000000E+00  0.10566000000E+00 0.  1.
     999900   -1    0    0    0    0 -0.00000000000E+00 -0.00000000000E+00 -0.74505805969E-08  0.93827000000E+00  0.93827000000E+00 0.  1.
     999902    2    1    2    0    0  0.99670598780E-02 -0.16817526557E-01  0.13147178920E-01  0.10203711419E+01  0.10200991361E+01 0.  0.
     999903    2    3    3    0    0  0.10820483485E+00  0.60478468287E-01 -0.34723883408E-01  0.13024925705E+00  0.19829005813E-01 0.  0.
         14    1    1    2    0    0 -0.99670598780E-02  0.16817526557E-01 -0.13147178920E-01  0.23558858114E-01  0.00000000000E+00 0. -1.
     999901    1    3    3    0    0 -0.98237774977E-01 -0.77295994843E-01  0.47871062328E-01  0.89012188483E+00  0.88000000000E+00 0. -1.
        -11    1    4    4    0    0  0.53990767879E-01  0.40016568370E-01 -0.13585277566E-01  0.68564930160E-01  0.51100000000E-03 0. -1.
         11    1    4    4    0    0  0.54214066976E-01  0.20461899917E-01 -0.21138605842E-01  0.61684326893E-01  0.51100000000E-03 0.  1.
</event>
<event>
 8    1  0.1064884E+005  0.1043930E+01  0.7957747E-01            NaN
         13   -1    0    0    0    0  0.00000000000E+00  0.00000000000E+00  0.74505805969E-08  0.10566000000E+00  0.10566000000E+00 0.  1.
     999900   -1    0    0    0    0 -0.00000000000E+00 -0.00000000000E+00 -0.74505805969E-08  0.93827000000E+00  0.93827000000E+00 0. -1.
     999902    2    1    2    0    0 -0.13898033105E-01 -0.13116167347E-01  0.16400744472E-01  0.10187471966E+01  0.10184358973E+01 0.  0.
     999903    2    3    3    0    0  0.74400822166E-01 -0.92997445312E-02 -0.10022252746E+00  0.12666410599E+00  0.19423520493E-01 0.  0.
         14    1    1    2    0    0  0.13898033105E-01  0.13116167347E-01 -0.16400744472E-01  0.25182803444E-01  0.00000000000E+00 0. -1.
     999901    1    3    3    0    0 -0.88298855271E-01 -0.38164228162E-02  0.11662327193E+00  0.89208309057E+00  0.88000000000E+00 0.  1.
        -11    1    4    4    0    0  0.50658783461E-01 -0.11660877753E-01 -0.79875709673E-01  0.95303087717E-01  0.51100000000E-03 0. -1.
         11    1    4    4    0    0  0.23742038705E-01  0.23611332222E-02 -0.20346817783E-01  0.31361018269E-01  0.51100000000E-03 0.  1.
</event>
<event>
 8    1  0.1064884E+005  0.1043930E+01  0.7957747E-01            NaN
         13   -1    0    0    0    0  0.00000000000E+00  0.00000000000E+00  0.74505805969E-08  0.10566000000E+00  0.10566000000E+00 0.  1.
     999900   -1    0    0    0    0 -0.00000000000E+00 -0.00000000000E+00 -0.74505805969E-08  0.93827000000E+00  0.93827000000E+00 0. -1.
     999902    2    1    2    0    0  0.20415987312E-01 -0.97340777131E-02  0.11902665122E-01  0.10183714741E+01  0.10180506967E+01 0.  0.
     999903    2    3    3    0    0  0.11217528145E-02  0.11730672762E+00  0.49764425377E-01  0.12823376199E+00  0.14327351726E-01 0.  0.
         14    1    1    2    0    0 -0.20415987312E-01  0.97340777131E-02 -0.11902665122E-01  0.25558525855E-01  0.00000000000E+00 0. -1.
     999901    1    3    3    0    0  0.19294234498E-01 -0.12704080533E+00 -0.37861760255E-01  0.89013771215E+00  0.88000000000E+00 0. -1.
        -11    1    4    4    0    0  0.39346865899E-02  0.56003116372E-01  0.30599014527E-01  0.63940531847E-01  0.51100000000E-03 0. -1.
         11    1    4    4    0    0 -0.28129337754E-02  0.61303611249E-01  0.19165410851E-01  0.64293230146E-01  0.51100000000E-03 0.  1.
</event>
<event>
 8    1  0.1064884E+005  0.1043930E+01  0.7957747E-01            NaN
         13   -1    0    0    0    0  0.00000000000E+00  0.00000000000E+00  0.74505805969E-08  0.10566000000E+00  0.10566000000E+00 0. -1.
     999900   -1    0    0    0    0 -0.00000000000E+00 -0.00000000000E+00 -0.74505805969E-08  0.93827000000E+00  0.93827000000E+00 0.  1.
     999902    2    1    2    0    0  0.22031986561E-01 -0.11416762912E-01  0.22888204602E-02  0.10190103370E+01  0.10187055891E+01 0.  0.
     999903    2    3    3    0    0  0.57412969207E-02 -0.73282916656E-01 -0.10547949065E+00  0.13013080832E+00  0.20118547695E-01 0.  0.
         14    1    1    2    0    0 -0.22031986561E-01  0.11416762912E-01 -0.22888204602E-02  0.24919663045E-01  0.00000000000E+00 0. -1.
     999901    1    3    3    0    0  0.16290689640E-01  0.61866153744E-01  0.10776831111E+00  0.88887952864E+00  0.88000000000E+00 0. -1.
        -11    1    4    4    0    0  0.51421671343E-03 -0.43823510300E-01 -0.45937750566E-01  0.63492539105E-01  0.51100000000E-03 0. -1.
         11    1    4    4    0    0  0.52270802073E-02 -0.29459406356E-01 -0.59541740086E-01  0.66638269214E-01  0.51100000000E-03 0.  1.
</event>
<event>
 8    1  0.1064884E+005  0.1043930E+01  0.7957747E-01            NaN
         13   -1    0    0    0    0  0.00000000000E+00  0.00000000000E+00  0.74505805969E-08  0.10566000000E+00  0.10566000000E+00 0. -1.
     999900   -1    0    0    0    0 -0.00000000000E+00 -0.00000000000E+00 -0.74505805969E-08  0.93827000000E+00  0.93827000000E+00 0.  1.
     999902    2    1    2    0    0  0.57925500332E-02 -0.32056423097E-02  0.22813683041E-01  0.10201751287E+01  0.10198985240E+01 0.  0.
     999903    2    3    3    0    0 -0.10992519047E+00  0.41119583117E-01 -0.47978725187E-01  0.12867813700E+00  0.21948513742E-01 0.  0.
         14    1    1    2    0    0 -0.57925500332E-02  0.32056423097E-02 -0.22813683041E-01  0.23754871341E-01  0.00000000000E+00 0.  1.
     999901    1    3    3    0    0  0.11571774050E+00 -0.44325225427E-01  0.70792408229E-01  0.89149699166E+00  0.88000000000E+00 0. -1.
        -11    1    4    4    0    0 -0.61650745919E-01  0.33553463069E-01 -0.23484106554E-01  0.74016307243E-01  0.51100000000E-03 0.  1.
         11    1    4    4    0    0 -0.48274444551E-01  0.75661200476E-02 -0.24494618633E-01  0.54661829756E-01  0.51100000000E-03 0. -1.
</event>
<event>
 8    1  0.1064884E+005  0.1043930E+01  0.7957747E-01            NaN
         13   -1    0    0    0    0  0.00000000000E+00  0.00000000000E+00  0.74505805969E-08  0.10566000000E+00  0.10566000000E+00 0.  1.
     999900   -1    0    0    0    0 -0.00000000000E+00 -0.00000000000E+00 -0.74505805969E-08  0.93827000000E+00  0.93827000000E+00 0. -1.
     999902    2    1    2    0    0 -0.14092546491E-02 -0.18976989091E-01 -0.13973112157E-01  0.10203215274E+01  0.10200483613E+01 0.  0.
     999903    2    3    3    0    0 -0.31025488798E-01 -0.10422105748E+00  0.71710509531E-01  0.13156658058E+00  0.18513729294E-01 0.  0.
         14    1    1    2    0    0  0.14092546491E-02  0.18976989091E-01  0.13973112157E-01  0.23608472568E-01  0.00000000000E+00 0. -1.
     999901    1    3    3    0    0  0.29616234149E-01  0.85244068388E-01 -0.85683621689E-01  0.88875494685E+00  0.88000000000E+00 0.  1.
        -11    1    4    4    0    0 -0.23424141664E-01 -0.49125891040E-01  0.39976451910E-01  0.67530892276E-01  0.51100000000E-03 0. -1.
         11    1    4    4    0    0 -0.76013471336E-02 -0.55095166438E-01  0.31734057621E-01  0.64035688309E-01  0.51100000000E-03 0.  1.
</event>
<event>
 8    1  0.1064884E+005  0.1043930E+01  0.7957747E-01            NaN
         13   -1    0    0    0    0  0.00000000000E+00  0.00000000000E+00  0.74505805969E-08  0.10566000000E+00  0.10566000000E+00 0.  1.
     999900   -1    0    0    0    0 -0.00000000000E+00 -0.00000000000E+00 -0.74505805969E-08  0.93827000000E+00  0.93827000000E+00 0. -1.
     999902    2    1    2    0    0  0.21366390691E-01 -0.67822565088E-02  0.72492870343E-02  0.10203699954E+01  0.10200979628E+01 0.  0.
     999903    2    3    3    0    0  0.89713052648E-01  0.14406463537E-01 -0.93354683465E-01  0.13175231217E+00  0.19687479023E-01 0.  0.
         14    1    1    2    0    0 -0.21366390691E-01  0.67822565088E-02 -0.72492870343E-02  0.23560004606E-01  0.00000000000E+00 0. -1.
     999901    1    3    3    0    0 -0.68346661957E-01 -0.21188720046E-01  0.10060397050E+00  0.88861768322E+00  0.88000000000E+00 0.  1.
        -11    1    4    4    0    0  0.34089098148E-01 -0.17583316028E-02 -0.43714755718E-01  0.55465298440E-01  0.51100000000E-03 0. -1.
         11    1    4    4    0    0  0.55623954499E-01  0.16164795140E-01 -0.49639927747E-01  0.76287013730E-01  0.51100000000E-03 0.  1.
</event>
<event>
 8    1  0.1064884E+005  0.1043930E+01  0.7957747E-01            NaN
         13   -1    0    0    0    0  0.00000000000E+00  0.00000000000E+00  0.74505805969E-08  0.10566000000E+00  0.10566000000E+00 0. -1.
     999900   -1    0    0    0    0 -0.00000000000E+00 -0.00000000000E+00 -0.74505805969E-08  0.93827000000E+00  0.93827000000E+00 0.  1.
     999902    2    1    2    0    0  0.91213441315E-02 -0.20060986051E-01 -0.78404876859E-02  0.10205395035E+01  0.10202714163E+01 0.  0.
     999903    2    3    3    0    0 -0.19623831049E-01 -0.92921481030E-01  0.89257414211E-01  0.13174091023E+00  0.19216790930E-01 0.  0.
         14    1    1    2    0    0 -0.91213441315E-02  0.20060986051E-01  0.78404876859E-02  0.23390496516E-01  0.00000000000E+00 0.  1.
     999901    1    3    3    0    0  0.28745175180E-01  0.72860494980E-01 -0.97097901897E-01  0.88879859326E+00  0.88000000000E+00 0.  1.
        -11    1    4    4    0    0 -0.22084947947E-01 -0.62558924867E-01  0.58583610604E-01  0.88507991497E-01  0.51100000000E-03 0.  1.
         11    1    4    4    0    0  0.24611168984E-02 -0.30362556163E-01  0.30673803607E-01  0.43232918729E-01  0.51100000000E-03 0. -1.
</event>
<event>
 8    1  0.1064884E+005  0.1043930E+01  0.7957747E-01            NaN
         13   -1    0    0    0    0  0.00000000000E+00  0.00000000000E+00  0.74505805969E-08  0.10566000000E+00  0.10566000000E+00 0. -1.
     999900   -1    0    0    0    0 -0.00000000000E+00 -0.00000000000E+00 -0.74505805969E-08  0.93827000000E+00  0.93827000000E+00 0. -1.
     999902    2    1    2    0    0 -0.20287774137E-01 -0.10004078943E-01  0.58635830843E-02  0.10205621378E+01  0.10202945752E+01 0.  0.
     999903    2    3    3    0    0 -0.55840384055E-01 -0.11073225398E+00  0.44515239665E-01  0.13326055221E+00  0.19924548928E-01 0.  0.
         14    1    1    2    0    0  0.20287774137E-01  0.10004078943E-01 -0.58635830843E-02  0.23367862152E-01  0.00000000000E+00 0. -1.
     999901    1    3    3    0    0  0.35552609917E-01  0.10072817504E+00 -0.38651656581E-01  0.88730158564E+00  0.88000000000E+00 0. -1.
        -11    1    4    4    0    0 -0.33723792400E-01 -0.45261132734E-01  0.18104880609E-01  0.59278260206E-01  0.51100000000E-03 0. -1.
         11    1    4    4    0    0 -0.22116591654E-01 -0.65471121248E-01  0.26410359056E-01  0.73982292005E-01  0.51100000000E-03 0.  1.
</event>
<event>
 8    1  0.1064884E+005  0.1043930E+01  0.7957747E-01            NaN
         13   -1    0    0    0    0  0.00000000000E+00  0.00000000000E+00  0.74505805969E-08  0.10566000000E+00  0.10566000000E+00 0.  1.
     999900   -1    0    0    0    0 -0.00000000000E+00 -0.00000000000E+00 -0.74505805969E-08  0.93827000000E+00  0.93827000000E+00 0.  1.
     999902    2    1    2    0    0 -0.16923737411E-01 -0.50248554790E-02 -0.19938354908E-01  0.10172991897E+01  0.10169505599E+01 0.  0.
     999903    2    3    3    0    0  0.61917763229E-02  0.21266118221E-01 -0.12669714213E+00  0.13015603276E+00  0.19945955982E-01 0.  0.
         14    1    1    2    0    0  0.16923737411E-01  0.50248554790E-02  0.19938354908E-01  0.26630810295E-01  0.00000000000E+00 0.  1.
     999901    1    3    3    0    0 -0.23115513734E-01 -0.26290973700E-01  0.10675878722E+00  0.88714315695E+00  0.88000000000E+00 0. -1.
        -11    1    4    4    0    0  0.15642752115E-02 -0.12472508364E-02 -0.51071641858E-01  0.51113367279E-01  0.51100000000E-03 0. -1.
         11    1    4    4    0    0  0.46275011114E-02  0.22513369058E-01 -0.75625500274E-01  0.79042665476E-01  0.51100000000E-03 0.  1.
</event>
<event>
 8    1  0.1064884E+005  0.1043930E+01  0.7957747E-01            NaN
         13   -1    0    0    0    0  0.00000000000E+00  0.00000000000E+00  0.74505805969E-08  0.10566000000E+00  0.10566000000E+00 0. -1.
     999900   -1    0    0    0    0 -0.00000000000E+00 -0.00000000000E+00 -0.74505805969E-08  0.93827000000E+00  0.93827000000E+00 0. -1.
     999902    2    1    2    0    0  0.10714584665E-01  0.47097290917E-02 -0.21134064810E-01  0.10197715115E+01  0.10194853128E+01 0.  0.
     999903    2    3    3    0    0 -0.87885763390E-01  0.67532340295E-01 -0.65461967044E-01  0.13093312794E+00  0.23951836487E-01 0.  0.
         14    1    1    2    0    0 -0.10714584665E-01 -0.47097290917E-02  0.21134064810E-01  0.24158488530E-01  0.00000000000E+00 0. -1.
     999901    1    3    3    0    0  0.98600348055E-01 -0.62822611203E-01  0.44327902234E-01  0.88883838353E+00  0.88000000000E+00 0.  1.
        -11    1    4    4    0    0 -0.36602892958E-01  0.34796329893E-01 -0.17473359834E-01  0.53442827132E-01  0.51100000000E-03 0. -1.
         11    1    4    4    0    0 -0.51282870432E-01  0.32736010402E-01 -0.47988607210E-01  0.77490300811E-01  0.51100000000E-03 0.  1.
</event>
<event>
 8    1  0.1064884E+005  0.1043930E+01  0.7957747E-01            NaN
         13   -1    0    0    0    0  0.00000000000E+00  0.00000000000E+00  0.74505805969E-08  0.10566000000E+00  0.10566000000E+00 0. -1.
     999900   -1    0    0    0    0 -0.00000000000E+00 -0.00000000000E+00 -0.74505805969E-08  0.93827000000E+00  0.93827000000E+00 0. -1.
     999902    2    1    2    0    0 -0.62862855735E-02 -0.11185504339E-01 -0.16246395943E-01  0.10232278679E+01  0.10230184218E+01 0.  0.
     999903    2    3    3    0    0 -0.63975669626E-01 -0.34570828729E-01  0.10875963464E+00  0.13221639425E+00  0.19091576110E-01 0.  0.
         14    1    1    2    0    0  0.62862855735E-02  0.11185504339E-01  0.16246395943E-01  0.20702132131E-01  0.00000000000E+00 0. -1.
     999901    1    3    3    0    0  0.57689384053E-01  0.23385324390E-01 -0.12500603059E+00  0.89101147361E+00  0.88000000000E+00 0. -1.
        -11    1    4    4    0    0 -0.50362653949E-01 -0.27489863889E-01  0.97668895136E-01  0.11327649239E+00  0.51100000000E-03 0.  1.
         11    1    4    4    0    0 -0.13613015677E-01 -0.70809648395E-02  0.11090739509E-01  0.18939901867E-01  0.51100000000E-03 0. -1.
</event>
<event>
 8    1  0.1064884E+005  0.1043930E+01  0.7957747E-01            NaN
         13   -1    0    0    0    0  0.00000000000E+00  0.00000000000E+00  0.74505805969E-08  0.10566000000E+00  0.10566000000E+00 0.  1.
     999900   -1    0    0    0    0 -0.00000000000E+00 -0.00000000000E+00 -0.74505805969E-08  0.93827000000E+00  0.93827000000E+00 0.  1.
     999902    2    1    2    0    0  0.12662939668E-02 -0.24446450655E-01  0.44150076024E-02  0.10190558218E+01  0.10187521991E+01 0.  0.
     999903    2    3    3    0    0 -0.11593246478E+00  0.26020805623E-01  0.46624648009E-01  0.12885126846E+00  0.17645760588E-01 0.  0.
         14    1    1    2    0    0 -0.12662939668E-02  0.24446450655E-01 -0.44150076024E-02  0.24874178221E-01  0.00000000000E+00 0.  1.
     999901    1    3    3    0    0  0.11719875875E+00 -0.50467256278E-01 -0.42209640406E-01  0.89020455332E+00  0.88000000000E+00 0. -1.
        -11    1    4    4    0    0 -0.92281351915E-01  0.25493502159E-01  0.42843820836E-01  0.10488861077E+00  0.51100000000E-03 0.  1.
         11    1    4    4    0    0 -0.23651112863E-01  0.52730346425E-03  0.37808271731E-02  0.23962657693E-01  0.51100000000E-03 0. -1.
</event>
<event>
 8    1  0.1064884E+005  0.1043930E+01  0.7957747E-01            NaN
         13   -1    0    0    0    0  0.00000000000E+00  0.00000000000E+00  0.74505805969E-08  0.10566000000E+00  0.10566000000E+00 0.  1.
     999900   -1    0    0    0    0 -0.00000000000E+00 -0.00000000000E+00 -0.74505805969E-08  0.93827000000E+00  0.93827000000E+00 0.  1.
     999902    2    1    2    0    0  0.12024737314E-01 -0.21249905283E-01 -0.11083998990E-01  0.10171156789E+01  0.10167621632E+01 0.  0.
     999903    2    3    3    0    0 -0.24813761827E-02 -0.59259509420E-01  0.11153544589E+00  0.12768289022E+00  0.18571970280E-01 0.  0.
         14    1    1    2    0    0 -0.12024737314E-01  0.21249905283E-01  0.11083998990E-01  0.26814321092E-01  0.00000000000E+00 0. -1.
     999901    1    3    3    0    0  0.14506113497E-01  0.38009604137E-01 -0.12261944488E+00  0.88943278869E+00  0.88000000000E+00 0.  1.
        -11    1    4    4    0    0 -0.39695000601E-02 -0.43641919103E-01  0.96323028787E-01  0.10582419870E+00  0.51100000000E-03 0.  1.
         11    1    4    4    0    0  0.14881238774E-02 -0.15617590317E-01  0.15212417102E-01  0.21858691522E-01  0.51100000000E-03 0. -1.
</event>
<event>
 8    1  0.1064884E+005  0.1043930E+01  0.7957747E-01            NaN
         13   -1    0    0    0    0  0.00000000000E+00  0.00000000000E+00  0.74505805969E-08  0.10566000000E+00  0.10566000000E+00 0.  1.
     999900   -1    0    0    0    0 -0.00000000000E+00 -0.00000000000E+00 -0.74505805969E-08  0.93827000000E+00  0.93827000000E+00 0.  1.
     999902    2    1    2    0    0  0.16525209259E-01  0.15082202452E-01  0.81744717623E-02  0.10201103157E+01  0.10198321817E+01 0.  0.
     999903    2    3    3    0    0  0.72273830174E-01  0.10284183164E+00  0.39968472888E-01  0.13341954674E+00  0.20083519684E-01 0.  0.
         14    1    1    2    0    0 -0.16525209259E-01 -0.15082202452E-01 -0.81744717623E-02  0.23819684306E-01  0.00000000000E+00 0. -1.
     999901    1    3    3    0    0 -0.55748620915E-01 -0.87759629189E-01 -0.31794001126E-01  0.88669076896E+00  0.88000000000E+00 0. -1.
        -11    1    4    4    0    0  0.61793416343E-01  0.88992372205E-01  0.41402682458E-01  0.11598496390E+00  0.51100000000E-03 0. -1.
         11    1    4    4    0    0  0.10480413831E-01  0.13849459435E-01 -0.14342095703E-02  0.17434582840E-01  0.51100000000E-03 0.  1.
</event>
<event>
 8    1  0.1064884E+005  0.1043930E+01  0.7957747E-01            NaN
         13   -1    0    0    0    0  0.00000000000E+00  0.00000000000E+00  0.74505805969E-08  0.10566000000E+00  0.10566000000E+00 0. -1.
     999900   -1    0    0    0    0 -0.00000000000E+00 -0.00000000000E+00 -0.74505805969E-08  0.93827000000E+00  0.93827000000E+00 0.  1.
     999902    2    1    2    0    0 -0.14398607608E-01  0.14134947959E-01 -0.11811652750E-01  0.10205498418E+01  0.10202819943E+01 0.  0.
     999903    2    3    3    0    0  0.61369099385E-01 -0.88176681980E-01  0.66544692513E-01  0.12794235146E+00  0.19993888834E-01 0.  0.
         14    1    1    2    0    0  0.14398607608E-01 -0.14134947959E-01  0.11811652750E-01  0.23380158159E-01  0.00000000000E+00 0.  1.
     999901    1    3    3    0    0 -0.75767706994E-01  0.10231162994E+00 -0.78356345263E-01  0.89260749038E+00  0.88000000000E+00 0.  1.
        -11    1    4    4    0    0  0.57736898808E-02 -0.19121367158E-01  0.71097594226E-02  0.21207828198E-01  0.51100000000E-03 0. -1.
         11    1    4    4    0    0  0.55595409505E-01 -0.69055314822E-01  0.59434933090E-01  0.10673452326E+00  0.51100000000E-03 0.  1.
</event>
<event>
 8    1  0.1064884E+005  0.1043930E+01  0.7957747E-01            NaN
         13   -1    0    0    0    0  0.00000000000E+00  0.00000000000E+00  0.74505805969E-08  0.10566000000E+00  0.10566000000E+00 0.  1.
     999900   -1    0    0    0    0 -0.00000000000E+00 -0.00000000000E+00 -0.74505805969E-08  0.93827000000E+00  0.93827000000E+00 0.  1.
     999902    2    1    2    0    0 -0.16566971285E-01 -0.16059388168E-01  0.65866851870E-02  0.10199351483E+01  0.10196528595E+01 0.  0.
     999903    2    3    3    0    0  0.28001220759E-01  0.12090115164E-01 -0.12373459914E+00  0.12877727485E+00  0.18522857387E-01 0.  0.
         14    1    1    2    0    0  0.16566971285E-01  0.16059388168E-01 -0.65866851870E-02  0.23994851690E-01  0.00000000000E+00 0. -1.
     999901    1    3    3    0    0 -0.44568192044E-01 -0.28149503331E-01  0.13032128432E+00  0.89115787346E+00  0.88000000000E+00 0. -1.
        -11    1    4    4    0    0  0.63788448120E-04  0.80087687811E-03 -0.35971870512E-01  0.35984469731E-01  0.51100000000E-03 0. -1.
         11    1    4    4    0    0  0.27937432311E-01  0.11289238286E-01 -0.87762728626E-01  0.92792805120E-01  0.51100000000E-03 0.  1.
</event>
<event>
 8    1  0.1064884E+005  0.1043930E+01  0.7957747E-01            NaN
         13   -1    0    0    0    0  0.00000000000E+00  0.00000000000E+00  0.74505805969E-08  0.10566000000E+00  0.10566000000E+00 0.  1.
     999900   -1    0    0    0    0 -0.00000000000E+00 -0.00000000000E+00 -0.74505805969E-08  0.93827000000E+00  0.93827000000E+00 0.  1.
     999902    2    1    2    0    0 -0.14685764159E-01 -0.12486618726E-01  0.12647698655E-01  0.10208745972E+01  0.10206142227E+01 0.  0.
     999903    2    3    3    0    0  0.12439591973E+00 -0.21152941655E-01 -0.20980185271E-01  0.12927510500E+00  0.18710767308E-01 0.  0.
         14    1    1    2    0    0  0.14685764159E-01  0.12486618726E-01 -0.12647698655E-01  0.23055402781E-01  0.00000000000E+00 0. -1.
     999901    1    3    3    0    0 -0.13908168389E+00  0.86663229295E-02  0.33627883925E-01  0.89159949222E+00  0.88000000000E+00 0. -1.
        -11    1    4    4    0    0  0.88273603004E-01 -0.15151270641E-01 -0.23406205534E-01  0.92573762848E-01  0.51100000000E-03 0.  1.
         11    1    4    4    0    0  0.36122316724E-01 -0.60016710142E-02  0.24260202634E-02  0.36701342153E-01  0.51100000000E-03 0. -1.
</event>
<event>
 8    1  0.1064884E+005  0.1043930E+01  0.7957747E-01            NaN
         13   -1    0    0    0    0  0.00000000000E+00  0.00000000000E+00  0.74505805969E-08  0.10566000000E+00  0.10566000000E+00 0. -1.
     999900   -1    0    0    0    0 -0.00000000000E+00 -0.00000000000E+00 -0.74505805969E-08  0.93827000000E+00  0.93827000000E+00 0. -1.
     999902    2    1    2    0    0 -0.48705483235E-02 -0.12077329877E-01 -0.19506490287E-01  0.10204760600E+01  0.10202064996E+01 0.  0.
     999903    2    3    3    0    0  0.39277031161E-01  0.64927738106E-01  0.10063619816E+00  0.12788821847E+00  0.21666926186E-01 0.  0.
         14    1    1    2    0    0  0.48705483235E-02  0.12077329877E-01  0.19506490287E-01  0.23453939994E-01  0.00000000000E+00 0. -1.
     999901    1    3    3    0    0 -0.44147579485E-01 -0.77005067983E-01 -0.12014268845E+00  0.89258784154E+00  0.88000000000E+00 0.  1.
        -11    1    4    4    0    0  0.24242147879E-01  0.23877946587E-01  0.33364252963E-01  0.47657869904E-01  0.51100000000E-03 0. -1.
         11    1    4    4    0    0  0.15034883282E-01  0.41049791519E-01  0.67271945200E-01  0.80230348566E-01  0.51100000000E-03 0.  1.
</event>
<event>
 8    1  0.1064884E+005  0.1043930E+01  0.7957747E-01            NaN
         13   -1    0    0    0    0  0.00000000000E+00  0.00000000000E+00  0.74505805969E-08  0.10566000000E+00  0.10566000000E+00 0. -1.
     999900   -1    0    0    0    0 -0.00000000000E+00 -0.00000000000E+00 -0.74505805969E-08  0.93827000000E+00  0.93827000000E+00 0.  1.
     999902    2    1    2    0    0  0.30124325622E-02 -0.47173761004E-02 -0.25025256976E-01  0.10182864458E+01  0.10179635032E+01 0.  0.
     999903    2    3    3    0    0  0.17446263535E-01  0.11459396822E+00  0.48058201993E-01  0.12711602192E+00  0.20316067211E-01 0.  0.
         14    1    1    2    0    0 -0.30124325622E-02  0.47173761004E-02  0.25025256976E-01  0.25643554237E-01  0.00000000000E+00 0. -1.
     999901    1    3    3    0    0 -0.14433830973E-01 -0.11931134432E+00 -0.73083458969E-01  0.89117042384E+00  0.88000000000E+00 0.  1.
        -11    1    4    4    0    0  0.21067282564E-01  0.77592391360E-01  0.35238162456E-01  0.87786096882E-01  0.51100000000E-03 0. -1.
         11    1    4    4    0    0 -0.36210190295E-02  0.37001576856E-01  0.12820039537E-01  0.39329925037E-01  0.51100000000E-03 0.  1.
</event>
<event>
 8    1  0.1064884E+005  0.1043930E+01  0.7957747E-01            NaN
         13   -1    0    0    0    0  0.00000000000E+00  0.00000000000E+00  0.74505805969E-08  0.10566000000E+00  0.10566000000E+00 0. -1.
     999900   -1    0    0    0    0 -0.00000000000E+00 -0.00000000000E+00 -0.74505805969E-08  0.93827000000E+00  0.93827000000E+00 0. -1.
     999902    2    1    2    0    0  0.66223860618E-02 -0.21820849292E-01 -0.11889619908E-02  0.10210953971E+01  0.10208400417E+01 0.  0.
     999903    2    3    3    0    0 -0.54580339435E-01 -0.27213426100E-01  0.11463248311E+00  0.13138226315E+00  0.20027702659E-01 0.  0.
         14    1    1    2    0    0 -0.66223860618E-02  0.21820849292E-01  0.11889619908E-02  0.22834602943E-01  0.00000000000E+00 0. -1.
     999901    1    3    3    0    0  0.61202725497E-01  0.53925768077E-02 -0.11582144510E+00  0.88971313390E+00  0.88000000000E+00 0. -1.
        -11    1    4    4    0    0 -0.15496491607E-01 -0.62580588220E-02  0.52113355479E-01  0.54729950599E-01  0.51100000000E-03 0. -1.
         11    1    4    4    0    0 -0.39083847828E-01 -0.20955367278E-01  0.62519127634E-01  0.76652312555E-01  0.51100000000E-03 0.  1.
</event>
<event>
 8    1  0.1064884E+005  0.1043930E+01  0.7957747E-01            NaN
         13   -1    0    0    0    0  0.00000000000E+00  0.00000000000E+00  0.74505805969E-08  0.10566000000E+00  0.10566000000E+00 0. -1.
     999900   -1    0    0    0    0 -0.00000000000E+00 -0.00000000000E+00 -0.74505805969E-08  0.93827000000E+00  0.93827000000E+00 0. -1.
     999902    2    1    2    0    0  0.16035889925E-01 -0.71085210606E-02  0.15610562644E-01  0.10204487201E+01  0.10201785236E+01 0.  0.
     999903    2    3    3    0    0  0.12565273585E+00 -0.23025899746E-01 -0.28539663671E-01  0.13240679640E+00  0.19956082893E-01 0.  0.
         14    1    1    2    0    0 -0.16035889925E-01  0.71085210606E-02 -0.15610562644E-01  0.23481279851E-01  0.00000000000E+00 0.  1.
     999901    1    3    3    0    0 -0.10961684593E+00  0.15917378685E-01  0.44150226316E-01  0.88804192375E+00  0.88000000000E+00 0.  1.
        -11    1    4    4    0    0  0.66212773857E-01 -0.71264056631E-02 -0.23686049449E-01  0.70683853454E-01  0.51100000000E-03 0.  1.
         11    1    4    4    0    0  0.59439961993E-01 -0.15899494083E-01 -0.48536142216E-02  0.61722942945E-01  0.51100000000E-03 0. -1.
</event>
<event>
 8    1  0.1064884E+005  0.1043930E+01  0.7957747E-01            NaN
         13   -1    0    0    0    0  0.00000000000E+00  0.00000000000E+00  0.74505805969E-08  0.10566000000E+00  0.10566000000E+00 0. -1.
     999900   -1    0    0    0    0 -0.00000000000E+00 -0.00000000000E+00 -0.74505805969E-08  0.93827000000E+00  0.93827000000E+00 0. -1.
     999902    2    1    2    0    0 -0.10671196010E-01 -0.17018984262E-01  0.12182918218E-01  0.10204365169E+01  0.10201660362E+01 0.  0.
     999903    2    3    3    0    0 -0.42451783320E-01  0.38741436835E-01  0.11707332926E+00  0.13188644598E+00  0.19616762547E-01 0.  0.
         14    1    1    2    0    0  0.10671196010E-01  0.17018984262E-01 -0.12182918218E-01  0.23493483051E-01  0.00000000000E+00 0. -1.
     999901    1    3    3    0    0  0.31780587310E-01 -0.55760421097E-01 -0.10489041105E+00  0.88855007097E+00  0.88000000000E+00 0. -1.
        -11    1    4    4    0    0 -0.15386349505E-01  0.95124588410E-02  0.20086487638E-01  0.27036174488E-01  0.51100000000E-03 0.  1.
         11    1    4    4    0    0 -0.27065433815E-01  0.29228977994E-01  0.96986841626E-01  0.10485027149E+00  0.51100000000E-03 0. -1.
</event>
<event>
 8    1  0.1064884E+005  0.1043930E+01  0.7957747E-01            NaN
         13   -1    0    0    0    0  0.00000000000E+00  0.00000000000E+00  0.74505805969E-08  0.10566000000E+00  0.10566000000E+00 0.  1.
     999900   -1    0    0    0    0 -0.00000000000E+00 -0.00000000000E+00 -0.74505805969E-08  0.93827000000E+00  0.93827000000E+00 0. -1.
     999902    2    1    2    0    0 -0.10559295781E-01  0.22726709531E-01  0.46410328756E-02  0.10184439011E+01  0.10181249620E+01 0.  0.
     999903    2    3    3    0    0 -0.12487566457E+00 -0.40001010836E-02  0.30957218575E-01  0.13025749257E+00  0.19968289352E-01 0.  0.
         14    1    1    2    0    0  0.10559295781E-01 -0.22726709531E-01 -0.46410328756E-02  0.25486098950E-01  0.00000000000E+00 0.  1.
     999901    1    3    3    0    0  0.11431636878E+00  0.26726810615E-01 -0.26316185699E-01  0.88818640848E+00  0.88000000000E+00 0. -1.
        -11    1    4    4    0    0 -0.83889065135E-01 -0.12029826242E-01  0.21412655925E-01  0.87411983866E-01  0.51100000000E-03 0. -1.
         11    1    4    4    0    0 -0.40986599431E-01  0.80297251588E-02  0.95445626493E-02  0.42845508705E-01  0.51100000000E-03 0.  1.
</event>
<event>
 8    1  0.1064884E+005  0.1043930E+01  0.7957747E-01            NaN
         13   -1    0    0    0    0  0.00000000000E+00  0.00000000000E+00  0.74505805969E-08  0.10566000000E+00  0.10566000000E+00 0. -1.
     999900   -1    0    0    0    0 -0.00000000000E+00 -0.00000000000E+00 -0.74505805969E-08  0.93827000000E+00  0.93827000000E+00 0. -1.
     999902    2    1    2    0    0 -0.22618744266E-01 -0.21745109295E-02  0.65972648837E-02  0.10202686392E+01  0.10199942334E+01 0.  0.
     999903    2    3    3    0    0 -0.36093941362E-01  0.51859706884E-01 -0.11244503769E+00  0.13050892591E+00  0.19912092797E-01 0.  0.
         14    1    1    2    0    0  0.22618744266E-01  0.21745109295E-02 -0.65972648837E-02  0.23661360778E-01  0.00000000000E+00 0. -1.
     999901    1    3    3    0    0  0.13475197096E-01 -0.54034217814E-01  0.11904230257E+00  0.88975971331E+00  0.88000000000E+00 0.  1.
        -11    1    4    4    0    0 -0.26855899937E-01  0.46820571473E-01 -0.80931108158E-01  0.97280577009E-01  0.51100000000E-03 0.  1.
         11    1    4    4    0    0 -0.92380414245E-02  0.50391354117E-02 -0.31513929533E-01  0.33228348900E-01  0.51100000000E-03 0. -1.
</event>
<event>
 8    1  0.1064884E+005  0.1043930E+01  0.7957747E-01            NaN
         13   -1    0    0    0    0  0.00000000000E+00  0.00000000000E+00  0.74505805969E-08  0.10566000000E+00  0.10566000000E+00 0.  1.
     999900   -1    0    0    0    0 -0.00000000000E+00 -0.00000000000E+00 -0.74505805969E-08  0.93827000000E+00  0.93827000000E+00 0.  1.
     999902    2    1    2    0    0 -0.82710342114E-02 -0.18018350539E-01 -0.12688655870E-01  0.10203912458E+01  0.10201197094E+01 0.  0.
     999903    2    3    3    0    0 -0.81250050031E-01 -0.38868002557E-01 -0.96115011194E-01  0.13319307089E+00  0.19748582323E-01 0.  0.
         14    1    1    2    0    0  0.82710342114E-02  0.18018350539E-01  0.12688655870E-01  0.23538754234E-01  0.00000000000E+00 0.  1.
     999901    1    3    3    0    0  0.72979015819E-01  0.20849652018E-01  0.83426355324E-01  0.88719817488E+00  0.88000000000E+00 0. -1.
        -11    1    4    4    0    0 -0.17597878161E-01 -0.16918161650E-01 -0.19928450557E-01  0.31516880747E-01  0.51100000000E-03 0. -1.
         11    1    4    4    0    0 -0.63652171870E-01 -0.21949840907E-01 -0.76186560637E-01  0.10167619014E+00  0.51100000000E-03 0.  1.
</event>
<event>
 8    1  0.1064884E+005  0.1043930E+01  0.7957747E-01            NaN
         13   -1    0    0    0    0  0.00000000000E+00  0.00000000000E+00  0.74505805969E-08  0.10566000000E+00  0.10566000000E+00 0. -1.
     999900   -1    0    0    0    0 -0.00000000000E+00 -0.00000000000E+00 -0.74505805969E-08  0.93827000000E+00  0.93827000000E+00 0.  1.
     999902    2    1    2    0    0 -0.15958918684E-01 -0.43634646573E-02  0.17023141853E-01  0.10201915445E+01  0.10199153265E+01 0.  0.
     999903    2    3    3    0    0  0.26085756140E-02 -0.12493692934E+00  0.36317493090E-01  0.13156621054E+00  0.19356303128E-01 0.  0.
         14    1    1    2    0    0  0.15958918684E-01  0.43634646573E-02 -0.17023141853E-01  0.23738455467E-01  0.00000000000E+00 0.  1.
     999901    1    3    3    0    0 -0.18567494298E-01  0.12057346468E+00 -0.19294351236E-01  0.88862533400E+00  0.88000000000E+00 0. -1.
        -11    1    4    4    0    0  0.72305749315E-02 -0.87357906390E-01  0.32578817203E-01  0.93516444939E-01  0.51100000000E-03 0.  1.
         11    1    4    4    0    0 -0.46219993175E-02 -0.37579022952E-01  0.37386758862E-02  0.38049765598E-01  0.51100000000E-03 0. -1.
</event>
<event>
 8    1  0.1064884E+005  0.1043930E+01  0.7957747E-01            NaN
         13   -1    0    0    0    0  0.00000000000E+00  0.00000000000E+00  0.74505805969E-08  0.10566000000E+00  0.10566000000E+00 0. -1.
     999900   -1    0    0    0    0 -0.00000000000E+00 -0.00000000000E+00 -0.74505805969E-08  0.93827000000E+00  0.93827000000E+00 0.  1.
     999902    2    1    2    0    0 -0.61905035775E-03  0.15245388173E-01  0.18788477344E-01  0.10197264473E+01  0.10194391670E+01 0.  0.
     999903    2    3    3    0    0  0.12303577413E+00 -0.33134500525E-01 -0.97897365490E-02  0.12930640956E+00  0.19713238445E-01 0.  0.
         14    1    1    2    0    0  0.61905035775E-03 -0.15245388173E-01 -0.18788477344E-01  0.24203552730E-01  0.00000000000E+00 0.  1.
     999901    1    3    3    0    0 -0.12365482449E+00  0.48379888697E-01  0.28578213893E-01  0.89042003771E+00  0.88000000000E+00 0. -1.
        -11    1    4    4    0    0  0.30145178279E-01 -0.13327776612E-01 -0.95735151325E-02  0.34326006408E-01  0.51100000000E-03 0. -1.
         11    1    4    4    0    0  0.92890595852E-01 -0.19806723913E-01 -0.21622141654E-03  0.94980403150E-01  0.51100000000E-03 0.  1.
</event>
<event>
 8    1  0.1064884E+005  0.1043930E+01  0.7957747E-01            NaN
         13   -1    0    0    0    0  0.00000000000E+00  0.00000000000E+00  0.74505805969E-08  0.10566000000E+00  0.10566000000E+00 0.  1.
     999900   -1    0    0    0    0 -0.00000000000E+00 -0.00000000000E+00 -0.74505805969E-08  0.93827000000E+00  0.93827000000E+00 0. -1.
     999902    2    1    2    0    0 -0.60928615309E-02  0.15348069833E-01  0.60956244094E-02  0.10263276466E+01  0.10261766881E+01 0.  0.
     999903    2    3    3    0    0 -0.37904409385E-01  0.65806895152E-01  0.11302544814E+00  0.13785026654E+00  0.21462813342E-01 0.  0.
         14    1    1    2    0    0  0.60928615309E-02 -0.15348069833E-01 -0.60956244094E-02  0.17602353428E-01  0.00000000000E+00 0. -1.
     999901    1    3    3    0    0  0.31811547854E-01 -0.50458825319E-01 -0.10692982373E+00  0.88847738003E+00  0.88000000000E+00 0. -1.
        -11    1    4    4    0    0 -0.24963552460E-01  0.52239155663E-01  0.69516339394E-01  0.90470386865E-01  0.51100000000E-03 0. -1.
         11    1    4    4    0    0 -0.12940856925E-01  0.13567739490E-01  0.43509108748E-01  0.47379879673E-01  0.51100000000E-03 0.  1.
</event>
<event>
 8    1  0.1064884E+005  0.1043930E+01  0.7957747E-01            NaN
         13   -1    0    0    0    0  0.00000000000E+00  0.00000000000E+00  0.74505805969E-08  0.10566000000E+00  0.10566000000E+00 0.  1.
     999900   -1    0    0    0    0 -0.00000000000E+00 -0.00000000000E+00 -0.74505805969E-08  0.93827000000E+00  0.93827000000E+00 0. -1.
     999902    2    1    2    0    0  0.26465496189E-02  0.21668257065E-01 -0.10450017665E-01  0.10197283377E+01  0.10194411029E+01 0.  0.
     999903    2    3    3    0    0 -0.48146040703E-01  0.12175218471E+00 -0.54196362628E-02  0.13258574231E+00  0.20198289270E-01 0.  0.
         14    1    1    2    0    0 -0.26465496189E-02 -0.21668257065E-01  0.10450017665E-01  0.24201662305E-01  0.00000000000E+00 0. -1.
     999901    1    3    3    0    0  0.50792590322E-01 -0.10008392765E+00 -0.50303814024E-02  0.88714259538E+00  0.88000000000E+00 0.  1.
        -11    1    4    4    0    0 -0.17554514025E-01  0.69991105313E-01  0.54807962410E-03  0.72162852617E-01  0.51100000000E-03 0.  1.
         11    1    4    4    0    0 -0.30591526678E-01  0.51761079401E-01 -0.59677158870E-02  0.60422889695E-01  0.51100000000E-03 0. -1.
</event>
<event>
 8    1  0.1064884E+005  0.1043930E+01  0.7957747E-01            NaN
         13   -1    0    0    0    0  0.00000000000E+00  0.00000000000E+00  0.74505805969E-08  0.10566000000E+00  0.10566000000E+00 0. -1.
     999900   -1    0    0    0    0 -0.00000000000E+00 -0.00000000000E+00 -0.74505805969E-08  0.93827000000E+00  0.93827000000E+00 0.  1.
     999902    2    1    2    0    0  0.22355743121E-01 -0.58018978110E-02  0.10689485508E-02  0.10208089291E+01  0.10205470522E+01 0.  0.
     999903    2    3    3    0    0 -0.57293722414E-01 -0.25715826277E-01 -0.11179744150E+00  0.12980981355E+00  0.20200134113E-01 0.  0.
         14    1    1    2    0    0 -0.22355743121E-01  0.58018978110E-02 -0.10689485508E-02  0.23121070903E-01  0.00000000000E+00 0.  1.
     999901    1    3    3    0    0  0.79649465535E-01  0.19913928466E-01  0.11286639005E+00  0.89099911555E+00  0.88000000000E+00 0. -1.
        -11    1    4    4    0    0 -0.30744671962E-01 -0.17654743456E-01 -0.43699427276E-01  0.56274558068E-01  0.51100000000E-03 0. -1.
         11    1    4    4    0    0 -0.26549050452E-01 -0.80610828215E-02 -0.68098014224E-01  0.73535255479E-01  0.51100000000E-03 0.  1.
</event>
<event>
 8    1  0.1064884E+005  0.1043930E+01  0.7957747E-01            NaN
         13   -1    0    0    0    0  0.00000000000E+00  0.00000000000E+00  0.74505805969E-08  0.10566000000E+00  0.10566000000E+00 0. -1.
     999900   -1    0    0    0    0 -0.00000000000E+00 -0.00000000000E+00 -0.74505805969E-08  0.93827000000E+00  0.93827000000E+00 0.  1.
     999902    2    1    2    0    0  0.13628419122E-01  0.19041234954E-01  0.13302581505E-02  0.10204763857E+01  0.10202068328E+01 0.  0.
     999903    2    3    3    0    0  0.19455125572E-01 -0.26324785877E-01  0.12505254681E+00  0.13064537307E+00  0.18936150051E-01 0.  0.
         14    1    1    2    0    0 -0.13628419122E-01 -0.19041234954E-01 -0.13302581505E-02  0.23453614286E-01  0.00000000000E+00 0.  1.
     999901    1    3    3    0    0 -0.58267064497E-02  0.45366020831E-01 -0.12372228866E+00  0.88983101264E+00  0.88000000000E+00 0.  1.
        -11    1    4    4    0    0  0.61189965358E-02  0.18236335056E-04  0.90040306965E-02  0.10898446722E-01  0.51100000000E-03 0.  1.
         11    1    4    4    0    0  0.13336129036E-01 -0.26343022212E-01  0.11604851611E+00  0.11974692635E+00  0.51100000000E-03 0. -1.
</event>
<event>
 8    1  0.1064884E+005  0.1043930E+01  0.7957747E-01            NaN
         13   -1    0    0    0    0  0.00000000000E+00  0.00000000000E+00  0.74505805969E-08  0.10566000000E+00  0.10566000000E+00 0.  1.
     999900   -1    0    0    0    0 -0.00000000000E+00 -0.00000000000E+00 -0.74505805969E-08  0.93827000000E+00  0.93827000000E+00 0.  1.
     999902    2    1    2    0    0 -0.11364250079E-01  0.14978869047E-01 -0.14306960370E-01  0.10203037051E+01  0.10200301215E+01 0.  0.
     999903    2    3    3    0    0  0.37219508576E-01 -0.35609257134E-01 -0.11861553730E+00  0.13137186327E+00  0.23143244352E-01 0.  0.
         14    1    1    2    0    0  0.11364250079E-01 -0.14978869047E-01  0.14306960370E-01  0.23626294945E-01  0.00000000000E+00 0.  1.
     999901    1    3    3    0    0 -0.48583758656E-01  0.50588126180E-01  0.10430857693E+00  0.88893184178E+00  0.88000000000E+00 0. -1.
        -11    1    4    4    0    0  0.39627196515E-02 -0.18556739225E-01 -0.43921788507E-01  0.47848096560E-01  0.51100000000E-03 0.  1.
         11    1    4    4    0    0  0.33256788925E-01 -0.17052517908E-01 -0.74693748790E-01  0.83523766712E-01  0.51100000000E-03 0. -1.
</event>
<event>
 8    1  0.1064884E+005  0.1043930E+01  0.7957747E-01            NaN
         13   -1    0    0    0    0  0.00000000000E+00  0.00000000000E+00  0.74505805969E-08  0.10566000000E+00  0.10566000000E+00 0.  1.
     999900   -1    0    0    0    0 -0.00000000000E+00 -0.00000000000E+00 -0.74505805969E-08  0.93827000000E+00  0.93827000000E+00 0.  1.
     999902    2    1    2    0    0  0.66305342106E-02  0.26424420539E-01 -0.79269941563E-02  0.10155565754E+01  0.10151601385E+01 0.  0.
     999903    2    3    3    0    0  0.11916316792E+00  0.41296052410E-01  0.12696848791E-01  0.12802623682E+00  0.18007854171E-01 0.  0.
         14    1    1    2    0    0 -0.66305342106E-02 -0.26424420539E-01  0.79269941563E-02  0.28373424557E-01  0.00000000000E+00 0.  1.
     999901    1    3    3    0    0 -0.11253263371E+00 -0.14871631870E-01 -0.20623842947E-01  0.88753033863E+00  0.88000000000E+00 0.  1.
        -11    1    4    4    0    0  0.53753591001E-01  0.26670335910E-01  0.10800417389E-01  0.60972661905E-01  0.51100000000E-03 0.  1.
         11    1    4    4    0    0  0.65409576915E-01  0.14625716500E-01  0.18964314019E-02  0.67053574912E-01  0.51100000000E-03 0. -1.
</event>
<event>
 8    1  0.1064884E+005  0.1043930E+01  0.7957747E-01            NaN
         13   -1    0    0    0    0  0.00000000000E+00  0.00000000000E+00  0.74505805969E-08  0.10566000000E+00  0.10566000000E+00 0. -1.
     999900   -1    0    0    0    0 -0.00000000000E+00 -0.00000000000E+00 -0.74505805969E-08  0.93827000000E+00  0.93827000000E+00 0.  1.
     999902    2    1    2    0    0  0.62516979541E-02 -0.10115972257E-01  0.12674740505E-01  0.10265499635E+01  0.10264028263E+01 0.  0.
     999903    2    3    3    0    0  0.11154036887E+00 -0.23119651197E-01 -0.71769145351E-01  0.13616489525E+00  0.20354270236E-01 0.  0.
         14    1    1    2    0    0 -0.62516979541E-02  0.10115972257E-01 -0.12674740505E-01  0.17380036504E-01  0.00000000000E+00 0.  1.
     999901    1    3    3    0    0 -0.10528867091E+00  0.13003678940E-01  0.84443885856E-01  0.89038506824E+00  0.88000000000E+00 0. -1.
        -11    1    4    4    0    0  0.55027001388E-01 -0.83830403207E-02 -0.23607918643E-01  0.60463552579E-01  0.51100000000E-03 0.  1.
         11    1    4    4    0    0  0.56513367479E-01 -0.14736610876E-01 -0.48161226708E-01  0.75701342676E-01  0.51100000000E-03 0. -1.
</event>
<event>
 8    1  0.1064884E+005  0.1043930E+01  0.7957747E-01            NaN
         13   -1    0    0    0    0  0.00000000000E+00  0.00000000000E+00  0.74505805969E-08  0.10566000000E+00  0.10566000000E+00 0. -1.
     999900   -1    0    0    0    0 -0.00000000000E+00 -0.00000000000E+00 -0.74505805969E-08  0.93827000000E+00  0.93827000000E+00 0. -1.
     999902    2    1    2    0    0  0.87563950746E-02  0.25153119210E-01 -0.89571987626E-02  0.10158304400E+01  0.10154417254E+01 0.  0.
     999903    2    3    3    0    0  0.10727145327E+00 -0.59901873864E-01  0.14678572857E-01  0.12594380779E+00  0.23473027964E-01 0.  0.
         14    1    1    2    0    0 -0.87563950746E-02 -0.25153119210E-01  0.89571987626E-02  0.28099559967E-01  0.00000000000E+00 0.  1.
     999901    1    3    3    0    0 -0.98515058193E-01  0.85054993074E-01 -0.23635771620E-01  0.88988663224E+00  0.88000000000E+00 0.  1.
        -11    1    4    4    0    0  0.45483035381E-01 -0.12399076180E-01  0.53981457784E-02  0.47453605726E-01  0.51100000000E-03 0.  1.
         11    1    4    4    0    0  0.61788417886E-01 -0.47502797685E-01  0.92804270787E-02  0.78490202067E-01  0.51100000000E-03 0. -1.
</event>
<event>
 8    1  0.1064884E+005  0.1043930E+01  0.7957747E-01            NaN
         13   -1    0    0    0    0  0.00000000000E+00  0.00000000000E+00  0.74505805969E-08  0.10566000000E+00  0.10566000000E+00 0. -1.
     999900   -1    0    0    0    0 -0.00000000000E+00 -0.00000000000E+00 -0.74505805969E-08  0.93827000000E+00  0.93827000000E+00 0.  1.
     999902    2    1    2    0    0 -0.85232218167E-03  0.14248217226E-01 -0.17172635739E-01  0.10215998060E+01  0.10213557294E+01 0.  0.
     999903    2    3    3    0    0  0.81748844821E-01  0.25510116532E-01  0.97378054959E-01  0.13026841759E+00  0.12399006394E-01 0.  0.
         14    1    1    2    0    0  0.85232218167E-03 -0.14248217226E-01  0.17172635739E-01  0.22330194031E-01  0.00000000000E+00 0. -1.
     999901    1    3    3    0    0 -0.82601167002E-01 -0.11261899306E-01 -0.11455069070E+00  0.89133138838E+00  0.88000000000E+00 0. -1.
        -11    1    4    4    0    0  0.30955207408E-01  0.37446438213E-02  0.37870396090E-01  0.49057876472E-01  0.51100000000E-03 0. -1.
         11    1    4    4    0    0  0.50793637413E-01  0.21765472711E-01  0.59507658869E-01  0.81210541120E-01  0.51100000000E-03 0.  1.
</event>
<event>
 8    1  0.1064884E+005  0.1043930E+01  0.7957747E-01            NaN
         13   -1    0    0    0    0  0.00000000000E+00  0.00000000000E+00  0.74505805969E-08  0.10566000000E+00  0.10566000000E+00 0. -1.
     999900   -1    0    0    0    0 -0.00000000000E+00 -0.00000000000E+00 -0.74505805969E-08  0.93827000000E+00  0.93827000000E+00 0. -1.
     999902    2    1    2    0    0  0.26031533784E-02 -0.22987586520E-01  0.48437166735E-02  0.10202938596E+01  0.10200200453E+01 0.  0.
     999903    2    3    3    0    0 -0.23878377926E-01  0.89345658829E-01  0.87343219873E-01  0.12893186943E+00  0.21018211431E-01 0.  0.
         14    1    1    2    0    0 -0.26031533784E-02  0.22987586520E-01 -0.48437166735E-02  0.23636140394E-01  0.00000000000E+00 0.  1.
     999901    1    3    3    0    0  0.26481531304E-01 -0.11233324535E+00 -0.82499503199E-01  0.89136199018E+00  0.88000000000E+00 0. -1.
        -11    1    4    4    0    0 -0.14327110162E-01  0.65025786144E-01  0.49626469414E-01  0.83046171114E-01  0.51100000000E-03 0. -1.
         11    1    4    4    0    0 -0.95512677640E-02  0.24319872685E-01  0.37716750459E-01  0.45885698311E-01  0.51100000000E-03 0.  1.
</event>
<event>
 8    1  0.1064884E+005  0.1043930E+01  0.7957747E-01            NaN
         13   -1    0    0    0    0  0.00000000000E+00  0.00000000000E+00  0.74505805969E-08  0.10566000000E+00  0.10566000000E+00 0. -1.
     999900   -1    0    0    0    0 -0.00000000000E+00 -0.00000000000E+00 -0.74505805969E-08  0.93827000000E+00  0.93827000000E+00 0. -1.
     999902    2    1    2    0    0 -0.20722640687E-01  0.44271727377E-02 -0.12297917461E-01  0.10194296639E+01  0.10191352085E+01 0.  0.
     999903    2    3    3    0    0  0.12456285168E+00  0.38046474671E-02 -0.18108449863E-01  0.12749803865E+00  0.19936261949E-01 0.  0.
         14    1    1    2    0    0  0.20722640687E-01 -0.44271727377E-02  0.12297917461E-01  0.24500336107E-01  0.00000000000E+00 0. -1.
     999901    1    3    3    0    0 -0.14528549237E+00  0.62252527056E-03  0.58105324025E-02  0.89193162525E+00  0.88000000000E+00 0. -1.
        -11    1    4    4    0    0  0.28370374277E-01 -0.40168150463E-02 -0.11100534154E-01  0.30732652330E-01  0.51100000000E-03 0.  1.
         11    1    4    4    0    0  0.96192477405E-01  0.78214625134E-02 -0.70079157086E-02  0.96765386315E-01  0.51100000000E-03 0. -1.
</event>
<event>
 8    1  0.1064884E+005  0.1043930E+01  0.7957747E-01            NaN
         13   -1    0    0    0    0  0.00000000000E+00  0.00000000000E+00  0.74505805969E-08  0.10566000000E+00  0.10566000000E+00 0.  1.
     999900   -1    0    0    0    0 -0.00000000000E+00 -0.00000000000E+00 -0.74505805969E-08  0.93827000000E+00  0.93827000000E+00 0.  1.
     999902    2    1    2    0    0  0.14880998989E-01  0.13095764191E-01  0.14840194218E-01  0.10191676387E+01  0.10188667731E+01 0.  0.
     999903    2    3    3    0    0 -0.93930722756E-01 -0.86908633151E-02  0.86574748536E-01  0.12930220273E+00  0.18037759387E-01 0.  0.
         14    1    1    2    0    0 -0.14880998989E-01 -0.13095764191E-01 -0.14840194218E-01  0.24762361259E-01  0.00000000000E+00 0. -1.
     999901    1    3    3    0    0  0.10881172175E+00  0.21786627506E-01 -0.71734554318E-01  0.88986543601E+00  0.88000000000E+00 0.  1.
        -11    1    4    4    0    0 -0.72926606665E-01 -0.59975727872E-02  0.56175191005E-01  0.92250604575E-01  0.51100000000E-03 0. -1.
         11    1    4    4    0    0 -0.21004116091E-01 -0.26932905280E-02  0.30399557531E-01  0.37051598153E-01  0.51100000000E-03 0.  1.
</event>
<event>
 8    1  0.1064884E+005  0.1043930E+01  0.7957747E-01            NaN
         13   -1    0    0    0    0  0.00000000000E+00  0.00000000000E+00  0.74505805969E-08  0.10566000000E+00  0.10566000000E+00 0. -1.
     999900   -1    0    0    0    0 -0.00000000000E+00 -0.00000000000E+00 -0.74505805969E-08  0.93827000000E+00  0.93827000000E+00 0. -1.
     999902    2    1    2    0    0  0.16732066063E-01 -0.98810582814E-02  0.12896363950E-01  0.10206080457E+01  0.10203415455E+01 0.  0.
     999903    2    3    3    0    0  0.42271740672E-01 -0.88281970046E-01  0.88707518232E-01  0.13350810263E+00  0.19359322889E-01 0.  0.
         14    1    1    2    0    0 -0.16732066063E-01  0.98810582814E-02 -0.12896363950E-01  0.23321954263E-01  0.00000000000E+00 0.  1.
     999901    1    3    3    0    0 -0.25539674609E-01  0.78400911765E-01 -0.75811154282E-01  0.88709994311E+00  0.88000000000E+00 0. -1.
        -11    1    4    4    0    0  0.23485080312E-01 -0.64231589794E-01  0.69142875075E-01  0.97253505948E-01  0.51100000000E-03 0.  1.
         11    1    4    4    0    0  0.18786660361E-01 -0.24050380252E-01  0.19564643158E-01  0.36254596684E-01  0.51100000000E-03 0. -1.
</event>
<event>
 8    1  0.1064884E+005  0.1043930E+01  0.7957747E-01            NaN
         13   -1    0    0    0    0  0.00000000000E+00  0.00000000000E+00  0.74505805969E-08  0.10566000000E+00  0.10566000000E+00 0.  1.
     999900   -1    0    0    0    0 -0.00000000000E+00 -0.00000000000E+00 -0.74505805969E-08  0.93827000000E+00  0.93827000000E+00 0. -1.
     999902    2    1    2    0    0  0.67339032443E-02 -0.18101167292E-01 -0.13931875551E-01  0.10201162463E+01  0.10198382524E+01 0.  0.
     999903    2    3    3    0    0  0.45462636079E-01 -0.79939359815E-01 -0.94597754873E-01  0.13341964603E+00  0.19872448061E-01 0.  0.
         14    1    1    2    0    0 -0.67339032443E-02  0.18101167292E-01  0.13931875551E-01  0.23813753728E-01  0.00000000000E+00 0.  1.
     999901    1    3    3    0    0 -0.38728732835E-01  0.61838192523E-01  0.80665879322E-01  0.88669660025E+00  0.88000000000E+00 0.  1.
        -11    1    4    4    0    0  0.18107000046E-01 -0.50277098496E-01 -0.48668143948E-01  0.72280698946E-01  0.51100000000E-03 0. -1.
         11    1    4    4    0    0  0.27355636033E-01 -0.29662261319E-01 -0.45929610925E-01  0.61138947080E-01  0.51100000000E-03 0.  1.
</event>
<event>
 8    1  0.1064884E+005  0.1043930E+01  0.7957747E-01            NaN
         13   -1    0    0    0    0  0.00000000000E+00  0.00000000000E+00  0.74505805969E-08  0.10566000000E+00  0.10566000000E+00 0. -1.
     999900   -1    0    0    0    0 -0.00000000000E+00 -0.00000000000E+00 -0.74505805969E-08  0.93827000000E+00  0.93827000000E+00 0.  1.
     999902    2    1    2    0    0 -0.20318483878E-02 -0.23248496053E-01  0.19886653406E-03  0.10205920368E+01  0.10203251664E+01 0.  0.
     999903    2    3    3    0    0 -0.12632541659E+00  0.25904375256E-01  0.73410212174E-02  0.13047074947E+00  0.18427651548E-01 0.  0.
         14    1    1    2    0    0  0.20318483878E-02  0.23248496053E-01 -0.19886653406E-03  0.23337963161E-01  0.00000000000E+00 0. -1.
     999901    1    3    3    0    0  0.12429356820E+00 -0.49152871309E-01 -0.71421546833E-02  0.89012128737E+00  0.88000000000E+00 0. -1.
        -11    1    4    4    0    0 -0.35491919902E-02  0.22029642880E-02  0.33228880441E-02  0.53621377631E-02  0.51100000000E-03 0.  1.
         11    1    4    4    0    0 -0.12277622460E+00  0.23701410968E-01  0.40181331733E-02  0.12510861171E+00  0.51100000000E-03 0. -1.
</event>
<event>
 8    1  0.1375525E+005  0.1043930E+01  0.7957747E-01            NaN
         13   -1    0    0    0    0  0.00000000000E+00  0.00000000000E+00  0.74505805969E-08  0.10566000000E+00  0.10566000000E+00 0. -1.
     999900   -1    0    0    0    0 -0.00000000000E+00 -0.00000000000E+00 -0.74505805969E-08  0.93827000000E+00  0.93827000000E+00 0. -1.
     999902    2    1    2    0    0  0.88465438317E-02 -0.75616394196E-02 -0.21015214926E-01  0.10199075316E+01  0.10196245849E+01 0.  0.
     999903    2    3    3    0    0  0.45548201587E-01  0.10140077038E+00 -0.68582433296E-01  0.13115421450E+00  0.11879517003E-01 0.  0.
         14    1    1    2    0    0 -0.88465438317E-02  0.75616394196E-02  0.21015214926E-01  0.24022468375E-01  0.00000000000E+00 0. -1.
     999901    1    3    3    0    0 -0.36701657755E-01 -0.10896240980E+00  0.47567218371E-01  0.88875331712E+00  0.88000000000E+00 0. -1.
        -11    1    4    4    0    0  0.18913353883E-01  0.56438729941E-01 -0.37238869430E-01  0.70214241503E-01  0.51100000000E-03 0.  1.
         11    1    4    4    0    0  0.26634847704E-01  0.44962040436E-01 -0.31343563867E-01  0.60939973000E-01  0.51100000000E-03 0. -1.
</event>
<event>
 8    1  0.1064884E+005  0.1043930E+01  0.7957747E-01            NaN
         13   -1    0    0    0    0  0.00000000000E+00  0.00000000000E+00  0.74505805969E-08  0.10566000000E+00  0.10566000000E+00 0. -1.
     999900   -1    0    0    0    0 -0.00000000000E+00 -0.00000000000E+00 -0.74505805969E-08  0.93827000000E+00  0.93827000000E+00 0.  1.
     999902    2    1    2    0    0 -0.21802773851E-01  0.68510628943E-02  0.15949121693E-02  0.10210205750E+01  0.10207635244E+01 0.  0.
     999903    2    3    3    0    0  0.80985627391E-01 -0.42218114516E-01 -0.88899163648E-01  0.12907751773E+00  0.20418208755E-01 0.  0.
         14    1    1    2    0    0  0.21802773851E-01 -0.68510628943E-02 -0.15949121693E-02  0.22909425030E-01  0.00000000000E+00 0. -1.
     999901    1    3    3    0    0 -0.10278840124E+00  0.49069177410E-01  0.90494075818E-01  0.89194305724E+00  0.88000000000E+00 0. -1.
        -11    1    4    4    0    0  0.17656763037E-01 -0.26392335207E-02 -0.10129343122E-01  0.20532694602E-01  0.51100000000E-03 0.  1.
         11    1    4    4    0    0  0.63328864354E-01 -0.39578880995E-01 -0.78769820526E-01  0.10854482313E+00  0.51100000000E-03 0. -1.
</event>
<event>
 8    1  0.1064884E+005  0.1043930E+01  0.7957747E-01            NaN
         13   -1    0    0    0    0  0.00000000000E+00  0.00000000000E+00  0.74505805969E-08  0.10566000000E+00  0.10566000000E+00 0. -1.
     999900   -1    0    0    0    0 -0.00000000000E+00 -0.00000000000E+00 -0.74505805969E-08  0.93827000000E+00  0.93827000000E+00 0.  1.
     999902    2    1    2    0    0  0.41559460475E-02  0.21536995835E-01 -0.12202833499E-01  0.10188297366E+01  0.10185205000E+01 0.  0.
     999903    2    3    3    0    0 -0.61947572338E-01 -0.66912267602E-02  0.11058209154E+00  0.12740242857E+00  0.10986610061E-01 0.  0.
         14    1    1    2    0    0 -0.41559460475E-02 -0.21536995835E-01  0.12202833499E-01  0.25100263396E-01  0.00000000000E+00 0. -1.
     999901    1    3    3    0    0  0.66103518385E-01  0.28228222595E-01 -0.12278492504E+00  0.89142730804E+00  0.88000000000E+00 0.  1.
        -11    1    4    4    0    0 -0.56416728980E-01 -0.28475922572E-02  0.99815404591E-01  0.11469233717E+00  0.51100000000E-03 0. -1.
         11    1    4    4    0    0 -0.55308433577E-02 -0.38436345029E-02  0.10766686953E-01  0.12710091400E-01  0.51100000000E-03 0.  1.
</event>
<event>
 8    1  0.1064884E+005  0.1043930E+01  0.7957747E-01            NaN
         13   -1    0    0    0    0  0.00000000000E+00  0.00000000000E+00  0.74505805969E-08  0.10566000000E+00  0.10566000000E+00 0. -1.
     999900   -1    0    0    0    0 -0.00000000000E+00 -0.00000000000E+00 -0.74505805969E-08  0.93827000000E+00  0.93827000000E+00 0.  1.
     999902    2    1    2    0    0  0.31114445856E-02  0.68298612334E-02 -0.21843814315E-01  0.10208328072E+01  0.10205714771E+01 0.  0.
     999903    2    3    3    0    0  0.26769321982E-01 -0.67490729976E-01  0.10392697216E+00  0.12847551542E+00  0.20821798376E-01 0.  0.
         14    1    1    2    0    0 -0.31114445856E-02 -0.68298612334E-02  0.21843814315E-01  0.23097192810E-01  0.00000000000E+00 0. -1.
     999901    1    3    3    0    0 -0.23657877396E-01  0.74320591210E-01 -0.12577078648E+00  0.89235729177E+00  0.88000000000E+00 0.  1.
        -11    1    4    4    0    0  0.16445590732E-01 -0.49433593695E-01  0.57460948566E-01  0.77563905080E-01  0.51100000000E-03 0. -1.
         11    1    4    4    0    0  0.10323731250E-01 -0.18057136281E-01  0.46466023597E-01  0.50911610341E-01  0.51100000000E-03 0.  1.
</event>
<event>
 8    1  0.1064884E+005  0.1043930E+01  0.7957747E-01            NaN
         13   -1    0    0    0    0  0.00000000000E+00  0.00000000000E+00  0.74505805969E-08  0.10566000000E+00  0.10566000000E+00 0. -1.
     999900   -1    0    0    0    0 -0.00000000000E+00 -0.00000000000E+00 -0.74505805969E-08  0.93827000000E+00  0.93827000000E+00 0.  1.
     999902    2    1    2    0    0  0.61273582422E-02  0.23314707539E-01  0.95864306229E-03  0.10198045134E+01  0.10195191055E+01 0.  0.
     999903    2    3    3    0    0  0.12408787342E+00 -0.11292912018E-01 -0.34044151784E-01  0.13057025512E+00  0.19085519625E-01 0.  0.
         14    1    1    2    0    0 -0.61273582422E-02 -0.23314707539E-01 -0.95864306229E-03  0.24125486589E-01  0.00000000000E+00 0.  1.
     999901    1    3    3    0    0 -0.11796051518E+00  0.34607619556E-01  0.35002794846E-01  0.88923425829E+00  0.88000000000E+00 0. -1.
        -11    1    4    4    0    0  0.80592777646E-01 -0.51207004151E-02 -0.31098396697E-01  0.86537788159E-01  0.51100000000E-03 0. -1.
         11    1    4    4    0    0  0.43495095775E-01 -0.61722116026E-02 -0.29457550864E-02  0.44032466960E-01  0.51100000000E-03 0.  1.
</event>
<event>
 8    1  0.1064884E+005  0.1043930E+01  0.7957747E-01            NaN
         13   -1    0    0    0    0  0.00000000000E+00  0.00000000000E+00  0.74505805969E-08  0.10566000000E+00  0.10566000000E+00 0.  1.
     999900   -1    0    0    0    0 -0.00000000000E+00 -0.00000000000E+00 -0.74505805969E-08  0.93827000000E+00  0.93827000000E+00 0.  1.
     999902    2    1    2    0    0 -0.32912344473E-03 -0.18044841218E-01  0.14946916876E-01  0.10204963716E+01  0.10202272832E+01 0.  0.
     999903    2    3    3    0    0  0.97272286750E-01  0.89137479221E-02 -0.82400716882E-01  0.12935700953E+00  0.20050064831E-01 0.  0.
         14    1    1    2    0    0  0.32912344473E-03  0.18044841218E-01 -0.14946916876E-01  0.23433628420E-01  0.00000000000E+00 0.  1.
     999901    1    3    3    0    0 -0.97601410195E-01 -0.26958589140E-01  0.97347633758E-01  0.89113936205E+00  0.88000000000E+00 0.  1.
        -11    1    4    4    0    0  0.73781189745E-01  0.52757401352E-02 -0.50480609966E-01  0.89554734647E-01  0.51100000000E-03 0.  1.
         11    1    4    4    0    0  0.23491097006E-01  0.36380077868E-02 -0.31920106917E-01  0.39802274882E-01  0.51100000000E-03 0. -1.
</event>
<event>
 8    1  0.1064884E+005  0.1043930E+01  0.7957747E-01            NaN
         13   -1    0    0    0    0  0.00000000000E+00  0.00000000000E+00  0.74505805969E-08  0.10566000000E+00  0.10566000000E+00 0.  1.
     999900   -1    0    0    0    0 -0.00000000000E+00 -0.00000000000E+00 -0.74505805969E-08  0.93827000000E+00  0.93827000000E+00 0.  1.
     999902    2    1    2    0    0  0.18359843122E-01 -0.35222323236E-02 -0.13741349570E-01  0.10207283913E+01  0.10204646658E+01 0.  0.
     999903    2    3    3    0    0 -0.92259083420E-01 -0.72453622948E-01  0.49644389600E-01  0.12887311407E+00  0.19556281858E-01 0.  0.
         14    1    1    2    0    0 -0.18359843122E-01  0.35222323236E-02  0.13741349570E-01  0.23201608738E-01  0.00000000000E+00 0.  1.
     999901    1    3    3    0    0  0.11061892654E+00  0.68931390624E-01 -0.63385739169E-01  0.89185527719E+00  0.88000000000E+00 0.  1.
        -11    1    4    4    0    0 -0.42852857929E-01 -0.45036721006E-01  0.30195947314E-01  0.69113891707E-01  0.51100000000E-03 0.  1.
         11    1    4    4    0    0 -0.49406225490E-01 -0.27416901942E-01  0.19448442285E-01  0.59759222364E-01  0.51100000000E-03 0. -1.
</event>
<event>
 8    1  0.1064884E+005  0.1043930E+01  0.7957747E-01            NaN
         13   -1    0    0    0    0  0.00000000000E+00  0.00000000000E+00  0.74505805969E-08  0.10566000000E+00  0.10566000000E+00 0. -1.
     999900   -1    0    0    0    0 -0.00000000000E+00 -0.00000000000E+00 -0.74505805969E-08  0.93827000000E+00  0.93827000000E+00 0. -1.
     999902    2    1    2    0    0  0.20637684433E-01 -0.59468405086E-02  0.83749232378E-02  0.10208774889E+01  0.10206171804E+01 0.  0.
     999903    2    3    3    0    0 -0.75346531637E-01  0.37506345855E-01  0.97204690236E-01  0.13015201114E+00  0.20173457610E-01 0.  0.
         14    1    1    2    0    0 -0.20637684433E-01  0.59468405086E-02 -0.83749232378E-02  0.23052511144E-01  0.00000000000E+00 0.  1.
     999901    1    3    3    0    0  0.95984216070E-01 -0.43453186363E-01 -0.88829766998E-01  0.89072547771E+00  0.88000000000E+00 0. -1.
        -11    1    4    4    0    0 -0.15223718550E-01  0.13052814526E-01  0.34471038515E-01  0.39882968681E-01  0.51100000000E-03 0. -1.
         11    1    4    4    0    0 -0.60122813087E-01  0.24453531329E-01  0.62733651721E-01  0.90269042463E-01  0.51100000000E-03 0.  1.
</event>
<event>
 8    1  0.1064884E+005  0.1043930E+01  0.7957747E-01            NaN
         13   -1    0    0    0    0  0.00000000000E+00  0.00000000000E+00  0.74505805969E-08  0.10566000000E+00  0.10566000000E+00 0.  1.
     999900   -1    0    0    0    0 -0.00000000000E+00 -0.00000000000E+00 -0.74505805969E-08  0.93827000000E+00  0.93827000000E+00 0. -1.
     999902    2    1    2    0    0  0.10197991407E-01 -0.55503041940E-02  0.20731763278E-01  0.10201684572E+01  0.10198916954E+01 0.  0.
     999903    2    3    3    0    0  0.31285035200E-01 -0.42224377565E-01  0.12066741109E+00  0.13350235054E+00  0.22374137134E-01 0.  0.
         14    1    1    2    0    0 -0.10197991407E-01  0.55503041940E-02 -0.20731763278E-01  0.23761542753E-01  0.00000000000E+00 0. -1.
     999901    1    3    3    0    0 -0.21087043793E-01  0.36674073371E-01 -0.99935647815E-01  0.88666610670E+00  0.88000000000E+00 0. -1.
        -11    1    4    4    0    0  0.27815120922E-01 -0.31828881530E-01  0.11136459610E+00  0.11911797949E+00  0.51100000000E-03 0.  1.
         11    1    4    4    0    0  0.34699142780E-02 -0.10395496035E-01  0.93028149928E-02  0.14384371057E-01  0.51100000000E-03 0. -1.
</event>
<event>
 8    1  0.1064884E+005  0.1043930E+01  0.7957747E-01            NaN
         13   -1    0    0    0    0  0.00000000000E+00  0.00000000000E+00  0.74505805969E-08  0.10566000000E+00  0.10566000000E+00 0. -1.
     999900   -1    0    0    0    0 -0.00000000000E+00 -0.00000000000E+00 -0.74505805969E-08  0.93827000000E+00  0.93827000000E+00 0. -1.
     999902    2    1    2    0    0 -0.13673768654E-01  0.17448869588E-01  0.10499439925E-01  0.10194009715E+01  0.10191058176E+01 0.  0.
     999903    2    3    3    0    0  0.46406443987E-01  0.10948614171E+00  0.52555609072E-01  0.13156697084E+00  0.20174303019E-01 0.  0.
         14    1    1    2    0    0  0.13673768654E-01 -0.17448869588E-01 -0.10499439925E-01  0.24529028473E-01  0.00000000000E+00 0.  1.
     999901    1    3    3    0    0 -0.60080212641E-01 -0.92037272118E-01 -0.42056169147E-01  0.88783400069E+00  0.88000000000E+00 0. -1.
        -11    1    4    4    0    0  0.26878058619E-01  0.46916075272E-01  0.32184551695E-01  0.62925786788E-01  0.51100000000E-03 0.  1.
         11    1    4    4    0    0  0.19528385368E-01  0.62570066434E-01  0.20371057377E-01  0.68641184054E-01  0.51100000000E-03 0. -1.
</event>
<event>
 8    1  0.1064884E+005  0.1043930E+01  0.7957747E-01            NaN
         13   -1    0    0    0    0  0.00000000000E+00  0.00000000000E+00  0.74505805969E-08  0.10566000000E+00  0.10566000000E+00 0. -1.
     999900   -1    0    0    0    0 -0.00000000000E+00 -0.00000000000E+00 -0.74505805969E-08  0.93827000000E+00  0.93827000000E+00 0. -1.
     999902    2    1    2    0    0  0.18675921288E-01 -0.13646009757E-01 -0.12051525787E-02  0.10207684800E+01  0.10205056755E+01 0.  0.
     999903    2    3    3    0    0 -0.11423307321E+00  0.47700979077E-01 -0.26910676889E-01  0.12830614022E+00  0.20339682102E-01 0.  0.
         14    1    1    2    0    0 -0.18675921288E-01  0.13646009757E-01  0.12051525787E-02  0.23161520049E-01  0.00000000000E+00 0.  1.
     999901    1    3    3    0    0  0.13290899450E+00 -0.61346988834E-01  0.25705524311E-01  0.89246233973E+00  0.88000000000E+00 0.  1.
        -11    1    4    4    0    0 -0.36128226548E-01  0.23002728852E-01 -0.15722972212E-01  0.45627264484E-01  0.51100000000E-03 0.  1.
         11    1    4    4    0    0 -0.78104846661E-01  0.24698250225E-01 -0.11187704677E-01  0.82678875736E-01  0.51100000000E-03 0. -1.
</event>
<event>
 8    1  0.1064884E+005  0.1043930E+01  0.7957747E-01            NaN
         13   -1    0    0    0    0  0.00000000000E+00  0.00000000000E+00  0.74505805969E-08  0.10566000000E+00  0.10566000000E+00 0.  1.
     999900   -1    0    0    0    0 -0.00000000000E+00 -0.00000000000E+00 -0.74505805969E-08  0.93827000000E+00  0.93827000000E+00 0. -1.
     999902    2    1    2    0    0 -0.12857330745E-01  0.15498505110E-01 -0.12596786461E-01  0.10201772392E+01  0.10199006843E+01 0.  0.
     999903    2    3    3    0    0  0.73719810297E-01 -0.66913496818E-01 -0.80562820524E-01  0.12949956398E+00  0.19176614271E-01 0.  0.
         14    1    1    2    0    0  0.12857330745E-01 -0.15498505110E-01  0.12596786461E-01  0.23752760759E-01  0.00000000000E+00 0. -1.
     999901    1    3    3    0    0 -0.86577141042E-01  0.82412001928E-01  0.67966034063E-01  0.89067767526E+00  0.88000000000E+00 0.  1.
        -11    1    4    4    0    0  0.52025002425E-01 -0.57930322313E-01 -0.60368093533E-01  0.98524570328E-01  0.51100000000E-03 0.  1.
         11    1    4    4    0    0  0.21694807872E-01 -0.89831745052E-02 -0.20194726991E-01  0.30974993657E-01  0.51100000000E-03 0. -1.
</event>
<event>
 8    1  0.1064884E+005  0.1043930E+01  0.7957747E-01            NaN
         13   -1    0    0    0    0  0.00000000000E+00  0.00000000000E+00  0.74505805969E-08  0.10566000000E+00  0.10566000000E+00 0.  1.
     999900   -1    0    0    0    0 -0.00000000000E+00 -0.00000000000E+00 -0.74505805969E-08  0.93827000000E+00  0.93827000000E+00 0. -1.
     999902    2    1    2    0    0 -0.59537903986E-02  0.49593435939E-02  0.22053371895E-01  0.10205549295E+01  0.10202871999E+01 0.  0.
     999903    2    3    3    0    0  0.61186615550E-01 -0.10756113997E+00  0.36523354307E-01  0.13073580534E+00  0.21087783963E-01 0.  0.
         14    1    1    2    0    0  0.59537903986E-02 -0.49593435939E-02 -0.22053371895E-01  0.23375070501E-01  0.00000000000E+00 0. -1.
     999901    1    3    3    0    0 -0.67140405948E-01  0.11252048357E+00 -0.14469982412E-01  0.88981912416E+00  0.88000000000E+00 0. -1.
        -11    1    4    4    0    0  0.37456971648E-01 -0.74017997037E-01  0.14840210631E-01  0.84274442051E-01  0.51100000000E-03 0.  1.
         11    1    4    4    0    0  0.23729643902E-01 -0.33543142937E-01  0.21683143675E-01  0.46461363287E-01  0.51100000000E-03 0. -1.
</event>
<event>
 8    1  0.1064884E+005  0.1043930E+01  0.7957747E-01            NaN
         13   -1    0    0    0    0  0.00000000000E+00  0.00000000000E+00  0.74505805969E-08  0.10566000000E+00  0.10566000000E+00 0.  1.
     999900   -1    0    0    0    0 -0.00000000000E+00 -0.00000000000E+00 -0.74505805969E-08  0.93827000000E+00  0.93827000000E+00 0.  1.
     999902    2    1    2    0    0 -0.34087012532E-02 -0.23781246238E-01  0.21656393144E-02  0.10198082896E+01  0.10195229721E+01 0.  0.
     999903    2    3    3    0    0  0.37674890930E-01 -0.91755067300E-01 -0.84605139247E-01  0.13198090219E+00  0.20555757701E-01 0.  0.
         14    1    1    2    0    0  0.34087012532E-02  0.23781246238E-01 -0.21656393144E-02  0.24121710356E-01  0.00000000000E+00 0. -1.
     999901    1    3    3    0    0 -0.41083592183E-01  0.67973821063E-01  0.86770778562E-01  0.88782738745E+00  0.88000000000E+00 0. -1.
        -11    1    4    4    0    0  0.31812420256E-01 -0.57929790678E-01 -0.63650692340E-01  0.91758173951E-01  0.51100000000E-03 0.  1.
         11    1    4    4    0    0  0.58624706740E-02 -0.33825276622E-01 -0.20954446908E-01  0.40222728241E-01  0.51100000000E-03 0. -1.
</event>
<event>
 8    1  0.1064884E+005  0.1043930E+01  0.7957747E-01            NaN
         13   -1    0    0    0    0  0.00000000000E+00  0.00000000000E+00  0.74505805969E-08  0.10566000000E+00  0.10566000000E+00 0.  1.
     999900   -1    0    0    0    0 -0.00000000000E+00 -0.00000000000E+00 -0.74505805969E-08  0.93827000000E+00  0.93827000000E+00 0. -1.
     999902    2    1    2    0    0  0.35436005108E-02 -0.23625543861E-01  0.23220215450E-02  0.10199275999E+01  0.10196451313E+01 0.  0.
     999903    2    3    3    0    0  0.97739838083E-01  0.24910055044E-01  0.79921488362E-01  0.13018026902E+00  0.19643608343E-01 0.  0.
         14    1    1    2    0    0 -0.35436005108E-02  0.23625543861E-01 -0.23220215450E-02  0.24002400116E-01  0.00000000000E+00 0. -1.
     999901    1    3    3    0    0 -0.94196237572E-01 -0.48535598904E-01 -0.77599466817E-01  0.88974733087E+00  0.88000000000E+00 0. -1.
        -11    1    4    4    0    0  0.17774767010E-01  0.10290221931E-01  0.95319169495E-02  0.22648390040E-01  0.51100000000E-03 0. -1.
         11    1    4    4    0    0  0.79965071072E-01  0.14619833113E-01  0.70389571412E-01  0.10753187898E+00  0.51100000000E-03 0.  1.
</event>
<event>
 8    1  0.1064884E+005  0.1043930E+01  0.7957747E-01            NaN
         13   -1    0    0    0    0  0.00000000000E+00  0.00000000000E+00  0.74505805969E-08  0.10566000000E+00  0.10566000000E+00 0. -1.
     999900   -1    0    0    0    0 -0.00000000000E+00 -0.00000000000E+00 -0.74505805969E-08  0.93827000000E+00  0.93827000000E+00 0.  1.
     999902    2    1    2    0    0 -0.15353005186E-01  0.88973279860E-02  0.15423619937E-01  0.10204190395E+01  0.10201481514E+01 0.  0.
     999903    2    3    3    0    0  0.31868332022E-01 -0.74916164274E-01  0.10082631248E+00  0.13106636697E+00  0.19606759201E-01 0.  0.
         14    1    1    2    0    0  0.15353005186E-01 -0.88973279860E-02 -0.15423619937E-01  0.23510960540E-01  0.00000000000E+00 0.  1.
     999901    1    3    3    0    0 -0.47221337209E-01  0.83813492260E-01 -0.85402692545E-01  0.88935267249E+00  0.88000000000E+00 0.  1.
        -11    1    4    4    0    0  0.79167604483E-02 -0.19254006670E-01  0.40603371499E-01  0.45632080458E-01  0.51100000000E-03 0.  1.
         11    1    4    4    0    0  0.23951571574E-01 -0.55662157604E-01  0.60222940983E-01  0.85434286511E-01  0.51100000000E-03 0. -1.
</event>
<event>
 8    1  0.1064884E+005  0.1043930E+01  0.7957747E-01            NaN
         13   -1    0    0    0    0  0.00000000000E+00  0.00000000000E+00  0.74505805969E-08  0.10566000000E+00  0.10566000000E+00 0. -1.
     999900   -1    0    0    0    0 -0.00000000000E+00 -0.00000000000E+00 -0.74505805969E-08  0.93827000000E+00  0.93827000000E+00 0. -1.
     999902    2    1    2    0    0  0.17198371168E-01  0.60514544518E-02 -0.13797867795E-01  0.10210655029E+01  0.10208094710E+01 0.  0.
     999903    2    3    3    0    0 -0.60111387038E-01  0.10555269469E+00  0.45789817749E-01  0.13009525211E+00  0.85625349421E-02 0.  0.
         14    1    1    2    0    0 -0.17198371168E-01 -0.60514544518E-02  0.13797867795E-01  0.22864497097E-01  0.00000000000E+00 0. -1.
     999901    1    3    3    0    0  0.77309758206E-01 -0.99501240241E-01 -0.59587685544E-01  0.89097025079E+00  0.88000000000E+00 0. -1.
        -11    1    4    4    0    0 -0.51743316972E-01  0.84203588766E-01  0.36890417897E-01  0.10549302947E+00  0.51100000000E-03 0. -1.
         11    1    4    4    0    0 -0.83680700663E-02  0.21349105926E-01  0.88993998511E-02  0.24602222647E-01  0.51100000000E-03 0.  1.
</event>
<event>
 8    1  0.1064884E+005  0.1043930E+01  0.7957747E-01            NaN
         13   -1    0    0    0    0  0.00000000000E+00  0.00000000000E+00  0.74505805969E-08  0.10566000000E+00  0.10566000000E+00 0. -1.
     999900   -1    0    0    0    0 -0.00000000000E+00 -0.00000000000E+00 -0.74505805969E-08  0.93827000000E+00  0.93827000000E+00 0. -1.
     999902    2    1    2    0    0  0.17177235622E-01 -0.19968129699E-02  0.19256837861E-01  0.10180481436E+01  0.10177190930E+01 0.  0.
     999903    2    3    3    0    0 -0.11825186418E+00  0.62555794470E-02  0.42528286040E-01  0.12734577842E+00  0.19638139224E-01 0.  0.
         14    1    1    2    0    0 -0.17177235622E-01  0.19968129699E-02 -0.19256837861E-01  0.25881856387E-01  0.00000000000E+00 0.  1.
     999901    1    3    3    0    0  0.13542909980E+00 -0.82523924169E-02 -0.23271448179E-01  0.89070236519E+00  0.88000000000E+00 0.  1.
        -11    1    4    4    0    0 -0.36128764952E-01  0.33229766779E-03  0.22637160609E-01  0.42639186672E-01  0.51100000000E-03 0.  1.
         11    1    4    4    0    0 -0.82123099230E-01  0.59232817792E-02  0.19891125431E-01  0.84706591751E-01  0.51100000000E-03 0. -1.
</event>
<event>
 8    1  0.1064884E+005  0.1043930E+01  0.7957747E-01            NaN
         13   -1    0    0    0    0  0.00000000000E+00  0.00000000000E+00  0.74505805969E-08  0.10566000000E+00  0.10566000000E+00 0.  1.
     999900   -1    0    0    0    0 -0.00000000000E+00 -0.00000000000E+00 -0.74505805969E-08  0.93827000000E+00  0.93827000000E+00 0. -1.
     999902    2    1    2    0    0  0.13830564182E-01 -0.20989812602E-02  0.31376427866E-01  0.10095763910E+01  0.10089917337E+01 0.  0.
     999903    2    3    3    0    0 -0.34500789317E-01 -0.99724235604E-01 -0.51091957333E-01  0.11903293634E+00  0.20572413570E-01 0.  0.
         14    1    1    2    0    0 -0.13830564182E-01  0.20989812602E-02 -0.31376427866E-01  0.34353609032E-01  0.00000000000E+00 0. -1.
     999901    1    3    3    0    0  0.48331353498E-01  0.97625254344E-01  0.82468385199E-01  0.89054345462E+00  0.88000000000E+00 0.  1.
        -11    1    4    4    0    0 -0.16788962061E-01 -0.75848323262E-01 -0.39130475596E-01  0.86984439012E-01  0.51100000000E-03 0.  1.
         11    1    4    4    0    0 -0.17711827255E-01 -0.23875912342E-01 -0.11961481738E-01  0.32048497332E-01  0.51100000000E-03 0. -1.
</event>
<event>
 8    1  0.1064884E+005  0.1043930E+01  0.7957747E-01            NaN
         13   -1    0    0    0    0  0.00000000000E+00  0.00000000000E+00  0.74505805969E-08  0.10566000000E+00  0.10566000000E+00 0.  1.
     999900   -1    0    0    0    0 -0.00000000000E+00 -0.00000000000E+00 -0.74505805969E-08  0.93827000000E+00  0.93827000000E+00 0. -1.
     999902    2    1    2    0    0  0.62111273549E-02 -0.10343483573E-01 -0.20108446259E-01  0.10204797257E+01  0.10202102505E+01 0.  0.
     999903    2    3    3    0    0 -0.11644367563E+00  0.46647750126E-01 -0.28038013655E-01  0.13011177956E+00  0.20194127496E-01 0.  0.
         14    1    1    2    0    0 -0.62111273549E-02  0.10343483573E-01  0.20108446259E-01  0.23450274336E-01  0.00000000000E+00 0.  1.
     999901    1    3    3    0    0  0.12265480298E+00 -0.56991233699E-01  0.79295673960E-02  0.89036794611E+00  0.88000000000E+00 0. -1.
        -11    1    4    4    0    0 -0.29754783428E-01  0.20191636703E-01 -0.12972142338E-01  0.38230706604E-01  0.51100000000E-03 0.  1.
         11    1    4    4    0    0 -0.86688892197E-01  0.26456113423E-01 -0.15065871318E-01  0.91881072955E-01  0.51100000000E-03 0. -1.
</event>
<event>
 8    1  0.1064884E+005  0.1043930E+01  0.7957747E-01            NaN
         13   -1    0    0    0    0  0.00000000000E+00  0.00000000000E+00  0.74505805969E-08  0.10566000000E+00  0.10566000000E+00 0.  1.
     999900   -1    0    0    0    0 -0.00000000000E+00 -0.00000000000E+00 -0.74505805969E-08  0.93827000000E+00  0.93827000000E+00 0.  1.
     999902    2    1    2    0    0 -0.17563494332E-02 -0.53980753279E-02  0.23650422246E-01  0.10196078608E+01  0.10193177245E+01 0.  0.
     999903    2    3    3    0    0  0.35353623684E-01  0.76732494589E-01  0.99324086799E-01  0.13177393261E+00  0.19008962720E-01 0.  0.
         14    1    1    2    0    0  0.17563494332E-02  0.53980753279E-02 -0.23650422246E-01  0.24322139154E-01  0.00000000000E+00 0. -1.
     999901    1    3    3    0    0 -0.37109973118E-01 -0.82130569917E-01 -0.75673664552E-01  0.88783392824E+00  0.88000000000E+00 0.  1.
        -11    1    4    4    0    0  0.83633565753E-02  0.40257724347E-01  0.44076407563E-01  0.60279523285E-01  0.51100000000E-03 0.  1.
         11    1    4    4    0    0  0.26990267109E-01  0.36474770242E-01  0.55247679236E-01  0.71494409325E-01  0.51100000000E-03 0. -1.
</event>
<event>
 8    1  0.1064884E+005  0.1043930E+01  0.7957747E-01            NaN
         13   -1    0    0    0    0  0.00000000000E+00  0.00000000000E+00  0.74505805969E-08  0.10566000000E+00  0.10566000000E+00 0.  1.
     999900   -1    0    0    0    0 -0.00000000000E+00 -0.00000000000E+00 -0.74505805969E-08  0.93827000000E+00  0.93827000000E+00 0.  1.
     999902    2    1    2    0    0 -0.29294175377E-01 -0.38153904053E-02  0.60620306087E-03  0.10143821846E+01  0.10139517459E+01 0.  0.
     999903    2    3    3    0    0 -0.93794854312E-02  0.64023708898E-01 -0.10518273640E+00  0.12523088249E+00  0.20793168217E-01 0.  0.
         14    1    1    2    0    0  0.29294175377E-01  0.38153904053E-02 -0.60620306087E-03  0.29547815437E-01  0.00000000000E+00 0. -1.
     999901    1    3    3    0    0 -0.19914689946E-01 -0.67839099303E-01  0.10578893946E+00  0.88915130208E+00  0.88000000000E+00 0. -1.
        -11    1    4    4    0    0  0.22215964553E-02  0.30688961461E-01 -0.63829104959E-01  0.70860169399E-01  0.51100000000E-03 0. -1.
         11    1    4    4    0    0 -0.11601081886E-01  0.33334747437E-01 -0.41353631439E-01  0.54370713089E-01  0.51100000000E-03 0.  1.
</event>
<event>
 8    1  0.1064884E+005  0.1043930E+01  0.7957747E-01            NaN
         13   -1    0    0    0    0  0.00000000000E+00  0.00000000000E+00  0.74505805969E-08  0.10566000000E+00  0.10566000000E+00 0.  1.
     999900   -1    0    0    0    0 -0.00000000000E+00 -0.00000000000E+00 -0.74505805969E-08  0.93827000000E+00  0.93827000000E+00 0. -1.
     999902    2    1    2    0    0 -0.10352705356E-01 -0.19690745505E-01 -0.72749925419E-02  0.10205242425E+01  0.10202558013E+01 0.  0.
     999903    2    3    3    0    0 -0.49411076522E-01  0.82507180674E-01  0.83725757029E-01  0.12909218740E+00  0.20146987655E-01 0.  0.
         14    1    1    2    0    0  0.10352705356E-01  0.19690745505E-01  0.72749925419E-02  0.23405757480E-01  0.00000000000E+00 0.  1.
     999901    1    3    3    0    0  0.39058371166E-01 -0.10219792618E+00 -0.91000749571E-01  0.89143205512E+00  0.88000000000E+00 0. -1.
        -11    1    4    4    0    0 -0.29155973112E-01  0.52940176693E-01  0.64599559876E-01  0.88465232344E-01  0.51100000000E-03 0.  1.
         11    1    4    4    0    0 -0.20255103410E-01  0.29567003981E-01  0.19126197153E-01  0.40626955056E-01  0.51100000000E-03 0. -1.
</event>
<event>
 8    1  0.1064884E+005  0.1043930E+01  0.7957747E-01            NaN
         13   -1    0    0    0    0  0.00000000000E+00  0.00000000000E+00  0.74505805969E-08  0.10566000000E+00  0.10566000000E+00 0. -1.
     999900   -1    0    0    0    0 -0.00000000000E+00 -0.00000000000E+00 -0.74505805969E-08  0.93827000000E+00  0.93827000000E+00 0.  1.
     999902    2    1    2    0    0  0.98720375935E-02 -0.12962116563E-01  0.17561193336E-01  0.10199744348E+01  0.10196930806E+01 0.  0.
     999903    2    3    3    0    0  0.49252105149E-01  0.99278897078E-01 -0.62802611210E-01  0.12834268575E+00  0.15671877459E-01 0.  0.
         14    1    1    2    0    0 -0.98720375935E-02  0.12962116563E-01 -0.17561193336E-01  0.23955565187E-01  0.00000000000E+00 0.  1.
     999901    1    3    3    0    0 -0.39380067556E-01 -0.11224101364E+00  0.80363804546E-01  0.89163174907E+00  0.88000000000E+00 0. -1.
        -11    1    4    4    0    0  0.74130562452E-02  0.96839747253E-02 -0.23098838515E-02  0.12422940625E-01  0.51100000000E-03 0.  1.
         11    1    4    4    0    0  0.41839048904E-01  0.89594922352E-01 -0.60492727358E-01  0.11591974512E+00  0.51100000000E-03 0. -1.
</event>
<event>
 8    1  0.1064884E+005  0.1043930E+01  0.7957747E-01            NaN
         13   -1    0    0    0    0  0.00000000000E+00  0.00000000000E+00  0.74505805969E-08  0.10566000000E+00  0.10566000000E+00 0. -1.
     999900   -1    0    0    0    0 -0.00000000000E+00 -0.00000000000E+00 -0.74505805969E-08  0.93827000000E+00  0.93827000000E+00 0.  1.
     999902    2    1    2    0    0  0.23078268922E-01  0.56122403021E-02  0.53168485098E-02  0.10195912939E+01  0.10193007573E+01 0.  0.
     999903    2    3    3    0    0  0.56742380645E-01 -0.69157159759E-01 -0.92581319044E-01  0.13037378010E+00  0.20581821922E-01 0.  0.
         14    1    1    2    0    0 -0.23078268922E-01 -0.56122403021E-02 -0.53168485098E-02  0.24338706123E-01  0.00000000000E+00 0.  1.
     999901    1    3    3    0    0 -0.33664111722E-01  0.74769400061E-01  0.97898167554E-01  0.88921751378E+00  0.88000000000E+00 0. -1.
        -11    1    4    4    0    0  0.17487168404E-01 -0.36126555694E-01 -0.46311818604E-01  0.61286007771E-01  0.51100000000E-03 0.  1.
         11    1    4    4    0    0  0.39255212241E-01 -0.33030604065E-01 -0.46269500440E-01  0.69087772326E-01  0.51100000000E-03 0. -1.
</event>
<event>
 8    1  0.1064884E+005  0.1043930E+01  0.7957747E-01            NaN
         13   -1    0    0    0    0  0.00000000000E+00  0.00000000000E+00  0.74505805969E-08  0.10566000000E+00  0.10566000000E+00 0.  1.
     999900   -1    0    0    0    0 -0.00000000000E+00 -0.00000000000E+00 -0.74505805969E-08  0.93827000000E+00  0.93827000000E+00 0. -1.
     999902    2    1    2    0    0 -0.18566850607E-01 -0.95306601373E-02  0.15080379023E-01  0.10181816164E+01  0.10178559941E+01 0.  0.
     999903    2    3    3    0    0 -0.81491819460E-01  0.86799172666E-01  0.48081178794E-01  0.13007799570E+00  0.20819995133E-01 0.  0.
         14    1    1    2    0    0  0.18566850607E-01  0.95306601373E-02 -0.15080379023E-01  0.25748383553E-01  0.00000000000E+00 0. -1.
     999901    1    3    3    0    0  0.62924968853E-01 -0.96329832803E-01 -0.33000799771E-01  0.88810362074E+00  0.88000000000E+00 0.  1.
        -11    1    4    4    0    0 -0.70965951101E-01  0.83984290996E-01  0.44053495520E-01  0.11845040708E+00  0.51100000000E-03 0.  1.
         11    1    4    4    0    0 -0.10525868360E-01  0.28148816704E-02  0.40276832744E-02  0.11627588619E-01  0.51100000000E-03 0. -1.
</event>
<event>
 8    1  0.1064884E+005  0.1043930E+01  0.7957747E-01            NaN
         13   -1    0    0    0    0  0.00000000000E+00  0.00000000000E+00  0.74505805969E-08  0.10566000000E+00  0.10566000000E+00 0. -1.
     999900   -1    0    0    0    0 -0.00000000000E+00 -0.00000000000E+00 -0.74505805969E-08  0.93827000000E+00  0.93827000000E+00 0. -1.
     999902    2    1    2    0    0 -0.21704788281E-01  0.10773554184E-02 -0.10286926442E-01  0.10198867185E+01  0.10196032754E+01 0.  0.
     999903    2    3    3    0    0  0.42584216808E-01  0.11751101062E+00 -0.28740010172E-01  0.12970112633E+00  0.19342720767E-01 0.  0.
         14    1    1    2    0    0  0.21704788281E-01 -0.10773554184E-02  0.10286926442E-01  0.24043281486E-01  0.00000000000E+00 0. -1.
     999901    1    3    3    0    0 -0.64289005089E-01 -0.11643365520E+00  0.18453083731E-01  0.89018559219E+00  0.88000000000E+00 0.  1.
        -11    1    4    4    0    0  0.20520291083E-01  0.58076919762E-01 -0.24057748001E-01  0.66129020218E-01  0.51100000000E-03 0.  1.
         11    1    4    4    0    0  0.22063925726E-01  0.59434090861E-01 -0.46822621716E-02  0.63572106108E-01  0.51100000000E-03 0. -1.
</event>
<event>
 8    1  0.1064884E+005  0.1043930E+01  0.7957747E-01            NaN
         13   -1    0    0    0    0  0.00000000000E+00  0.00000000000E+00  0.74505805969E-08  0.10566000000E+00  0.10566000000E+00 0. -1.
     999900   -1    0    0    0    0 -0.00000000000E+00 -0.00000000000E+00 -0.74505805969E-08  0.93827000000E+00  0.93827000000E+00 0.  1.
     999902    2    1    2    0    0 -0.18248217603E-01 -0.13298518887E-02 -0.15378599667E-01  0.10200288017E+01  0.10197487382E+01 0.  0.
     999903    2    3    3    0    0  0.18423927007E-01 -0.10802749182E+00 -0.69257131106E-01  0.13119128636E+00  0.20130159727E-01 0.  0.
         14    1    1    2    0    0  0.18248217603E-01  0.13298518887E-02  0.15378599667E-01  0.23901198285E-01  0.00000000000E+00 0.  1.
     999901    1    3    3    0    0 -0.36672144611E-01  0.10669763994E+00  0.53878531439E-01  0.88883751536E+00  0.88000000000E+00 0.  1.
        -11    1    4    4    0    0  0.18489101088E-01 -0.49100894444E-01 -0.33948849470E-01  0.62494241299E-01  0.51100000000E-03 0. -1.
         11    1    4    4    0    0 -0.65174081067E-04 -0.58926597380E-01 -0.35308281636E-01  0.68697045057E-01  0.51100000000E-03 0.  1.
</event>
<event>
 8    1  0.1064884E+005  0.1043930E+01  0.7957747E-01            NaN
         13   -1    0    0    0    0  0.00000000000E+00  0.00000000000E+00  0.74505805969E-08  0.10566000000E+00  0.10566000000E+00 0.  1.
     999900   -1    0    0    0    0 -0.00000000000E+00 -0.00000000000E+00 -0.74505805969E-08  0.93827000000E+00  0.93827000000E+00 0. -1.
     999902    2    1    2    0    0 -0.59037696336E-02  0.16465921249E-01 -0.13092944376E-01  0.10220803718E+01  0.10218467988E+01 0.  0.
     999903    2    3    3    0    0 -0.11258029762E+00  0.65979772344E-01 -0.23920460142E-01  0.13419032337E+00  0.20179214613E-01 0.  0.
         14    1    1    2    0    0  0.59037696336E-02 -0.16465921249E-01  0.13092944376E-01  0.21849628164E-01  0.00000000000E+00 0.  1.
     999901    1    3    3    0    0  0.10667652798E+00 -0.49513851095E-01  0.10827515766E-01  0.88789004847E+00  0.88000000000E+00 0. -1.
        -11    1    4    4    0    0 -0.99633976968E-02  0.84086554572E-02 -0.83733529896E-02  0.15503191334E-01  0.51100000000E-03 0.  1.
         11    1    4    4    0    0 -0.10261689992E+00  0.57571116887E-01 -0.15547107153E-01  0.11868713203E+00  0.51100000000E-03 0. -1.
</event>
<event>
 8    1  0.1064884E+005  0.1043930E+01  0.7957747E-01            NaN
         13   -1    0    0    0    0  0.00000000000E+00  0.00000000000E+00  0.74505805969E-08  0.10566000000E+00  0.10566000000E+00 0. -1.
     999900   -1    0    0    0    0 -0.00000000000E+00 -0.00000000000E+00 -0.74505805969E-08  0.93827000000E+00  0.93827000000E+00 0. -1.
     999902    2    1    2    0    0  0.19456235252E-01  0.11106832119E-01 -0.44858788871E-02  0.10210820259E+01  0.10208263681E+01 0.  0.
     999903    2    3    3    0    0  0.79483313871E-01  0.93938256766E-01  0.46874423460E-01  0.13366883258E+00  0.22981556937E-01 0.  0.
         14    1    1    2    0    0 -0.19456235252E-01 -0.11106832119E-01  0.44858788871E-02  0.22847974074E-01  0.00000000000E+00 0.  1.
     999901    1    3    3    0    0 -0.60027078619E-01 -0.82831424647E-01 -0.51360302347E-01  0.88741319335E+00  0.88000000000E+00 0. -1.
        -11    1    4    4    0    0  0.16777257981E-01  0.28721331103E-01  0.38586643419E-02  0.33489426050E-01  0.51100000000E-03 0. -1.
         11    1    4    4    0    0  0.62706055890E-01  0.65216925663E-01  0.43015759118E-01  0.10017940652E+00  0.51100000000E-03 0.  1.
</event>
<event>
 8    1  0.1064884E+005  0.1043930E+01  0.7957747E-01            NaN
         13   -1    0    0    0    0  0.00000000000E+00  0.00000000000E+00  0.74505805969E-08  0.10566000000E+00  0.10566000000E+00 0. -1.
     999900   -1    0    0    0    0 -0.00000000000E+00 -0.00000000000E+00 -0.74505805969E-08  0.93827000000E+00  0.93827000000E+00 0. -1.
     999902    2    1    2    0    0  0.24824894097E-01 -0.43927698461E-02  0.15040270222E-02  0.10186746265E+01  0.10183615079E+01 0.  0.
     999903    2    3    3    0    0  0.49095999354E-01  0.75368966729E-01 -0.91868005086E-01  0.12981616894E+00  0.17933462082E-01 0.  0.
         14    1    1    2    0    0 -0.24824894097E-01  0.43927698461E-02 -0.15040270222E-02  0.25255373510E-01  0.00000000000E+00 0.  1.
     999901    1    3    3    0    0 -0.24271105257E-01 -0.79761736575E-01  0.93372032108E-01  0.88885845755E+00  0.88000000000E+00 0.  1.
        -11    1    4    4    0    0  0.15430209221E-01  0.15269316901E-01 -0.31257965305E-01  0.38060017226E-01  0.51100000000E-03 0.  1.
         11    1    4    4    0    0  0.33665790133E-01  0.60099649828E-01 -0.60610039781E-01  0.91756151718E-01  0.51100000000E-03 0. -1.
</event>
<event>
 8    1  0.1064884E+005  0.1043930E+01  0.7957747E-01            NaN
         13   -1    0    0    0    0  0.00000000000E+00  0.00000000000E+00  0.74505805969E-08  0.10566000000E+00  0.10566000000E+00 0. -1.
     999900   -1    0    0    0    0 -0.00000000000E+00 -0.00000000000E+00 -0.74505805969E-08  0.93827000000E+00  0.93827000000E+00 0.  1.
     999902    2    1    2    0    0 -0.14257015712E-01  0.34867948464E-02 -0.17710571944E-01  0.10209281611E+01  0.10206690088E+01 0.  0.
     999903    2    3    3    0    0 -0.44709687322E-01  0.63154286267E-01 -0.10788422725E+00  0.13378732510E+00  0.16511264481E-01 0.  0.
         14    1    1    2    0    0  0.14257015712E-01 -0.34867948464E-02  0.17710571944E-01  0.23001838925E-01  0.00000000000E+00 0. -1.
     999901    1    3    3    0    0  0.30452671610E-01 -0.59667491421E-01  0.90173655303E-01  0.88714083597E+00  0.88000000000E+00 0. -1.
        -11    1    4    4    0    0 -0.35576047574E-01  0.43237296270E-01 -0.66308265866E-01  0.86788053284E-01  0.51100000000E-03 0. -1.
         11    1    4    4    0    0 -0.91336397488E-02  0.19916989997E-01 -0.41575961382E-01  0.46999271818E-01  0.51100000000E-03 0.  1.
</event>
<event>
 8    1  0.1064884E+005  0.1043930E+01  0.7957747E-01            NaN
         13   -1    0    0    0    0  0.00000000000E+00  0.00000000000E+00  0.74505805969E-08  0.10566000000E+00  0.10566000000E+00 0. -1.
     999900   -1    0    0    0    0 -0.00000000000E+00 -0.00000000000E+00 -0.74505805969E-08  0.93827000000E+00  0.93827000000E+00 0.  1.
     999902    2    1    2    0    0  0.91350894302E-02  0.22124871433E-01  0.26540491272E-03  0.10199919501E+01  0.10197110120E+01 0.  0.
     999903    2    3    3    0    0 -0.93550892340E-01 -0.59205763969E-01  0.61190242200E-01  0.12821231422E+00  0.20905976015E-01 0.  0.
         14    1    1    2    0    0 -0.91350894302E-02 -0.22124871433E-01 -0.26540491272E-03  0.23938049933E-01  0.00000000000E+00 0.  1.
     999901    1    3    3    0    0  0.10268598177E+00  0.81330635402E-01 -0.60924837288E-01  0.89177963584E+00  0.88000000000E+00 0.  1.
        -11    1    4    4    0    0 -0.61665889591E-02 -0.93805293223E-02  0.17565777028E-02  0.11373998241E-01  0.51100000000E-03 0.  1.
         11    1    4    4    0    0 -0.87384303381E-01 -0.49825234647E-01  0.59433664498E-01  0.11683831598E+00  0.51100000000E-03 0. -1.
</event>
<event>
 8    1  0.1064884E+005  0.1043930E+01  0.7957747E-01            NaN
         13   -1    0    0    0    0  0.00000000000E+00  0.00000000000E+00  0.74505805969E-08  0.10566000000E+00  0.10566000000E+00 0.  1.
     999900   -1    0    0    0    0 -0.00000000000E+00 -0.00000000000E+00 -0.74505805969E-08  0.93827000000E+00  0.93827000000E+00 0. -1.
     999902    2    1    2    0    0  0.21462785405E-01  0.11358569231E-01  0.34119606973E-02  0.10194083824E+01  0.10191134090E+01 0.  0.
     999903    2    3    3    0    0  0.11197927597E+00 -0.32641306791E-02 -0.66758850322E-01  0.13186627012E+00  0.19543702391E-01 0.  0.
         14    1    1    2    0    0 -0.21462785405E-01 -0.11358569231E-01 -0.34119606973E-02  0.24521617567E-01  0.00000000000E+00 0. -1.
     999901    1    3    3    0    0 -0.90516490561E-01  0.14622699910E-01  0.70170811019E-01  0.88754211232E+00  0.88000000000E+00 0. -1.
        -11    1    4    4    0    0  0.69624477009E-01 -0.49807402082E-02 -0.51751457961E-01  0.86895627587E-01  0.51100000000E-03 0.  1.
         11    1    4    4    0    0  0.42354798957E-01  0.17166095291E-02 -0.15007392361E-01  0.44970642529E-01  0.51100000000E-03 0. -1.
</event>
<event>
 8    1  0.1064884E+005  0.1043930E+01  0.7957747E-01            NaN
         13   -1    0    0    0    0  0.00000000000E+00  0.00000000000E+00  0.74505805969E-08  0.10566000000E+00  0.10566000000E+00 0. -1.
     999900   -1    0    0    0    0 -0.00000000000E+00 -0.00000000000E+00 -0.74505805969E-08  0.93827000000E+00  0.93827000000E+00 0.  1.
     999902    2    1    2    0    0  0.45408042868E-03  0.21650504011E-01  0.87743125450E-02  0.10205646609E+01  0.10202971567E+01 0.  0.
     999903    2    3    3    0    0 -0.94227594517E-01 -0.49261972584E-01  0.72625865549E-01  0.13035669654E+00  0.20316753526E-01 0.  0.
         14    1    1    2    0    0 -0.45408042868E-03 -0.21650504011E-01 -0.87743125450E-02  0.23365339150E-01  0.00000000000E+00 0. -1.
     999901    1    3    3    0    0  0.94681674945E-01  0.70912476594E-01 -0.63851553004E-01  0.89020796431E+00  0.88000000000E+00 0.  1.
        -11    1    4    4    0    0 -0.48295637080E-01 -0.19064908291E-01  0.25027985610E-01  0.57642002688E-01  0.51100000000E-03 0.  1.
         11    1    4    4    0    0 -0.45931957436E-01 -0.30197064292E-01  0.47597879939E-01  0.72714693848E-01  0.51100000000E-03 0. -1.
</event>
<event>
 8    1  0.1064884E+005  0.1043930E+01  0.7957747E-01            NaN
         13   -1    0    0    0    0  0.00000000000E+00  0.00000000000E+00  0.74505805969E-08  0.10566000000E+00  0.10566000000E+00 0.  1.
     999900   -1    0    0    0    0 -0.00000000000E+00 -0.00000000000E+00 -0.74505805969E-08  0.93827000000E+00  0.93827000000E+00 0. -1.
     999902    2    1    2    0    0 -0.43392507219E-02  0.93704093412E-02 -0.20062506621E-01  0.10213659170E+01  0.10211166430E+01 0.  0.
     999903    2    3    3    0    0 -0.52677673203E-01 -0.10558988125E+00  0.50155786797E-01  0.12980375979E+00  0.20229998268E-01 0.  0.
         14    1    1    2    0    0  0.43392507219E-02 -0.93704093412E-02  0.20062506621E-01  0.22564082963E-01  0.00000000000E+00 0.  1.
     999901    1    3    3    0    0  0.48338422481E-01  0.11496029059E+00 -0.70218293418E-01  0.89156215725E+00  0.88000000000E+00 0. -1.
        -11    1    4    4    0    0 -0.43565413925E-02 -0.26405289771E-01  0.82271769169E-02  0.28002970232E-01  0.51100000000E-03 0. -1.
         11    1    4    4    0    0 -0.48321131810E-01 -0.79184591481E-01  0.41928609880E-01  0.10180078956E+00  0.51100000000E-03 0.  1.
</event>
<event>
 8    1  0.1064884E+005  0.1043930E+01  0.7957747E-01            NaN
         13   -1    0    0    0    0  0.00000000000E+00  0.00000000000E+00  0.74505805969E-08  0.10566000000E+00  0.10566000000E+00 0. -1.
     999900   -1    0    0    0    0 -0.00000000000E+00 -0.00000000000E+00 -0.74505805969E-08  0.93827000000E+00  0.93827000000E+00 0. -1.
     999902    2    1    2    0    0 -0.11500541772E-01 -0.17652668750E-01 -0.85745149693E-02  0.10211835391E+01  0.10209301735E+01 0.  0.
     999903    2    3    3    0    0 -0.79060033786E-01 -0.83149703431E-01 -0.66879298681E-01  0.13424859545E+00  0.19633712499E-01 0.  0.
         14    1    1    2    0    0  0.11500541772E-01  0.17652668750E-01  0.85745149693E-02  0.22746460868E-01  0.00000000000E+00 0. -1.
     999901    1    3    3    0    0  0.67559492014E-01  0.65497034681E-01  0.58304783711E-01  0.88693494368E+00  0.88000000000E+00 0.  1.
        -11    1    4    4    0    0 -0.44592054294E-01 -0.38074865634E-01 -0.25111235017E-01  0.63788572208E-01  0.51100000000E-03 0. -1.
         11    1    4    4    0    0 -0.34467979492E-01 -0.45074837797E-01 -0.41768063664E-01  0.70460023247E-01  0.51100000000E-03 0.  1.
</event>
<event>
 8    1  0.1064884E+005  0.1043930E+01  0.7957747E-01            NaN
         13   -1    0    0    0    0  0.00000000000E+00  0.00000000000E+00  0.74505805969E-08  0.10566000000E+00  0.10566000000E+00 0. -1.
     999900   -1    0    0    0    0 -0.00000000000E+00 -0.00000000000E+00 -0.74505805969E-08  0.93827000000E+00  0.93827000000E+00 0. -1.
     999902    2    1    2    0    0 -0.16498495367E-01 -0.29294446706E-02  0.16765546971E-01  0.10202262965E+01  0.10199508961E+01 0.  0.
     999903    2    3    3    0    0  0.29448563086E-01  0.11887557232E+00 -0.35372038261E-01  0.12912253028E+00  0.20562761790E-01 0.  0.
         14    1    1    2    0    0  0.16498495367E-01  0.29294446706E-02 -0.16765546971E-01  0.23703703522E-01  0.00000000000E+00 0.  1.
     999901    1    3    3    0    0 -0.45947058453E-01 -0.12180501699E+00  0.52137585231E-01  0.89110376620E+00  0.88000000000E+00 0.  1.
        -11    1    4    4    0    0  0.24778217042E-01  0.82697314920E-01 -0.15948260200E-01  0.87791879232E-01  0.51100000000E-03 0.  1.
         11    1    4    4    0    0  0.46703460433E-02  0.36178257399E-01 -0.19423778061E-01  0.41330651044E-01  0.51100000000E-03 0. -1.
</event>
<event>
 8    1  0.1064884E+005  0.1043930E+01  0.7957747E-01            NaN
         13   -1    0    0    0    0  0.00000000000E+00  0.00000000000E+00  0.74505805969E-08  0.10566000000E+00  0.10566000000E+00 0. -1.
     999900   -1    0    0    0    0 -0.00000000000E+00 -0.00000000000E+00 -0.74505805969E-08  0.93827000000E+00  0.93827000000E+00 0.  1.
     999902    2    1    2    0    0  0.14847912675E-01  0.11420501361E-01 -0.13718565963E-01  0.10207117439E+01  0.10204476355E+01 0.  0.
     999903    2    3    3    0    0  0.12040787258E+00  0.75441053746E-02 -0.53889345230E-01  0.13348481520E+00  0.18951650463E-01 0.  0.
         14    1    1    2    0    0 -0.14847912675E-01 -0.11420501361E-01  0.13718565963E-01  0.23218256055E-01  0.00000000000E+00 0.  1.
     999901    1    3    3    0    0 -0.10555995990E+00  0.38763959861E-02  0.40170779267E-01  0.88722692874E+00  0.88000000000E+00 0. -1.
        -11    1    4    4    0    0  0.11717509609E+00  0.10418938375E-01 -0.53056741636E-01  0.12904974380E+00  0.51100000000E-03 0. -1.
         11    1    4    4    0    0  0.32327764903E-02 -0.28748330001E-02 -0.83260359369E-03  0.44350714040E-02  0.51100000000E-03 0.  1.
</event>
<event>
 8    1  0.1064884E+005  0.1043930E+01  0.7957747E-01            NaN
         13   -1    0    0    0    0  0.00000000000E+00  0.00000000000E+00  0.74505805969E-08  0.10566000000E+00  0.10566000000E+00 0.  1.
     999900   -1    0    0    0    0 -0.00000000000E+00 -0.00000000000E+00 -0.74505805969E-08  0.93827000000E+00  0.93827000000E+00 0.  1.
     999902    2    1    2    0    0 -0.10416124883E-01  0.21402800746E-01  0.44492635514E-02  0.10197148914E+01  0.10194273335E+01 0.  0.
     999903    2    3    3    0    0 -0.12333758768E+00 -0.35055493137E-01 -0.14066271792E-01  0.13051209073E+00  0.19861965918E-01 0.  0.
         14    1    1    2    0    0  0.10416124883E-01 -0.21402800746E-01 -0.44492635514E-02  0.24215108579E-01  0.00000000000E+00 0. -1.
     999901    1    3    3    0    0  0.11292146280E+00  0.56458293883E-01  0.18515535343E-01  0.88920280069E+00  0.88000000000E+00 0. -1.
        -11    1    4    4    0    0 -0.14997145462E-01 -0.10514616989E-01  0.12950197585E-02  0.18368716330E-01  0.51100000000E-03 0.  1.
         11    1    4    4    0    0 -0.10834044222E+00 -0.24540876147E-01 -0.15361291550E-01  0.11214337440E+00  0.51100000000E-03 0. -1.
</event>
<event>
 8    1  0.1064884E+005  0.1043930E+01  0.7957747E-01            NaN
         13   -1    0    0    0    0  0.00000000000E+00  0.00000000000E+00  0.74505805969E-08  0.10566000000E+00  0.10566000000E+00 0. -1.
     999900   -1    0    0    0    0 -0.00000000000E+00 -0.00000000000E+00 -0.74505805969E-08  0.93827000000E+00  0.93827000000E+00 0. -1.
     999902    2    1    2    0    0 -0.15077170687E-01  0.18776290295E-01  0.30567674723E-03  0.10198475667E+01  0.10195631887E+01 0.  0.
     999903    2    3    3    0    0 -0.92125535214E-01 -0.38987030511E-01  0.82283864431E-01  0.13080680561E+00  0.18239606941E-01 0.  0.
         14    1    1    2    0    0  0.15077170687E-01 -0.18776290295E-01 -0.30567674723E-03  0.24082433254E-01  0.00000000000E+00 0.  1.
     999901    1    3    3    0    0  0.77048364527E-01  0.57763320806E-01 -0.81978187684E-01  0.88904076114E+00  0.88000000000E+00 0. -1.
        -11    1    4    4    0    0 -0.35352113133E-01 -0.96771401541E-02  0.39627007050E-01  0.53981290771E-01  0.51100000000E-03 0. -1.
         11    1    4    4    0    0 -0.56773422081E-01 -0.29309890357E-01  0.42656857381E-01  0.76825514838E-01  0.51100000000E-03 0.  1.
</event>
<event>
 8    1  0.1064884E+005  0.1043930E+01  0.7957747E-01            NaN
         13   -1    0    0    0    0  0.00000000000E+00  0.00000000000E+00  0.74505805969E-08  0.10566000000E+00  0.10566000000E+00 0.  1.
     999900   -1    0    0    0    0 -0.00000000000E+00 -0.00000000000E+00 -0.74505805969E-08  0.93827000000E+00  0.93827000000E+00 0.  1.
     999902    2    1    2    0    0  0.16645781829E-01 -0.17831660824E-01  0.90569742925E-02  0.10179092590E+01  0.10175766215E+01 0.  0.
     999903    2    3    3    0    0 -0.30482296837E-01  0.44055804957E-02 -0.12101190028E+00  0.12682370593E+00  0.22176402281E-01 0.  0.
         14    1    1    2    0    0 -0.16645781829E-01  0.17831660824E-01 -0.90569742925E-02  0.26020741030E-01  0.00000000000E+00 0. -1.
     999901    1    3    3    0    0  0.47128078666E-01 -0.22237241319E-01  0.13006887457E+00  0.89108555304E+00  0.88000000000E+00 0. -1.
        -11    1    4    4    0    0 -0.20607948223E-01  0.12709154048E-01 -0.90679027036E-01  0.93857110502E-01  0.51100000000E-03 0.  1.
         11    1    4    4    0    0 -0.98743486134E-02 -0.83035735528E-02 -0.30332873240E-01  0.32966595431E-01  0.51100000000E-03 0. -1.
</event>
<event>
 8    1  0.1064884E+005  0.1043930E+01  0.7957747E-01            NaN
         13   -1    0    0    0    0  0.00000000000E+00  0.00000000000E+00  0.74505805969E-08  0.10566000000E+00  0.10566000000E+00 0. -1.
     999900   -1    0    0    0    0 -0.00000000000E+00 -0.00000000000E+00 -0.74505805969E-08  0.93827000000E+00  0.93827000000E+00 0. -1.
     999902    2    1    2    0    0 -0.60869038675E-02 -0.99815121051E-02 -0.20676532814E-01  0.10201771056E+01  0.10199005475E+01 0.  0.
     999903    2    3    3    0    0  0.32157378903E-01  0.21730775674E-01  0.11972302645E+00  0.12766361518E+00  0.21402615506E-01 0.  0.
         14    1    1    2    0    0  0.60869038675E-02  0.99815121051E-02  0.20676532814E-01  0.23752894388E-01  0.00000000000E+00 0. -1.
     999901    1    3    3    0    0 -0.38244282770E-01 -0.31712287779E-01 -0.14039955926E+00  0.89251349043E+00  0.88000000000E+00 0. -1.
        -11    1    4    4    0    0  0.19128954220E-01  0.20536233755E-01  0.56374439495E-01  0.62976125125E-01  0.51100000000E-03 0.  1.
         11    1    4    4    0    0  0.13028424683E-01  0.11945419191E-02  0.63348586951E-01  0.64687490056E-01  0.51100000000E-03 0. -1.
</event>
<event>
 8    1  0.1064884E+005  0.1043930E+01  0.7957747E-01            NaN
         13   -1    0    0    0    0  0.00000000000E+00  0.00000000000E+00  0.74505805969E-08  0.10566000000E+00  0.10566000000E+00 0. -1.
     999900   -1    0    0    0    0 -0.00000000000E+00 -0.00000000000E+00 -0.74505805969E-08  0.93827000000E+00  0.93827000000E+00 0.  1.
     999902    2    1    2    0    0 -0.92933915924E-02  0.10753160104E-01  0.18436304087E-01  0.10206513641E+01  0.10203858644E+01 0.  0.
     999903    2    3    3    0    0  0.11791388849E+00  0.39750060367E-01 -0.30228178635E-01  0.12970201416E+00  0.20618372781E-01 0.  0.
         14    1    1    2    0    0  0.92933915924E-02 -0.10753160104E-01 -0.18436304087E-01  0.23278635868E-01  0.00000000000E+00 0.  1.
     999901    1    3    3    0    0 -0.12720728008E+00 -0.28996900263E-01  0.48664482721E-01  0.89094934997E+00  0.88000000000E+00 0. -1.
        -11    1    4    4    0    0  0.34413010205E-01  0.10766825936E-01  0.66959409970E-03  0.36067842871E-01  0.51100000000E-03 0.  1.
         11    1    4    4    0    0  0.83500878286E-01  0.28983234431E-01 -0.30897772734E-01  0.93634171292E-01  0.51100000000E-03 0. -1.
</event>
<event>
 8    1  0.1064884E+005  0.1043930E+01  0.7957747E-01            NaN
         13   -1    0    0    0    0  0.00000000000E+00  0.00000000000E+00  0.74505805969E-08  0.10566000000E+00  0.10566000000E+00 0. -1.
     999900   -1    0    0    0    0 -0.00000000000E+00 -0.00000000000E+00 -0.74505805969E-08  0.93827000000E+00  0.93827000000E+00 0. -1.
     999902    2    1    2    0    0 -0.57292344188E-02  0.12274096537E-01  0.18283022772E-01  0.10211759565E+01  0.10209224200E+01 0.  0.
     999903    2    3    3    0    0  0.60601033080E-01  0.35294699452E-01  0.11176552893E+00  0.13344365932E+00  0.19936793485E-01 0.  0.
         14    1    1    2    0    0  0.57292344188E-02 -0.12274096537E-01 -0.18283022772E-01  0.22754043476E-01  0.00000000000E+00 0.  1.
     999901    1    3    3    0    0 -0.66330267498E-01 -0.23020602914E-01 -0.93482506161E-01  0.88773229721E+00  0.88000000000E+00 0. -1.
        -11    1    4    4    0    0  0.22211430399E-01  0.36707569657E-02  0.43449893804E-01  0.48938497011E-01  0.51100000000E-03 0.  1.
         11    1    4    4    0    0  0.38389602680E-01  0.31623942486E-01  0.68315635130E-01  0.84505162307E-01  0.51100000000E-03 0. -1.
</event>
<event>
 8    1  0.1064884E+005  0.1043930E+01  0.7957747E-01            NaN
         13   -1    0    0    0    0  0.00000000000E+00  0.00000000000E+00  0.74505805969E-08  0.10566000000E+00  0.10566000000E+00 0.  1.
     999900   -1    0    0    0    0 -0.00000000000E+00 -0.00000000000E+00 -0.74505805969E-08  0.93827000000E+00  0.93827000000E+00 0. -1.
     999902    2    1    2    0    0 -0.19917408878E-01  0.12236315173E-01 -0.80382284396E-03  0.10205403288E+01  0.10202722608E+01 0.  0.
     999903    2    3    3    0    0 -0.95294999769E-01  0.78250721633E-01  0.47176804358E-01  0.13355564823E+00  0.20177905918E-01 0.  0.
         14    1    1    2    0    0  0.19917408878E-01 -0.12236315173E-01  0.80382284396E-03  0.23389671151E-01  0.00000000000E+00 0.  1.
     999901    1    3    3    0    0  0.75377590891E-01 -0.66014406461E-01 -0.47980627202E-01  0.88698468062E+00  0.88000000000E+00 0. -1.
        -11    1    4    4    0    0 -0.88314227148E-01  0.72745069290E-01  0.48994469960E-01  0.12446673062E+00  0.51100000000E-03 0. -1.
         11    1    4    4    0    0 -0.69807726212E-02  0.55056523429E-02 -0.18176656023E-02  0.90889176117E-02  0.51100000000E-03 0.  1.
</event>
<event>
 8    1  0.1064884E+005  0.1043930E+01  0.7957747E-01            NaN
         13   -1    0    0    0    0  0.00000000000E+00  0.00000000000E+00  0.74505805969E-08  0.10566000000E+00  0.10566000000E+00 0.  1.
     999900   -1    0    0    0    0 -0.00000000000E+00 -0.00000000000E+00 -0.74505805969E-08  0.93827000000E+00  0.93827000000E+00 0. -1.
     999902    2    1    2    0    0 -0.19630545453E-01 -0.83220501610E-02 -0.10420503530E-01  0.10201981284E+01  0.10199220654E+01 0.  0.
     999903    2    3    3    0    0 -0.80551946766E-01 -0.91512457583E-01  0.47394530393E-01  0.13229349439E+00  0.19803563485E-01 0.  0.
         14    1    1    2    0    0  0.19630545453E-01  0.83220501610E-02  0.10420503530E-01  0.23731871555E-01  0.00000000000E+00 0.  1.
     999901    1    3    3    0    0  0.60921401313E-01  0.83190407422E-01 -0.57815033924E-01  0.88790463405E+00  0.88000000000E+00 0. -1.
        -11    1    4    4    0    0 -0.22920912769E-01 -0.20977385468E-01  0.20834858281E-01  0.37413518731E-01  0.51100000000E-03 0. -1.
         11    1    4    4    0    0 -0.57631033997E-01 -0.70535072114E-01  0.26559672112E-01  0.94879975661E-01  0.51100000000E-03 0.  1.
</event>
<event>
 8    1  0.1064884E+005  0.1043930E+01  0.7957747E-01            NaN
         13   -1    0    0    0    0  0.00000000000E+00  0.00000000000E+00  0.74505805969E-08  0.10566000000E+00  0.10566000000E+00 0. -1.
     999900   -1    0    0    0    0 -0.00000000000E+00 -0.00000000000E+00 -0.74505805969E-08  0.93827000000E+00  0.93827000000E+00 0.  1.
     999902    2    1    2    0    0 -0.76483080326E-02  0.65776111032E-02  0.22842641517E-01  0.10189590598E+01  0.10186530409E+01 0.  0.
     999903    2    3    3    0    0 -0.66676648225E-01  0.79372003917E-01 -0.73599737503E-01  0.12874307417E+00  0.20301905402E-01 0.  0.
         14    1    1    2    0    0  0.76483080326E-02 -0.65776111032E-02 -0.22842641517E-01  0.24970940212E-01  0.00000000000E+00 0.  1.
     999901    1    3    3    0    0  0.59028340193E-01 -0.72794392813E-01  0.96442379021E-01  0.89021598561E+00  0.88000000000E+00 0. -1.
        -11    1    4    4    0    0 -0.36143595664E-01  0.27833749741E-01 -0.29010415272E-01  0.54064243705E-01  0.51100000000E-03 0. -1.
         11    1    4    4    0    0 -0.30533052562E-01  0.51538254175E-01 -0.44589322231E-01  0.74678830469E-01  0.51100000000E-03 0.  1.
</event>
<event>
 8    1  0.1064884E+005  0.1043930E+01  0.7957747E-01            NaN
         13   -1    0    0    0    0  0.00000000000E+00  0.00000000000E+00  0.74505805969E-08  0.10566000000E+00  0.10566000000E+00 0. -1.
     999900   -1    0    0    0    0 -0.00000000000E+00 -0.00000000000E+00 -0.74505805969E-08  0.93827000000E+00  0.93827000000E+00 0. -1.
     999902    2    1    2    0    0 -0.63480477680E-02  0.10135359538E-01 -0.28756055510E-02  0.10316299053E+01  0.10315565758E+01 0.  0.
     999903    2    3    3    0    0 -0.41703220239E-01 -0.88210733099E-01 -0.98758981499E-01  0.14027387990E+00  0.20078170807E-01 0.  0.
         14    1    1    2    0    0  0.63480477680E-02 -0.10135359538E-01  0.28756055510E-02  0.12300094744E-01  0.00000000000E+00 0. -1.
     999901    1    3    3    0    0  0.35355172471E-01  0.98346092637E-01  0.95883375948E-01  0.89135602536E+00  0.88000000000E+00 0.  1.
        -11    1    4    4    0    0 -0.38107478933E-01 -0.61404736774E-01 -0.66919943673E-01  0.98494982771E-01  0.51100000000E-03 0. -1.
         11    1    4    4    0    0 -0.35957413067E-02 -0.26805996325E-01 -0.31839037825E-01  0.41778897127E-01  0.51100000000E-03 0.  1.
</event>
<event>
 8    1  0.1064884E+005  0.1043930E+01  0.7957747E-01            NaN
         13   -1    0    0    0    0  0.00000000000E+00  0.00000000000E+00  0.74505805969E-08  0.10566000000E+00  0.10566000000E+00 0.  1.
     999900   -1    0    0    0    0 -0.00000000000E+00 -0.00000000000E+00 -0.74505805969E-08  0.93827000000E+00  0.93827000000E+00 0. -1.
     999902    2    1    2    0    0 -0.19817734259E-01 -0.94010619837E-02 -0.93322481158E-02  0.10200927726E+01  0.10198142239E+01 0.  0.
     999903    2    3    3    0    0 -0.28410406983E-01  0.13552534633E-01  0.12417291519E+00  0.12968593843E+00  0.20216511542E-01 0.  0.
         14    1    1    2    0    0  0.19817734259E-01  0.94010619837E-02  0.93322481158E-02  0.23837227449E-01  0.00000000000E+00 0.  1.
     999901    1    3    3    0    0  0.85926727244E-02 -0.22953596617E-01 -0.13350516331E+00  0.89040683412E+00  0.88000000000E+00 0. -1.
        -11    1    4    4    0    0 -0.26381873163E-01  0.41602140588E-02  0.75905938707E-01  0.80469144798E-01  0.51100000000E-03 0.  1.
         11    1    4    4    0    0 -0.20285338195E-02  0.93923205741E-02  0.48266976485E-01  0.49216793630E-01  0.51100000000E-03 0. -1.
</event>
<event>
 8    1  0.1064884E+005  0.1043930E+01  0.7957747E-01            NaN
         13   -1    0    0    0    0  0.00000000000E+00  0.00000000000E+00  0.74505805969E-08  0.10566000000E+00  0.10566000000E+00 0.  1.
     999900   -1    0    0    0    0 -0.00000000000E+00 -0.00000000000E+00 -0.74505805969E-08  0.93827000000E+00  0.93827000000E+00 0.  1.
     999902    2    1    2    0    0 -0.15179858717E-01 -0.94084345095E-02  0.15258200957E-01  0.10204404396E+01  0.10201700502E+01 0.  0.
     999903    2    3    3    0    0 -0.81694017640E-01  0.44440497098E-01  0.89500836267E-01  0.13317733903E+00  0.32816667061E-01 0.  0.
         14    1    1    2    0    0  0.15179858717E-01  0.94084345095E-02 -0.15258200957E-01  0.23489560384E-01  0.00000000000E+00 0. -1.
     999901    1    3    3    0    0  0.66514158923E-01 -0.53848931608E-01 -0.74242635310E-01  0.88726310059E+00  0.88000000000E+00 0.  1.
        -11    1    4    4    0    0 -0.69453869377E-01  0.23531291084E-01  0.75205390096E-01  0.10504129403E+00  0.51100000000E-03 0.  1.
         11    1    4    4    0    0 -0.12240148263E-01  0.20909206014E-01  0.14295446170E-01  0.28136044993E-01  0.51100000000E-03 0. -1.
</event>
<event>
 8    1  0.1064884E+005  0.1043930E+01  0.7957747E-01            NaN
         13   -1    0    0    0    0  0.00000000000E+00  0.00000000000E+00  0.74505805969E-08  0.10566000000E+00  0.10566000000E+00 0. -1.
     999900   -1    0    0    0    0 -0.00000000000E+00 -0.00000000000E+00 -0.74505805969E-08  0.93827000000E+00  0.93827000000E+00 0. -1.
     999902    2    1    2    0    0  0.15028042485E-01 -0.12952543068E-01 -0.29177560371E-03  0.10240882368E+01  0.10238960012E+01 0.  0.
     999903    2    3    3    0    0 -0.91953727337E-01 -0.20659812079E-01 -0.91464552349E-01  0.13289971789E+00  0.20353252113E-01 0.  0.
         14    1    1    2    0    0 -0.15028042485E-01  0.12952543068E-01  0.29177560371E-03  0.19841763174E-01  0.00000000000E+00 0.  1.
     999901    1    3    3    0    0  0.10698176982E+00  0.77072690110E-02  0.91172776745E-01  0.89118851894E+00  0.88000000000E+00 0.  1.
        -11    1    4    4    0    0 -0.76445952062E-01 -0.12327722937E-01 -0.64944442518E-01  0.10106432642E+00  0.51100000000E-03 0. -1.
         11    1    4    4    0    0 -0.15507775275E-01 -0.83320891427E-02 -0.26520109831E-01  0.31835391468E-01  0.51100000000E-03 0.  1.
</event>
<event>
 7    1  0.1064884E+005  0.1043930E+01  0.7957747E-01            NaN
         13   -1    0    0    0    0  0.00000000000E+00  0.00000000000E+00  0.74505805969E-08  0.10566000000E+00  0.10566000000E+00 0.  1.
     999900   -1    0    0    0    0 -0.00000000000E+00 -0.00000000000E+00 -0.74505805969E-08  0.93827000000E+00  0.93827000000E+00 0.  1.
     999903    2    1    2    0    0  0.36986023117E-01  0.73490972115E-01  0.30862881842E-01  0.90359462019E-01  0.21057682980E-01 0.  0.
         14    1    1    2    0    0 -0.13826436923E-01  0.29005765877E-01 -0.58658745264E-01  0.66883130968E-01  0.00000000000E+00 0.  1.
     999901    1    1    2    0    0 -0.23159586194E-01 -0.10249673799E+00  0.27795863423E-01  0.88668740701E+00  0.88000000000E+00 0. -1.
        -11    1    3    3    0    0  0.23012658768E-01  0.38663740334E-01  0.61286124272E-02  0.45412424417E-01  0.51100000000E-03 0. -1.
         11    1    3    3    0    0  0.13973364349E-01  0.34827231781E-01  0.24734269414E-01  0.44947037602E-01  0.51100000000E-03 0.  1.
</event>
<event>
 8    1  0.1064884E+005  0.1043930E+01  0.7957747E-01            NaN
         13   -1    0    0    0    0  0.00000000000E+00  0.00000000000E+00  0.74505805969E-08  0.10566000000E+00  0.10566000000E+00 0. -1.
     999900   -1    0    0    0    0 -0.00000000000E+00 -0.00000000000E+00 -0.74505805969E-08  0.93827000000E+00  0.93827000000E+00 0. -1.
     999902    2    1    2    0    0  0.14366055993E-01 -0.44736485385E-02  0.19067620605E-01  0.10196406762E+01  0.10193513316E+01 0.  0.
     999903    2    3    3    0    0  0.97296502648E-01  0.66597323965E-01  0.56051494792E-01  0.13211808545E+00  0.20288061676E-01 0.  0.
         14    1    1    2    0    0 -0.14366055993E-01  0.44736485385E-02 -0.19067620605E-01  0.24289323819E-01  0.00000000000E+00 0. -1.
     999901    1    3    3    0    0 -0.82930446655E-01 -0.71070972504E-01 -0.36983874187E-01  0.88752259073E+00  0.88000000000E+00 0. -1.
        -11    1    4    4    0    0  0.57137325274E-01  0.48292149597E-01  0.42007529777E-01  0.85800345752E-01  0.51100000000E-03 0. -1.
         11    1    4    4    0    0  0.40159177374E-01  0.18305174368E-01  0.14043965015E-01  0.46317739694E-01  0.51100000000E-03 0.  1.
</event>
<event>
 8    1  0.1064884E+005  0.1043930E+01  0.7957747E-01            NaN
         13   -1    0    0    0    0  0.00000000000E+00  0.00000000000E+00  0.74505805969E-08  0.10566000000E+00  0.10566000000E+00 0. -1.
     999900   -1    0    0    0    0 -0.00000000000E+00 -0.00000000000E+00 -0.74505805969E-08  0.93827000000E+00  0.93827000000E+00 0.  1.
     999902    2    1    2    0    0  0.18453195756E-01 -0.98151641898E-02 -0.95159397206E-03  0.10230072035E+01  0.10227932220E+01 0.  0.
     999903    2    3    3    0    0  0.77243540902E-01  0.10567999814E+00  0.16663770482E-01  0.13334112106E+00  0.19166290719E-01 0.  0.
         14    1    1    2    0    0 -0.18453195756E-01  0.98151641898E-02  0.95159397206E-03  0.20922796486E-01  0.00000000000E+00 0. -1.
     999901    1    3    3    0    0 -0.58790345145E-01 -0.11549516233E+00 -0.17615364454E-01  0.88966608245E+00  0.88000000000E+00 0. -1.
        -11    1    4    4    0    0  0.29243496751E-01  0.26059093343E-01  0.78572709334E-02  0.39953176039E-01  0.51100000000E-03 0. -1.
         11    1    4    4    0    0  0.48000044151E-01  0.79620904802E-01  0.88064995484E-02  0.93387945021E-01  0.51100000000E-03 0.  1.
</event>
<event>
 8    1  0.1064884E+005  0.1043930E+01  0.7957747E-01            NaN
         13   -1    0    0    0    0  0.00000000000E+00  0.00000000000E+00  0.74505805969E-08  0.10566000000E+00  0.10566000000E+00 0.  1.
     999900   -1    0    0    0    0 -0.00000000000E+00 -0.00000000000E+00 -0.74505805969E-08  0.93827000000E+00  0.93827000000E+00 0.  1.
     999902    2    1    2    0    0 -0.11423352403E-01 -0.14718226246E-03  0.21334378102E-01  0.10197293733E+01  0.10194421634E+01 0.  0.
     999903    2    3    3    0    0 -0.10390498025E+00 -0.73892267310E-01 -0.45091869629E-02  0.13143939875E+00  0.31617569310E-01 0.  0.
         14    1    1    2    0    0  0.11423352403E-01  0.14718226246E-03 -0.21334378102E-01  0.24200626680E-01  0.00000000000E+00 0. -1.
     999901    1    3    3    0    0  0.92481627847E-01  0.73745085047E-01  0.25843565064E-01  0.88828997457E+00  0.88000000000E+00 0. -1.
        -11    1    4    4    0    0 -0.42980324372E-02 -0.59418562114E-02  0.72054827398E-02  0.10293631069E-01  0.51100000000E-03 0.  1.
         11    1    4    4    0    0 -0.99606947812E-01 -0.67950411098E-01 -0.11714669703E-01  0.12114576769E+00  0.51100000000E-03 0. -1.
</event>
<event>
 8    1  0.1064884E+005  0.1043930E+01  0.7957747E-01            NaN
         13   -1    0    0    0    0  0.00000000000E+00  0.00000000000E+00  0.74505805969E-08  0.10566000000E+00  0.10566000000E+00 0. -1.
     999900   -1    0    0    0    0 -0.00000000000E+00 -0.00000000000E+00 -0.74505805969E-08  0.93827000000E+00  0.93827000000E+00 0. -1.
     999902    2    1    2    0    0  0.13115370231E-01 -0.12376572484E-01 -0.16849910464E-01  0.10192498062E+01  0.10189509583E+01 0.  0.
     999903    2    3    3    0    0 -0.24597320198E-01  0.75317365489E-01  0.96868366534E-01  0.12681251413E+00  0.20498770693E-01 0.  0.
         14    1    1    2    0    0 -0.13115370231E-01  0.12376572484E-01  0.16849910464E-01  0.24680193787E-01  0.00000000000E+00 0. -1.
     999901    1    3    3    0    0  0.37712690429E-01 -0.87693937973E-01 -0.11371827700E+00  0.89243729208E+00  0.88000000000E+00 0. -1.
        -11    1    4    4    0    0 -0.16898204612E-01  0.37265507380E-01  0.35396847589E-01  0.54106056035E-01  0.51100000000E-03 0. -1.
         11    1    4    4    0    0 -0.76991155862E-02  0.38051858108E-01  0.61471518945E-01  0.72706458095E-01  0.51100000000E-03 0.  1.
</event>
<event>
 8    1  0.1064884E+005  0.1043930E+01  0.7957747E-01            NaN
         13   -1    0    0    0    0  0.00000000000E+00  0.00000000000E+00  0.74505805969E-08  0.10566000000E+00  0.10566000000E+00 0. -1.
     999900   -1    0    0    0    0 -0.00000000000E+00 -0.00000000000E+00 -0.74505805969E-08  0.93827000000E+00  0.93827000000E+00 0.  1.
     999902    2    1    2    0    0  0.12505065684E-01  0.27066555376E-01  0.20081713591E-01  0.10079821168E+01  0.10073409043E+01 0.  0.
     999903    2    3    3    0    0  0.70337670752E-01 -0.91550854087E-01 -0.10973520504E-01  0.11760066616E+00  0.19507734812E-01 0.  0.
         14    1    1    2    0    0 -0.12505065684E-01 -0.27066555376E-01 -0.20081713591E-01  0.35947883226E-01  0.00000000000E+00 0.  1.
     999901    1    3    3    0    0 -0.57832605068E-01  0.11861740946E+00  0.31055234096E-01  0.89038145062E+00  0.88000000000E+00 0.  1.
        -11    1    4    4    0    0  0.59107338158E-01 -0.67460397831E-01 -0.14239637877E-01  0.90816359250E-01  0.51100000000E-03 0.  1.
         11    1    4    4    0    0  0.11230332594E-01 -0.24090456256E-01  0.32661173723E-02  0.26784306907E-01  0.51100000000E-03 0. -1.
</event>
<event>
 8    1  0.1064884E+005  0.1043930E+01  0.7957747E-01            NaN
         13   -1    0    0    0    0  0.00000000000E+00  0.00000000000E+00  0.74505805969E-08  0.10566000000E+00  0.10566000000E+00 0.  1.
     999900   -1    0    0    0    0 -0.00000000000E+00 -0.00000000000E+00 -0.74505805969E-08  0.93827000000E+00  0.93827000000E+00 0. -1.
     999902    2    1    2    0    0 -0.22855069598E-01  0.55252476719E-02  0.69806207285E-02  0.10194022273E+01  0.10191071040E+01 0.  0.
     999903    2    3    3    0    0  0.23321054694E-02  0.54504334885E-01 -0.11554947397E+00  0.12920732230E+00  0.19149150446E-01 0.  0.
         14    1    1    2    0    0  0.22855069598E-01 -0.55252476719E-02 -0.69806207285E-02  0.24527772707E-01  0.00000000000E+00 0.  1.
     999901    1    3    3    0    0 -0.25187175068E-01 -0.48979087213E-01  0.12253009470E+00  0.89019490500E+00  0.88000000000E+00 0.  1.
        -11    1    4    4    0    0 -0.41517174562E-02  0.18639440749E-01 -0.24041122464E-01  0.30706712615E-01  0.51100000000E-03 0.  1.
         11    1    4    4    0    0  0.64838229256E-02  0.35864894136E-01 -0.91508351509E-01  0.98500609683E-01  0.51100000000E-03 0. -1.
</event>
<event>
 8    1  0.1064884E+005  0.1043930E+01  0.7957747E-01            NaN
         13   -1    0    0    0    0  0.00000000000E+00  0.00000000000E+00  0.74505805969E-08  0.10566000000E+00  0.10566000000E+00 0. -1.
     999900   -1    0    0    0    0 -0.00000000000E+00 -0.00000000000E+00 -0.74505805969E-08  0.93827000000E+00  0.93827000000E+00 0. -1.
     999902    2    1    2    0    0  0.78830003633E-02  0.15196991649E-01 -0.15901045868E-01  0.10205647799E+01  0.10202972785E+01 0.  0.
     999903    2    3    3    0    0 -0.16560190925E-02  0.79623609155E-01 -0.10546801675E+00  0.13362395652E+00  0.19728093252E-01 0.  0.
         14    1    1    2    0    0 -0.78830003633E-02 -0.15196991649E-01  0.15901045868E-01  0.23365220085E-01  0.00000000000E+00 0. -1.
     999901    1    3    3    0    0  0.95390194558E-02 -0.64426617506E-01  0.89566970886E-01  0.88694082340E+00  0.88000000000E+00 0. -1.
        -11    1    4    4    0    0 -0.57384886527E-02  0.75117314742E-01 -0.92547453316E-01  0.11933496329E+00  0.51100000000E-03 0.  1.
         11    1    4    4    0    0  0.40824695602E-02  0.45062944136E-02 -0.12920563438E-01  0.14288993233E-01  0.51100000000E-03 0. -1.
</event>
<event>
 8    1  0.1064884E+005  0.1043930E+01  0.7957747E-01            NaN
         13   -1    0    0    0    0  0.00000000000E+00  0.00000000000E+00  0.74505805969E-08  0.10566000000E+00  0.10566000000E+00 0.  1.
     999900   -1    0    0    0    0 -0.00000000000E+00 -0.00000000000E+00 -0.74505805969E-08  0.93827000000E+00  0.93827000000E+00 0.  1.
     999902    2    1    2    0    0  0.15474219112E-01 -0.16828348098E-01 -0.50569157980E-02  0.10205159625E+01  0.10202473291E+01 0.  0.
     999903    2    3    3    0    0  0.10305753820E+00 -0.73041973168E-01 -0.39069220862E-01  0.13373095676E+00  0.20039429963E-01 0.  0.
         14    1    1    2    0    0 -0.15474219112E-01  0.16828348098E-01  0.50569157980E-02  0.23414037546E-01  0.00000000000E+00 0.  1.
     999901    1    3    3    0    0 -0.87583319088E-01  0.56213625070E-01  0.34012305064E-01  0.88678500569E+00  0.88000000000E+00 0. -1.
        -11    1    4    4    0    0  0.71523207330E-01 -0.52254328666E-01 -0.36707319714E-01  0.95884161845E-01  0.51100000000E-03 0. -1.
         11    1    4    4    0    0  0.31534330870E-01 -0.20787644502E-01 -0.23619011477E-02  0.37846794916E-01  0.51100000000E-03 0.  1.
</event>
<event>
 8    1  0.1064884E+005  0.1043930E+01  0.7957747E-01            NaN
         13   -1    0    0    0    0  0.00000000000E+00  0.00000000000E+00  0.74505805969E-08  0.10566000000E+00  0.10566000000E+00 0. -1.
     999900   -1    0    0    0    0 -0.00000000000E+00 -0.00000000000E+00 -0.74505805969E-08  0.93827000000E+00  0.93827000000E+00 0. -1.
     999902    2    1    2    0    0 -0.66659116305E-02 -0.28732091125E-02 -0.23355071541E-01  0.10194729136E+01  0.10191795095E+01 0.  0.
     999903    2    3    3    0    0  0.24611183743E-01  0.75002341092E-01  0.97684648812E-01  0.12723221070E+00  0.20363773984E-01 0.  0.
         14    1    1    2    0    0  0.66659116305E-02  0.28732091125E-02  0.23355071541E-01  0.24457086399E-01  0.00000000000E+00 0. -1.
     999901    1    3    3    0    0 -0.31277095373E-01 -0.77875550204E-01 -0.12103972035E+00  0.89224070290E+00  0.88000000000E+00 0. -1.
        -11    1    4    4    0    0  0.11285924618E-01  0.34345661562E-01  0.29176377803E-01  0.46459861228E-01  0.51100000000E-03 0. -1.
         11    1    4    4    0    0  0.13325259125E-01  0.40656679530E-01  0.68508271009E-01  0.80772349469E-01  0.51100000000E-03 0.  1.
</event>
<event>
 8    1  0.1064884E+005  0.1043930E+01  0.7957747E-01            NaN
         13   -1    0    0    0    0  0.00000000000E+00  0.00000000000E+00  0.74505805969E-08  0.10566000000E+00  0.10566000000E+00 0.  1.
     999900   -1    0    0    0    0 -0.00000000000E+00 -0.00000000000E+00 -0.74505805969E-08  0.93827000000E+00  0.93827000000E+00 0. -1.
     999902    2    1    2    0    0  0.16020172741E-01  0.11437485299E-01 -0.13072785326E-01  0.10203003635E+01  0.10200267016E+01 0.  0.
     999903    2    3    3    0    0  0.11014085602E+00  0.16786366394E-01 -0.71360684336E-01  0.13334783224E+00  0.16628494574E-01 0.  0.
         14    1    1    2    0    0 -0.16020172741E-01 -0.11437485299E-01  0.13072785326E-01  0.23629636493E-01  0.00000000000E+00 0.  1.
     999901    1    3    3    0    0 -0.94120683282E-01 -0.53488810947E-02  0.58287899009E-01  0.88695253127E+00  0.88000000000E+00 0.  1.
        -11    1    4    4    0    0  0.19946704164E-01  0.44625472218E-02 -0.21013525853E-01  0.29319186969E-01  0.51100000000E-03 0. -1.
         11    1    4    4    0    0  0.90194151859E-01  0.12323819172E-01 -0.50347158483E-01  0.10402864527E+00  0.51100000000E-03 0.  1.
</event>
<event>
 8    1  0.1064884E+005  0.1043930E+01  0.7957747E-01            NaN
         13   -1    0    0    0    0  0.00000000000E+00  0.00000000000E+00  0.74505805969E-08  0.10566000000E+00  0.10566000000E+00 0. -1.
     999900   -1    0    0    0    0 -0.00000000000E+00 -0.00000000000E+00 -0.74505805969E-08  0.93827000000E+00  0.93827000000E+00 0.  1.
     999902    2    1    2    0    0  0.13283411377E-01  0.99465554990E-02 -0.16112794152E-01  0.10207998223E+01  0.10205377367E+01 0.  0.
     999903    2    3    3    0    0  0.13039582121E+00  0.10356843679E-01 -0.12483873722E-01  0.13303371915E+00  0.20779531439E-01 0.  0.
         14    1    1    2    0    0 -0.13283411377E-01 -0.99465554990E-02  0.16112794152E-01  0.23130177680E-01  0.00000000000E+00 0.  1.
     999901    1    3    3    0    0 -0.11711240984E+00 -0.41028818017E-03 -0.36289204300E-02  0.88776610317E+00  0.88000000000E+00 0.  1.
        -11    1    4    4    0    0  0.86757331748E-01 -0.29764738708E-02 -0.76935824693E-02  0.87150136781E-01  0.51100000000E-03 0.  1.
         11    1    4    4    0    0  0.43638489466E-01  0.13333317550E-01 -0.47902912529E-02  0.45883582369E-01  0.51100000000E-03 0. -1.
</event>
<event>
 7    1  0.1064884E+005  0.1043930E+01  0.7957747E-01            NaN
         13   -1    0    0    0    0  0.00000000000E+00  0.00000000000E+00  0.74505805969E-08  0.10566000000E+00  0.10566000000E+00 0.  1.
     999900   -1    0    0    0    0 -0.00000000000E+00 -0.00000000000E+00 -0.74505805969E-08  0.93827000000E+00  0.93827000000E+00 0. -1.
     999902    2    1    2    0    0  0.10902809929E-02 -0.16822763531E-01  0.16363101757E-01  0.10204364863E+01  0.10201660048E+01 0.  0.
         14    1    1    2    0    0 -0.10902809929E-02  0.16822763531E-01 -0.16363101757E-01  0.23493513670E-01  0.00000000000E+00 0. -1.
     999901    1    3    3    0    0  0.31215167698E-01  0.10336803148E+00 -0.10321742728E-01  0.88665995455E+00  0.88000000000E+00 0.  1.
        -11    1    3    3    0    0 -0.21897111276E-01 -0.51790224673E-01  0.31960036765E-01  0.64679331513E-01  0.51100000000E-03 0.  1.
         11    1    3    3    0    0 -0.82277754290E-02 -0.68400570334E-01 -0.52751922800E-02  0.69097200270E-01  0.51100000000E-03 0. -1.
</event>
<event>
 8    1  0.1064884E+005  0.1043930E+01  0.7957747E-01            NaN
         13   -1    0    0    0    0  0.00000000000E+00  0.00000000000E+00  0.74505805969E-08  0.10566000000E+00  0.10566000000E+00 0. -1.
     999900   -1    0    0    0    0 -0.00000000000E+00 -0.00000000000E+00 -0.74505805969E-08  0.93827000000E+00  0.93827000000E+00 0.  1.
     999902    2    1    2    0    0 -0.56222408031E-02  0.18253939007E-01  0.13969680943E-01  0.10202663598E+01  0.10199919005E+01 0.  0.
     999903    2    3    3    0    0  0.87916167997E-01 -0.75581192899E-01  0.53870111368E-01  0.12945408428E+00  0.20361771124E-01 0.  0.
         14    1    1    2    0    0  0.56222408031E-02 -0.18253939007E-01 -0.13969680943E-01  0.23663640180E-01  0.00000000000E+00 0.  1.
     999901    1    3    3    0    0 -0.93538408800E-01  0.93835131906E-01 -0.39900430426E-01  0.89081227554E+00  0.88000000000E+00 0.  1.
        -11    1    4    4    0    0  0.69608097349E-01 -0.69039693209E-01  0.41914376552E-01  0.10662477450E+00  0.51100000000E-03 0.  1.
         11    1    4    4    0    0  0.18308070648E-01 -0.65414996900E-02  0.11955734816E-01  0.22829309780E-01  0.51100000000E-03 0. -1.
</event>
<event>
 8    1  0.1064884E+005  0.1043930E+01  0.7957747E-01            NaN
         13   -1    0    0    0    0  0.00000000000E+00  0.00000000000E+00  0.74505805969E-08  0.10566000000E+00  0.10566000000E+00 0. -1.
     999900   -1    0    0    0    0 -0.00000000000E+00 -0.00000000000E+00 -0.74505805969E-08  0.93827000000E+00  0.93827000000E+00 0.  1.
     999902    2    1    2    0    0 -0.11506259463E-01 -0.11267505576E-01 -0.17035994278E-01  0.10204869671E+01  0.10202176603E+01 0.  0.
     999903    2    3    3    0    0  0.84629797315E-01 -0.96682359053E-01  0.13170638913E-01  0.13062727073E+00  0.19502230194E-01 0.  0.
         14    1    1    2    0    0  0.11506259463E-01  0.11267505576E-01  0.17035994278E-01  0.23443032862E-01  0.00000000000E+00 0. -1.
     999901    1    3    3    0    0 -0.96136056779E-01  0.85414853477E-01 -0.30206633190E-01  0.88985969641E+00  0.88000000000E+00 0. -1.
        -11    1    4    4    0    0  0.67006872145E-01 -0.64298229164E-01  0.59781722634E-02  0.93060103443E-01  0.51100000000E-03 0. -1.
         11    1    4    4    0    0  0.17622925171E-01 -0.32384129889E-01  0.71924666492E-02  0.37567167284E-01  0.51100000000E-03 0.  1.
</event>
<event>
 8    1  0.1162901E+005  0.1043930E+01  0.7957747E-01            NaN
         13   -1    0    0    0    0  0.00000000000E+00  0.00000000000E+00  0.74505805969E-08  0.10566000000E+00  0.10566000000E+00 0. -1.
     999900   -1    0    0    0    0 -0.00000000000E+00 -0.00000000000E+00 -0.74505805969E-08  0.93827000000E+00  0.93827000000E+00 0. -1.
     999902    2    1    2    0    0  0.52528897670E-02  0.16073503535E-01  0.16165385019E-01  0.10205361966E+01  0.10202680326E+01 0.  0.
     999903    2    3    3    0    0 -0.10492185432E+00 -0.48255152747E-01  0.57253343071E-01  0.13038740531E+00  0.19641152971E-01 0.  0.
         14    1    1    2    0    0 -0.52528897670E-02 -0.16073503535E-01 -0.16165385019E-01  0.23393803444E-01  0.00000000000E+00 0. -1.
     999901    1    3    3    0    0  0.11017474409E+00  0.64328656281E-01 -0.41087958053E-01  0.89014879124E+00  0.88000000000E+00 0. -1.
        -11    1    4    4    0    0 -0.69591508728E-01 -0.31817797524E-01  0.48010168317E-01  0.90335971291E-01  0.51100000000E-03 0. -1.
         11    1    4    4    0    0 -0.35330345596E-01 -0.16437355223E-01  0.92431747541E-02  0.40051434022E-01  0.51100000000E-03 0.  1.
</event>
<event>
 8    1  0.1064884E+005  0.1043930E+01  0.7957747E-01            NaN
         13   -1    0    0    0    0  0.00000000000E+00  0.00000000000E+00  0.74505805969E-08  0.10566000000E+00  0.10566000000E+00 0.  1.
     999900   -1    0    0    0    0 -0.00000000000E+00 -0.00000000000E+00 -0.74505805969E-08  0.93827000000E+00  0.93827000000E+00 0.  1.
     999902    2    1    2    0    0  0.20890268438E-02 -0.23808932708E-01  0.30280303541E-03  0.10200276779E+01  0.10197475878E+01 0.  0.
     999903    2    3    3    0    0 -0.13119860988E-01 -0.33784619751E-01 -0.12352136694E+00  0.13117265621E+00  0.25203300630E-01 0.  0.
         14    1    1    2    0    0 -0.20890268438E-02  0.23808932708E-01 -0.30280303541E-03  0.23902322053E-01  0.00000000000E+00 0.  1.
     999901    1    3    3    0    0  0.15208887832E-01  0.99756870432E-02  0.12382416997E+00  0.88885502174E+00  0.88000000000E+00 0. -1.
        -11    1    4    4    0    0  0.64226998155E-02 -0.14614311532E-01 -0.34132346308E-01  0.37684311855E-01  0.51100000000E-03 0. -1.
         11    1    4    4    0    0 -0.19542560803E-01 -0.19170308220E-01 -0.89389020628E-01  0.93488344353E-01  0.51100000000E-03 0.  1.
</event>
<event>
 8    1  0.1064884E+005  0.1043930E+01  0.7957747E-01            NaN
         13   -1    0    0    0    0  0.00000000000E+00  0.00000000000E+00  0.74505805969E-08  0.10566000000E+00  0.10566000000E+00 0.  1.
     999900   -1    0    0    0    0 -0.00000000000E+00 -0.00000000000E+00 -0.74505805969E-08  0.93827000000E+00  0.93827000000E+00 0. -1.
     999902    2    1    2    0    0 -0.48838413461E-02 -0.10397825452E-01 -0.20800118172E-01  0.10201684429E+01  0.10198916807E+01 0.  0.
     999903    2    3    3    0    0 -0.12782940336E+00  0.18869312369E-01 -0.83530405575E-03  0.13091551465E+00  0.21018252352E-01 0.  0.
         14    1    1    2    0    0  0.48838413461E-02  0.10397825452E-01  0.20800118172E-01  0.23761557112E-01  0.00000000000E+00 0.  1.
     999901    1    3    3    0    0  0.12294556201E+00 -0.29267137822E-01 -0.19964814116E-01  0.88925292824E+00  0.88000000000E+00 0. -1.
        -11    1    4    4    0    0 -0.45505662758E-01  0.15294090437E-01 -0.58240862928E-02  0.48361716755E-01  0.51100000000E-03 0. -1.
         11    1    4    4    0    0 -0.82323740598E-01  0.35752219324E-02  0.49887822371E-02  0.82553797896E-01  0.51100000000E-03 0.  1.
</event>
<event>
 8    1  0.1064884E+005  0.1043930E+01  0.7957747E-01            NaN
         13   -1    0    0    0    0  0.00000000000E+00  0.00000000000E+00  0.74505805969E-08  0.10566000000E+00  0.10566000000E+00 0. -1.
     999900   -1    0    0    0    0 -0.00000000000E+00 -0.00000000000E+00 -0.74505805969E-08  0.93827000000E+00  0.93827000000E+00 0.  1.
     999902    2    1    2    0    0 -0.20100727738E-01 -0.15615697098E-01 -0.67797235642E-02  0.10175888933E+01  0.10172479058E+01 0.  0.
     999903    2    3    3    0    0 -0.12312811313E+00  0.14281221158E-02 -0.39402971352E-01  0.13081416980E+00  0.19929402716E-01 0.  0.
         14    1    1    2    0    0  0.20100727738E-01  0.15615697098E-01  0.67797235642E-02  0.26341106716E-01  0.00000000000E+00 0. -1.
     999901    1    3    3    0    0  0.10302738540E+00 -0.17043819213E-01  0.32623247788E-01  0.88677472348E+00  0.88000000000E+00 0.  1.
        -11    1    4    4    0    0 -0.24587079568E-01  0.66817885001E-02 -0.13261678664E-01  0.28728105075E-01  0.51100000000E-03 0.  1.
         11    1    4    4    0    0 -0.98541033565E-01 -0.52536663844E-02 -0.26141292688E-01  0.10208606472E+00  0.51100000000E-03 0. -1.
</event>
<event>
 8    1  0.1064884E+005  0.1043930E+01  0.7957747E-01            NaN
         13   -1    0    0    0    0  0.00000000000E+00  0.00000000000E+00  0.74505805969E-08  0.10566000000E+00  0.10566000000E+00 0.  1.
     999900   -1    0    0    0    0 -0.00000000000E+00 -0.00000000000E+00 -0.74505805969E-08  0.93827000000E+00  0.93827000000E+00 0.  1.
     999902    2    1    2    0    0 -0.13721193522E-01 -0.16023896088E-01 -0.39265060260E-02  0.10224718117E+01  0.10222466198E+01 0.  0.
     999903    2    3    3    0    0 -0.78238351949E-01 -0.96193399720E-01 -0.50552456539E-01  0.13524940870E+00  0.19037904973E-01 0.  0.
         14    1    1    2    0    0  0.13721193522E-01  0.16023896088E-01  0.39265060260E-02  0.21458188346E-01  0.00000000000E+00 0.  1.
     999901    1    3    3    0    0  0.64517158427E-01  0.80169503632E-01  0.46625950513E-01  0.88722240296E+00  0.88000000000E+00 0. -1.
        -11    1    4    4    0    0 -0.54106167413E-01 -0.78253102947E-01 -0.41889971869E-01  0.10395218294E+00  0.51100000000E-03 0.  1.
         11    1    4    4    0    0 -0.24132184536E-01 -0.17940296774E-01 -0.86624846701E-02  0.31297225763E-01  0.51100000000E-03 0. -1.
</event>
<event>
 8    1  0.1064884E+005  0.1043930E+01  0.7957747E-01            NaN
         13   -1    0    0    0    0  0.00000000000E+00  0.00000000000E+00  0.74505805969E-08  0.10566000000E+00  0.10566000000E+00 0.  1.
     999900   -1    0    0    0    0 -0.00000000000E+00 -0.00000000000E+00 -0.74505805969E-08  0.93827000000E+00  0.93827000000E+00 0.  1.
     999902    2    1    2    0    0  0.13607734955E-01 -0.20654155482E-01  0.11945946272E-02  0.10191672932E+01  0.10188664191E+01 0.  0.
     999903    2    3    3    0    0 -0.46441010838E-01 -0.10952662255E+00 -0.51683460764E-01  0.13107931562E+00  0.18914500582E-01 0.  0.
         14    1    1    2    0    0 -0.13607734955E-01  0.20654155482E-01 -0.11945946272E-02  0.24762706750E-01  0.00000000000E+00 0. -1.
     999901    1    3    3    0    0  0.60048745793E-01  0.88872467064E-01  0.52878055391E-01  0.88808797763E+00  0.88000000000E+00 0. -1.
        -11    1    4    4    0    0 -0.27694302723E-01 -0.47819739010E-01 -0.30925510309E-01  0.63327325470E-01  0.51100000000E-03 0.  1.
         11    1    4    4    0    0 -0.18746708115E-01 -0.61706883536E-01 -0.20757950455E-01  0.67751990148E-01  0.51100000000E-03 0. -1.
</event>
<event>
 8    1  0.1064884E+005  0.1043930E+01  0.7957747E-01            NaN
         13   -1    0    0    0    0  0.00000000000E+00  0.00000000000E+00  0.74505805969E-08  0.10566000000E+00  0.10566000000E+00 0. -1.
     999900   -1    0    0    0    0 -0.00000000000E+00 -0.00000000000E+00 -0.74505805969E-08  0.93827000000E+00  0.93827000000E+00 0. -1.
     999902    2    1    2    0    0  0.12646995061E-01  0.58664094910E-02  0.19471193285E-01  0.10199823777E+01  0.10197012123E+01 0.  0.
     999903    2    3    3    0    0 -0.10706441305E+00 -0.68301866968E-01  0.39958410879E-02  0.12865121537E+00  0.20180061903E-01 0.  0.
         14    1    1    2    0    0 -0.12646995061E-01 -0.58664094910E-02 -0.19471193285E-01  0.23947622269E-01  0.00000000000E+00 0.  1.
     999901    1    3    3    0    0  0.11971140811E+00  0.74168276459E-01  0.15475352197E-01  0.89133116236E+00  0.88000000000E+00 0.  1.
        -11    1    4    4    0    0 -0.66353279395E-01 -0.47525028263E-01 -0.60784962679E-02  0.81844946306E-01  0.51100000000E-03 0.  1.
         11    1    4    4    0    0 -0.40711133653E-01 -0.20776838705E-01  0.10074337356E-01  0.46806269068E-01  0.51100000000E-03 0. -1.
</event>
<event>
 8    1  0.1064884E+005  0.1043930E+01  0.7957747E-01            NaN
         13   -1    0    0    0    0  0.00000000000E+00  0.00000000000E+00  0.74505805969E-08  0.10566000000E+00  0.10566000000E+00 0.  1.
     999900   -1    0    0    0    0 -0.00000000000E+00 -0.00000000000E+00 -0.74505805969E-08  0.93827000000E+00  0.93827000000E+00 0. -1.
     999902    2    1    2    0    0  0.14800733339E-01  0.11592608187E-01  0.13693551150E-01  0.10206713755E+01  0.10204063372E+01 0.  0.
     999903    2    3    3    0    0 -0.10717282231E-01 -0.12174506471E+00 -0.35703591151E-01  0.12889215290E+00  0.20042947353E-01 0.  0.
         14    1    1    2    0    0 -0.14800733339E-01 -0.11592608187E-01 -0.13693551150E-01  0.23258624530E-01  0.00000000000E+00 0. -1.
     999901    1    3    3    0    0  0.25518015570E-01  0.13333767290E+00  0.49397142301E-01  0.89177922257E+00  0.88000000000E+00 0.  1.
        -11    1    4    4    0    0  0.38537933862E-02 -0.25832196024E-01 -0.13344854583E-01  0.29334286079E-01  0.51100000000E-03 0.  1.
         11    1    4    4    0    0 -0.14571075617E-01 -0.95912868689E-01 -0.22358736568E-01  0.99557866825E-01  0.51100000000E-03 0. -1.
</event>
<event>
 8    1  0.1064884E+005  0.1043930E+01  0.7957747E-01            NaN
         13   -1    0    0    0    0  0.00000000000E+00  0.00000000000E+00  0.74505805969E-08  0.10566000000E+00  0.10566000000E+00 0.  1.
     999900   -1    0    0    0    0 -0.00000000000E+00 -0.00000000000E+00 -0.74505805969E-08  0.93827000000E+00  0.93827000000E+00 0.  1.
     999902    2    1    2    0    0  0.13489798151E-01 -0.15233441423E-01  0.12024311200E-01  0.10202949317E+01  0.10200211426E+01 0.  0.
     999903    2    3    3    0    0 -0.91841578987E-01  0.60078430525E-01 -0.61780787657E-01  0.12776270841E+00  0.21497685733E-01 0.  0.
         14    1    1    2    0    0 -0.13489798151E-01  0.15233441423E-01 -0.12024311200E-01  0.23635068258E-01  0.00000000000E+00 0. -1.
     999901    1    3    3    0    0  0.10533137714E+00 -0.75311871948E-01  0.73805098857E-01  0.89253222333E+00  0.88000000000E+00 0. -1.
        -11    1    4    4    0    0 -0.66239564732E-01  0.33397946486E-01 -0.34536593521E-01  0.81829946709E-01  0.51100000000E-03 0.  1.
         11    1    4    4    0    0 -0.25602014255E-01  0.26680484039E-01 -0.27244194136E-01  0.45932761702E-01  0.51100000000E-03 0. -1.
</event>
<event>
 8    1  0.1064884E+005  0.1043930E+01  0.7957747E-01            NaN
         13   -1    0    0    0    0  0.00000000000E+00  0.00000000000E+00  0.74505805969E-08  0.10566000000E+00  0.10566000000E+00 0. -1.
     999900   -1    0    0    0    0 -0.00000000000E+00 -0.00000000000E+00 -0.74505805969E-08  0.93827000000E+00  0.93827000000E+00 0.  1.
     999902    2    1    2    0    0 -0.25306381087E-01  0.36122749023E-03  0.11164801739E-01  0.10162678199E+01  0.10158912765E+01 0.  0.
     999903    2    3    3    0    0 -0.10201623501E+00  0.77315608937E-01 -0.18917331487E-02  0.12948890067E+00  0.19462300824E-01 0.  0.
         14    1    1    2    0    0  0.25306381087E-01 -0.36122749023E-03 -0.11164801739E-01  0.27662180082E-01  0.00000000000E+00 0. -1.
     999901    1    3    3    0    0  0.76709853920E-01 -0.76954381447E-01  0.13056534888E-01  0.88677891924E+00  0.88000000000E+00 0. -1.
        -11    1    4    4    0    0 -0.43176209141E-01  0.30685580856E-01 -0.10223103106E-01  0.53949632680E-01  0.51100000000E-03 0.  1.
         11    1    4    4    0    0 -0.58840025865E-01  0.46630028082E-01  0.83313699571E-02  0.75539267994E-01  0.51100000000E-03 0. -1.
</event>
<event>
 8    1  0.1064884E+005  0.1043930E+01  0.7957747E-01            NaN
         13   -1    0    0    0    0  0.00000000000E+00  0.00000000000E+00  0.74505805969E-08  0.10566000000E+00  0.10566000000E+00 0. -1.
     999900   -1    0    0    0    0 -0.00000000000E+00 -0.00000000000E+00 -0.74505805969E-08  0.93827000000E+00  0.93827000000E+00 0.  1.
     999902    2    1    2    0    0  0.82607778377E-02  0.12023471677E-02  0.21731151234E-01  0.10206506310E+01  0.10203851143E+01 0.  0.
     999903    2    3    3    0    0 -0.59000047993E-01 -0.11439114494E+00  0.61912832475E-02  0.13041057254E+00  0.20056064895E-01 0.  0.
         14    1    1    2    0    0 -0.82607778377E-02 -0.12023471677E-02 -0.21731151234E-01  0.23279369045E-01  0.00000000000E+00 0.  1.
     999901    1    3    3    0    0  0.67260825830E-01  0.11559349210E+00  0.15539867986E-01  0.89024005841E+00  0.88000000000E+00 0. -1.
        -11    1    4    4    0    0 -0.58406512346E-01 -0.10046016769E+00  0.71420777200E-02  0.11642523941E+00  0.51100000000E-03 0. -1.
         11    1    4    4    0    0 -0.59353564667E-03 -0.13930977250E-01 -0.95079447248E-03  0.13985333132E-01  0.51100000000E-03 0.  1.
</event>
<event>
 8    1  0.1064884E+005  0.1043930E+01  0.7957747E-01            NaN
         13   -1    0    0    0    0  0.00000000000E+00  0.00000000000E+00  0.74505805969E-08  0.10566000000E+00  0.10566000000E+00 0. -1.
     999900   -1    0    0    0    0 -0.00000000000E+00 -0.00000000000E+00 -0.74505805969E-08  0.93827000000E+00  0.93827000000E+00 0.  1.
     999902    2    1    2    0    0 -0.23598855529E-01  0.26741138464E-02 -0.44691186552E-04  0.10201800765E+01  0.10199035884E+01 0.  0.
     999903    2    3    3    0    0  0.35869699632E-01  0.94164689761E-01  0.79558804451E-01  0.12987465083E+00  0.19600954369E-01 0.  0.
         14    1    1    2    0    0  0.23598855529E-01 -0.26741138464E-02  0.44691186552E-04  0.23749923462E-01  0.00000000000E+00 0.  1.
     999901    1    3    3    0    0 -0.59468555161E-01 -0.91490575914E-01 -0.79603495638E-01  0.89030542571E+00  0.88000000000E+00 0.  1.
        -11    1    4    4    0    0  0.35911581398E-01  0.83623124298E-01  0.64762923500E-01  0.11170034009E+00  0.51100000000E-03 0. -1.
         11    1    4    4    0    0 -0.41881765399E-04  0.10541565463E-01  0.14795880951E-01  0.18174310733E-01  0.51100000000E-03 0.  1.
</event>
<event>
 8    1  0.1064884E+005  0.1043930E+01  0.7957747E-01            NaN
         13   -1    0    0    0    0  0.00000000000E+00  0.00000000000E+00  0.74505805969E-08  0.10566000000E+00  0.10566000000E+00 0. -1.
     999900   -1    0    0    0    0 -0.00000000000E+00 -0.00000000000E+00 -0.74505805969E-08  0.93827000000E+00  0.93827000000E+00 0.  1.
     999902    2    1    2    0    0  0.21649415091E-01  0.80526816739E-02  0.65029488158E-02  0.10199335169E+01  0.10196511893E+01 0.  0.
     999903    2    3    3    0    0  0.23113480446E-01  0.34165979632E-01  0.12280862860E+00  0.13189575932E+00  0.24758532351E-01 0.  0.
         14    1    1    2    0    0 -0.21649415091E-01 -0.80526816739E-02 -0.65029488158E-02  0.23996483060E-01  0.00000000000E+00 0. -1.
     999901    1    3    3    0    0 -0.14640653549E-02 -0.26113297958E-01 -0.11630567978E+00  0.88803775763E+00  0.88000000000E+00 0.  1.
        -11    1    4    4    0    0  0.16054474392E-01  0.40850694486E-02  0.33175422740E-01  0.37085087776E-01  0.51100000000E-03 0.  1.
         11    1    4    4    0    0  0.70590060544E-02  0.30080910183E-01  0.89633205860E-01  0.94810671539E-01  0.51100000000E-03 0. -1.
</event>
<event>
 8    1  0.1064884E+005  0.1043930E+01  0.7957747E-01            NaN
         13   -1    0    0    0    0  0.00000000000E+00  0.00000000000E+00  0.74505805969E-08  0.10566000000E+00  0.10566000000E+00 0. -1.
     999900   -1    0    0    0    0 -0.00000000000E+00 -0.00000000000E+00 -0.74505805969E-08  0.93827000000E+00  0.93827000000E+00 0.  1.
     999902    2    1    2    0    0 -0.20209659287E-01 -0.55868971218E-02  0.99097021631E-02  0.10207384941E+01  0.10204750009E+01 0.  0.
     999903    2    3    3    0    0  0.61702642463E-01 -0.10580462180E+00  0.39493232894E-01  0.13077871817E+00  0.23270659667E-01 0.  0.
         14    1    1    2    0    0  0.20209659287E-01  0.55868971218E-02 -0.99097021631E-02  0.23191505878E-01  0.00000000000E+00 0.  1.
     999901    1    3    3    0    0 -0.81912301750E-01  0.10021772468E+00 -0.29583530730E-01  0.88995977595E+00  0.88000000000E+00 0. -1.
        -11    1    4    4    0    0  0.33145719260E-01 -0.51009082798E-01  0.31395087108E-01  0.68457854543E-01  0.51100000000E-03 0. -1.
         11    1    4    4    0    0  0.28556923203E-01 -0.54795539002E-01  0.80981457857E-02  0.62320863629E-01  0.51100000000E-03 0.  1.
</event>
<event>
 8    1  0.1064884E+005  0.1043930E+01  0.7957747E-01            NaN
         13   -1    0    0    0    0  0.00000000000E+00  0.00000000000E+00  0.74505805969E-08  0.10566000000E+00  0.10566000000E+00 0.  1.
     999900   -1    0    0    0    0 -0.00000000000E+00 -0.00000000000E+00 -0.74505805969E-08  0.93827000000E+00  0.93827000000E+00 0. -1.
     999902    2    1    2    0    0  0.96043025908E-02  0.19334842189E-01 -0.66306284592E-02  0.10213458466E+01  0.10210961240E+01 0.  0.
     999903    2    3    3    0    0  0.96492695104E-01  0.13976814888E-01 -0.88715655137E-01  0.13324886271E+00  0.19457656156E-01 0.  0.
         14    1    1    2    0    0 -0.96043025908E-02 -0.19334842189E-01  0.66306284592E-02  0.22584153393E-01  0.00000000000E+00 0. -1.
     999901    1    3    3    0    0 -0.86888392513E-01  0.53580273012E-02  0.82085026678E-01  0.88809698390E+00  0.88000000000E+00 0.  1.
        -11    1    4    4    0    0  0.82785981273E-02 -0.38202663687E-02 -0.53924737377E-02  0.10605164595E-01  0.51100000000E-03 0. -1.
         11    1    4    4    0    0  0.88214096977E-01  0.17797081256E-01 -0.83323181399E-01  0.12264369811E+00  0.51100000000E-03 0.  1.
</event>
<event>
 8    1  0.1064884E+005  0.1043930E+01  0.7957747E-01            NaN
         13   -1    0    0    0    0  0.00000000000E+00  0.00000000000E+00  0.74505805969E-08  0.10566000000E+00  0.10566000000E+00 0.  1.
     999900   -1    0    0    0    0 -0.00000000000E+00 -0.00000000000E+00 -0.74505805969E-08  0.93827000000E+00  0.93827000000E+00 0.  1.
     999902    2    1    2    0    0 -0.16365400254E-01  0.50361902969E-03  0.17693112905E-01  0.10198234407E+01  0.10195384858E+01 0.  0.
     999903    2    3    3    0    0  0.71359475128E-01  0.87337576321E-01  0.61527520906E-01  0.13012841135E+00  0.20681892665E-01 0.  0.
         14    1    1    2    0    0  0.16365400254E-01 -0.50361902969E-03 -0.17693112905E-01  0.24106559312E-01  0.00000000000E+00 0. -1.
     999901    1    3    3    0    0 -0.87724875381E-01 -0.86833957292E-01 -0.43834408001E-01  0.88969502934E+00  0.88000000000E+00 0.  1.
        -11    1    4    4    0    0  0.42107779004E-01  0.65417340434E-01  0.46240192703E-01  0.90503646469E-01  0.51100000000E-03 0. -1.
         11    1    4    4    0    0  0.29251696124E-01  0.21920235888E-01  0.15287328203E-01  0.39624764884E-01  0.51100000000E-03 0.  1.
</event>
<event>
 8    1  0.1064884E+005  0.1043930E+01  0.7957747E-01            NaN
         13   -1    0    0    0    0  0.00000000000E+00  0.00000000000E+00  0.74505805969E-08  0.10566000000E+00  0.10566000000E+00 0.  1.
     999900   -1    0    0    0    0 -0.00000000000E+00 -0.00000000000E+00 -0.74505805969E-08  0.93827000000E+00  0.93827000000E+00 0.  1.
     999902    2    1    2    0    0 -0.10497630079E-01  0.92541425919E-02 -0.16816951259E-01  0.10220519461E+01  0.10218177584E+01 0.  0.
     999903    2    3    3    0    0 -0.60069896385E-01  0.31999966591E-01  0.11046477244E+00  0.13122344450E+00  0.19614691490E-01 0.  0.
         14    1    1    2    0    0  0.10497630079E-01 -0.92541425919E-02  0.16816951259E-01  0.21878053891E-01  0.00000000000E+00 0.  1.
     999901    1    3    3    0    0  0.49572266306E-01 -0.22745824000E-01 -0.12728172370E+00  0.89082850161E+00  0.88000000000E+00 0.  1.
        -11    1    4    4    0    0 -0.48686810128E-01  0.27837256779E-01  0.74389948080E-01  0.93163532789E-01  0.51100000000E-03 0. -1.
         11    1    4    4    0    0 -0.11383086257E-01  0.41627098129E-02  0.36074824359E-01  0.38059911709E-01  0.51100000000E-03 0.  1.
</event>
<event>
 8    1  0.1064884E+005  0.1043930E+01  0.7957747E-01            NaN
         13   -1    0    0    0    0  0.00000000000E+00  0.00000000000E+00  0.74505805969E-08  0.10566000000E+00  0.10566000000E+00 0.  1.
     999900   -1    0    0    0    0 -0.00000000000E+00 -0.00000000000E+00 -0.74505805969E-08  0.93827000000E+00  0.93827000000E+00 0. -1.
     999902    2    1    2    0    0 -0.24731842971E-03 -0.10200715369E-02 -0.23968215035E-01  0.10199388132E+01  0.10196566116E+01 0.  0.
     999903    2    3    3    0    0 -0.81694643683E-01 -0.97971886108E-01 -0.21805047205E-01  0.13087301111E+00  0.19487936774E-01 0.  0.
         14    1    1    2    0    0  0.24731842971E-03  0.10200715369E-02  0.23968215035E-01  0.23991186805E-01  0.00000000000E+00 0.  1.
     999901    1    3    3    0    0  0.81447325253E-01  0.96951814571E-01 -0.21631678294E-02  0.88906580208E+00  0.88000000000E+00 0. -1.
        -11    1    4    4    0    0 -0.15065413679E-01 -0.28397926771E-01 -0.22543605071E-03  0.32151529926E-01  0.51100000000E-03 0. -1.
         11    1    4    4    0    0 -0.66629230004E-01 -0.69573959338E-01 -0.21579611154E-01  0.98721481186E-01  0.51100000000E-03 0.  1.
</event>
<event>
 8    1  0.1064884E+005  0.1043930E+01  0.7957747E-01            NaN
         13   -1    0    0    0    0  0.00000000000E+00  0.00000000000E+00  0.74505805969E-08  0.10566000000E+00  0.10566000000E+00 0. -1.
     999900   -1    0    0    0    0 -0.00000000000E+00 -0.00000000000E+00 -0.74505805969E-08  0.93827000000E+00  0.93827000000E+00 0.  1.
     999902    2    1    2    0    0  0.14704244725E-01 -0.18545211885E-01  0.19935633947E-02  0.10201789160E+01  0.10199024005E+01 0.  0.
     999903    2    3    3    0    0 -0.81213155500E-01  0.89785120132E-01 -0.34773275684E-01  0.12760544060E+00  0.20421149492E-01 0.  0.
         14    1    1    2    0    0 -0.14704244725E-01  0.18545211885E-01 -0.19935633947E-02  0.23751084014E-01  0.00000000000E+00 0.  1.
     999901    1    3    3    0    0  0.95917400225E-01 -0.10833033202E+00  0.36766839079E-01  0.89257347538E+00  0.88000000000E+00 0. -1.
        -11    1    4    4    0    0 -0.23800351479E-01  0.18400152607E-01 -0.14480723386E-02  0.30122755203E-01  0.51100000000E-03 0. -1.
         11    1    4    4    0    0 -0.57412804020E-01  0.71384967525E-01 -0.33325203346E-01  0.97482685401E-01  0.51100000000E-03 0.  1.
</event>
<event>
 8    1  0.1064884E+005  0.1043930E+01  0.7957747E-01            NaN
         13   -1    0    0    0    0  0.00000000000E+00  0.00000000000E+00  0.74505805969E-08  0.10566000000E+00  0.10566000000E+00 0. -1.
     999900   -1    0    0    0    0 -0.00000000000E+00 -0.00000000000E+00 -0.74505805969E-08  0.93827000000E+00  0.93827000000E+00 0. -1.
     999902    2    1    2    0    0 -0.15916580067E-01 -0.25093280869E-02  0.18958927183E-01  0.10190487788E+01  0.10187449820E+01 0.  0.
     999903    2    3    3    0    0  0.66740547268E-01 -0.48753065740E-01  0.99091424047E-01  0.13034640960E+00  0.18436759658E-01 0.  0.
         14    1    1    2    0    0  0.15916580067E-01  0.25093280869E-02 -0.18958927183E-01  0.24881221200E-01  0.00000000000E+00 0. -1.
     999901    1    3    3    0    0 -0.82657127335E-01  0.46243737654E-01 -0.80132496863E-01  0.88870236920E+00  0.88000000000E+00 0.  1.
        -11    1    4    4    0    0  0.17038068993E-01 -0.80153737344E-02  0.34035360521E-01  0.38899985834E-01  0.51100000000E-03 0. -1.
         11    1    4    4    0    0  0.49702478275E-01 -0.40737692006E-01  0.65056063526E-01  0.91446423764E-01  0.51100000000E-03 0.  1.
</event>
<event>
 8    1  0.1064884E+005  0.1043930E+01  0.7957747E-01            NaN
         13   -1    0    0    0    0  0.00000000000E+00  0.00000000000E+00  0.74505805969E-08  0.10566000000E+00  0.10566000000E+00 0. -1.
     999900   -1    0    0    0    0 -0.00000000000E+00 -0.00000000000E+00 -0.74505805969E-08  0.93827000000E+00  0.93827000000E+00 0. -1.
     999902    2    1    2    0    0  0.20490575344E-01  0.77494254203E-02  0.91467297444E-02  0.10201901614E+01  0.10199139108E+01 0.  0.
     999903    2    3    3    0    0 -0.79486558920E-01  0.91236890870E-02  0.10025683014E+00  0.12985406397E+00  0.20230946287E-01 0.  0.
         14    1    1    2    0    0 -0.20490575344E-01 -0.77494254203E-02 -0.91467297444E-02  0.23739838611E-01  0.00000000000E+00 0.  1.
     999901    1    3    3    0    0  0.99977134264E-01 -0.13742636667E-02 -0.91110100396E-01  0.89033609742E+00  0.88000000000E+00 0.  1.
        -11    1    4    4    0    0 -0.74009135721E-01  0.13263996072E-01  0.95197240752E-01  0.12130977508E+00  0.51100000000E-03 0. -1.
         11    1    4    4    0    0 -0.54774231990E-02 -0.41403069853E-02  0.50595893886E-02  0.85442888888E-02  0.51100000000E-03 0.  1.
</event>
<event>
 8    1  0.1064884E+005  0.1043930E+01  0.7957747E-01            NaN
         13   -1    0    0    0    0  0.00000000000E+00  0.00000000000E+00  0.74505805969E-08  0.10566000000E+00  0.10566000000E+00 0. -1.
     999900   -1    0    0    0    0 -0.00000000000E+00 -0.00000000000E+00 -0.74505805969E-08  0.93827000000E+00  0.93827000000E+00 0.  1.
     999902    2    1    2    0    0  0.21966821657E-01 -0.69870874022E-02  0.43335736408E-02  0.10204749258E+01  0.10202053390E+01 0.  0.
     999903    2    3    3    0    0 -0.45560828955E-01 -0.12075064099E+00  0.33316669212E-02  0.13058553183E+00  0.19620771755E-01 0.  0.
         14    1    1    2    0    0 -0.21966821657E-01  0.69870874022E-02 -0.43335736408E-02  0.23455074176E-01  0.00000000000E+00 0.  1.
     999901    1    3    3    0    0  0.67527650612E-01  0.11376355359E+00  0.10019067195E-02  0.88988939399E+00  0.88000000000E+00 0. -1.
        -11    1    4    4    0    0 -0.22976702046E-01 -0.37229789534E-01 -0.28372335626E-02  0.43844008495E-01  0.51100000000E-03 0.  1.
         11    1    4    4    0    0 -0.22584126909E-01 -0.83520851459E-01  0.61689004838E-02  0.86741523337E-01  0.51100000000E-03 0. -1.
</event>
<event>
 8    1  0.1064884E+005  0.1043930E+01  0.7957747E-01            NaN
         13   -1    0    0    0    0  0.00000000000E+00  0.00000000000E+00  0.74505805969E-08  0.10566000000E+00  0.10566000000E+00 0.  1.
     999900   -1    0    0    0    0 -0.00000000000E+00 -0.00000000000E+00 -0.74505805969E-08  0.93827000000E+00  0.93827000000E+00 0.  1.
     999902    2    1    2    0    0  0.90833897499E-02  0.20954369328E-01 -0.79128187639E-02  0.10197596408E+01  0.10194731574E+01 0.  0.
     999903    2    3    3    0    0 -0.10854396347E+00 -0.63229496530E-01 -0.13883634328E-01  0.12793075130E+00  0.19843401662E-01 0.  0.
         14    1    1    2    0    0 -0.90833897499E-02 -0.20954369328E-01  0.79128187639E-02  0.24170359205E-01  0.00000000000E+00 0.  1.
     999901    1    3    3    0    0  0.11762735322E+00  0.84183865858E-01  0.59708155643E-02  0.89182888949E+00  0.88000000000E+00 0. -1.
        -11    1    4    4    0    0 -0.59272375437E-01 -0.39892185139E-01  0.85109181732E-03  0.71453386227E-01  0.51100000000E-03 0. -1.
         11    1    4    4    0    0 -0.49271588033E-01 -0.23337311391E-01 -0.14734726146E-01  0.56477365075E-01  0.51100000000E-03 0.  1.
</event>
<event>
 8    1  0.1110911E+005  0.1043930E+01  0.7957747E-01            NaN
         13   -1    0    0    0    0  0.00000000000E+00  0.00000000000E+00  0.74505805969E-08  0.10566000000E+00  0.10566000000E+00 0. -1.
     999900   -1    0    0    0    0 -0.00000000000E+00 -0.00000000000E+00 -0.74505805969E-08  0.93827000000E+00  0.93827000000E+00 0. -1.
     999902    2    1    2    0    0  0.38678104800E-03 -0.13089356102E-01  0.17737930613E-01  0.10218819836E+01  0.10216441031E+01 0.  0.
     999903    2    3    3    0    0  0.12719680954E+00  0.56346238972E-02 -0.25370128030E-01  0.13155076692E+00  0.21241081381E-01 0.  0.
         14    1    1    2    0    0 -0.38678104800E-03  0.13089356102E-01 -0.17737930613E-01  0.22048016355E-01  0.00000000000E+00 0.  1.
     999901    1    3    3    0    0 -0.12681002849E+00 -0.18723980000E-01  0.43108058643E-01  0.89033121672E+00  0.88000000000E+00 0. -1.
        -11    1    4    4    0    0  0.39905571859E-01  0.11356272828E-01 -0.56556763219E-02  0.41876812123E-01  0.51100000000E-03 0. -1.
         11    1    4    4    0    0  0.87291237679E-01 -0.57216489307E-02 -0.19714451708E-01  0.89673954798E-01  0.51100000000E-03 0.  1.
</event>
<event>
 8    1  0.1233612E+005  0.1043930E+01  0.7957747E-01            NaN
         13   -1    0    0    0    0  0.00000000000E+00  0.00000000000E+00  0.74505805969E-08  0.10566000000E+00  0.10566000000E+00 0. -1.
     999900   -1    0    0    0    0 -0.00000000000E+00 -0.00000000000E+00 -0.74505805969E-08  0.93827000000E+00  0.93827000000E+00 0. -1.
     999902    2    1    2    0    0 -0.81468715578E-02  0.62249205740E-02  0.22206712192E-01  0.10194706619E+01  0.10191772031E+01 0.  0.
     999903    2    3    3    0    0  0.10356363649E+00 -0.68886201253E-01  0.30458006995E-01  0.12919598404E+00  0.17122399799E-01 0.  0.
         14    1    1    2    0    0  0.81468715578E-02 -0.62249205740E-02 -0.22206712192E-01  0.24459338068E-01  0.00000000000E+00 0.  1.
     999901    1    3    3    0    0 -0.11171050805E+00  0.75111121827E-01 -0.82512948029E-02  0.89027467789E+00  0.88000000000E+00 0.  1.
        -11    1    4    4    0    0  0.67212127595E-01 -0.41651818946E-01  0.27331847459E-01  0.83663822073E-01  0.51100000000E-03 0.  1.
         11    1    4    4    0    0  0.36351508899E-01 -0.27234382307E-01  0.31261595360E-02  0.45532161966E-01  0.51100000000E-03 0. -1.
</event>
<event>
 8    1  0.1064884E+005  0.1043930E+01  0.7957747E-01            NaN
         13   -1    0    0    0    0  0.00000000000E+00  0.00000000000E+00  0.74505805969E-08  0.10566000000E+00  0.10566000000E+00 0. -1.
     999900   -1    0    0    0    0 -0.00000000000E+00 -0.00000000000E+00 -0.74505805969E-08  0.93827000000E+00  0.93827000000E+00 0. -1.
     999902    2    1    2    0    0  0.79360561631E-02  0.18143014030E-01  0.12240403226E-01  0.10206495916E+01  0.10203840509E+01 0.  0.
     999903    2    3    3    0    0 -0.33235571966E-01  0.12528396717E+00  0.22972416218E-01  0.13313088027E+00  0.19885263410E-01 0.  0.
         14    1    1    2    0    0 -0.79360561631E-02 -0.18143014030E-01 -0.12240403226E-01  0.23280408429E-01  0.00000000000E+00 0. -1.
     999901    1    3    3    0    0  0.41171628129E-01 -0.10714095314E+00 -0.10732012992E-01  0.88751871130E+00  0.88000000000E+00 0. -1.
        -11    1    4    4    0    0 -0.28117547710E-01  0.10343951038E+00  0.26480508336E-01  0.11041651706E+00  0.51100000000E-03 0. -1.
         11    1    4    4    0    0 -0.51180242560E-02  0.21844456794E-01 -0.35080921187E-02  0.22714363214E-01  0.51100000000E-03 0.  1.
</event>
<event>
 8    1  0.1064884E+005  0.1043930E+01  0.7957747E-01            NaN
         13   -1    0    0    0    0  0.00000000000E+00  0.00000000000E+00  0.74505805969E-08  0.10566000000E+00  0.10566000000E+00 0. -1.
     999900   -1    0    0    0    0 -0.00000000000E+00 -0.00000000000E+00 -0.74505805969E-08  0.93827000000E+00  0.93827000000E+00 0. -1.
     999902    2    1    2    0    0 -0.22391453878E-01  0.30304918155E-02  0.75324588206E-02  0.10201119601E+01  0.10198338650E+01 0.  0.
     999903    2    3    3    0    0  0.36798283363E-01 -0.11461678518E+00  0.43558331667E-01  0.12958280828E+00  0.20081206143E-01 0.  0.
         14    1    1    2    0    0  0.22391453878E-01 -0.30304918155E-02 -0.75324588206E-02  0.23818039871E-01  0.00000000000E+00 0.  1.
     999901    1    3    3    0    0 -0.59189737240E-01  0.11764727700E+00 -0.36025872846E-01  0.89052915185E+00  0.88000000000E+00 0. -1.
        -11    1    4    4    0    0  0.14690117050E-01 -0.20175697502E-01  0.10879644068E-01  0.27230242097E-01  0.51100000000E-03 0. -1.
         11    1    4    4    0    0  0.22108166312E-01 -0.94441087680E-01  0.32678687599E-01  0.10235256618E+00  0.51100000000E-03 0.  1.
</event>
<event>
 8    1  0.1064884E+005  0.1043930E+01  0.7957747E-01            NaN
         13   -1    0    0    0    0  0.00000000000E+00  0.00000000000E+00  0.74505805969E-08  0.10566000000E+00  0.10566000000E+00 0.  1.
     999900   -1    0    0    0    0 -0.00000000000E+00 -0.00000000000E+00 -0.74505805969E-08  0.93827000000E+00  0.93827000000E+00 0.  1.
     999902    2    1    2    0    0 -0.10605992384E-01 -0.16476019812E-01  0.11978989523E-01  0.10209638838E+01  0.10207055450E+01 0.  0.
     999903    2    3    3    0    0 -0.75290281651E-01 -0.23304754364E-01 -0.10294132161E+00  0.13111144277E+00  0.19533474950E-01 0.  0.
         14    1    1    2    0    0  0.10605992384E-01  0.16476019812E-01 -0.11978989523E-01  0.22966116200E-01  0.00000000000E+00 0. -1.
     999901    1    3    3    0    0  0.64684289267E-01  0.68287345515E-02  0.11492031113E+00  0.88985244103E+00  0.88000000000E+00 0. -1.
        -11    1    4    4    0    0 -0.39845889467E-01 -0.80535586372E-02 -0.38455797292E-01  0.55961273936E-01  0.51100000000E-03 0.  1.
         11    1    4    4    0    0 -0.35444392184E-01 -0.15251195727E-01 -0.64485524319E-01  0.75150168836E-01  0.51100000000E-03 0. -1.
</event>
<event>
 8    1  0.1064884E+005  0.1043930E+01  0.7957747E-01            NaN
         13   -1    0    0    0    0  0.00000000000E+00  0.00000000000E+00  0.74505805969E-08  0.10566000000E+00  0.10566000000E+00 0.  1.
     999900   -1    0    0    0    0 -0.00000000000E+00 -0.00000000000E+00 -0.74505805969E-08  0.93827000000E+00  0.93827000000E+00 0. -1.
     999902    2    1    2    0    0  0.49212061553E-03 -0.28235103041E-01 -0.80442462989E-03  0.10156791535E+01  0.10152861826E+01 0.  0.
     999903    2    3    3    0    0 -0.48061024680E-01 -0.12728048026E-01  0.11409043097E+00  0.12674793882E+00  0.24011419282E-01 0.  0.
         14    1    1    2    0    0 -0.49212061553E-03  0.28235103041E-01  0.80442462989E-03  0.28250846455E-01  0.00000000000E+00 0.  1.
     999901    1    3    3    0    0  0.48553145295E-01 -0.15507055015E-01 -0.11489485560E+00  0.88893121473E+00  0.88000000000E+00 0. -1.
        -11    1    4    4    0    0 -0.29558881090E-03  0.43559483346E-02  0.73295463475E-02  0.85466384795E-02  0.51100000000E-03 0. -1.
         11    1    4    4    0    0 -0.47765435869E-01 -0.17083996361E-01  0.10676088462E+00  0.11820130034E+00  0.51100000000E-03 0.  1.
</event>
<event>
 8    1  0.1064884E+005  0.1043930E+01  0.7957747E-01            NaN
         13   -1    0    0    0    0  0.00000000000E+00  0.00000000000E+00  0.74505805969E-08  0.10566000000E+00  0.10566000000E+00 0. -1.
     999900   -1    0    0    0    0 -0.00000000000E+00 -0.00000000000E+00 -0.74505805969E-08  0.93827000000E+00  0.93827000000E+00 0.  1.
     999902    2    1    2    0    0 -0.84436453589E-02 -0.15187839962E-01 -0.88814288498E-02  0.10244147391E+01  0.10242288378E+01 0.  0.
     999903    2    3    3    0    0 -0.58147564989E-01 -0.81055263423E-01  0.89010191208E-01  0.13515000552E+00  0.19789260010E-01 0.  0.
         14    1    1    2    0    0  0.84436453589E-02  0.15187839962E-01  0.88814288498E-02  0.19515260902E-01  0.00000000000E+00 0.  1.
     999901    1    3    3    0    0  0.49703919630E-01  0.65867423461E-01 -0.97891620058E-01  0.88926473357E+00  0.88000000000E+00 0.  1.
        -11    1    4    4    0    0 -0.11271373640E-01 -0.27645245261E-01  0.34221458990E-01  0.45416658019E-01  0.51100000000E-03 0.  1.
         11    1    4    4    0    0 -0.46876191348E-01 -0.53410018162E-01  0.54788732219E-01  0.89733347506E-01  0.51100000000E-03 0. -1.
</event>
<event>
 8    1  0.1064884E+005  0.1043930E+01  0.7957747E-01            NaN
         13   -1    0    0    0    0  0.00000000000E+00  0.00000000000E+00  0.74505805969E-08  0.10566000000E+00  0.10566000000E+00 0.  1.
     999900   -1    0    0    0    0 -0.00000000000E+00 -0.00000000000E+00 -0.74505805969E-08  0.93827000000E+00  0.93827000000E+00 0.  1.
     999902    2    1    2    0    0  0.13575993319E-01  0.10387351533E-01  0.19998358291E-01  0.10176214652E+01  0.10172813316E+01 0.  0.
     999903    2    3    3    0    0  0.23392991706E-02 -0.12425822923E+00  0.19082528491E-01  0.12730886034E+00  0.19945505172E-01 0.  0.
         14    1    1    2    0    0 -0.13575993319E-01 -0.10387351533E-01 -0.19998358291E-01  0.26308534752E-01  0.00000000000E+00 0. -1.
     999901    1    3    3    0    0  0.11236694148E-01  0.13464558076E+00  0.91582979992E-03  0.89031260491E+00  0.88000000000E+00 0.  1.
        -11    1    4    4    0    0  0.48803688808E-02 -0.78210576059E-01  0.28536118172E-02  0.78416302064E-01  0.51100000000E-03 0. -1.
         11    1    4    4    0    0 -0.25410697102E-02 -0.46047653167E-01  0.16228916674E-01  0.48892558277E-01  0.51100000000E-03 0.  1.
</event>
<event>
 8    1  0.1064884E+005  0.1043930E+01  0.7957747E-01            NaN
         13   -1    0    0    0    0  0.00000000000E+00  0.00000000000E+00  0.74505805969E-08  0.10566000000E+00  0.10566000000E+00 0.  1.
     999900   -1    0    0    0    0 -0.00000000000E+00 -0.00000000000E+00 -0.74505805969E-08  0.93827000000E+00  0.93827000000E+00 0. -1.
     999902    2    1    2    0    0 -0.22851560668E-01 -0.83084283464E-02  0.23566377399E-02  0.10195009692E+01  0.10192082459E+01 0.  0.
     999903    2    3    3    0    0 -0.51928883634E-01  0.15617790398E-01  0.11777590593E+00  0.13116569342E+00  0.19817940843E-01 0.  0.
         14    1    1    2    0    0  0.22851560668E-01  0.83084283464E-02 -0.23566377399E-02  0.24429030844E-01  0.00000000000E+00 0. -1.
     999901    1    3    3    0    0  0.29077322966E-01 -0.23926218745E-01 -0.11541926819E+00  0.88833527574E+00  0.88000000000E+00 0. -1.
        -11    1    4    4    0    0 -0.19591399431E-02 -0.35746627484E-02  0.10505835764E-01  0.11280520785E-01  0.51100000000E-03 0. -1.
         11    1    4    4    0    0 -0.49969743691E-01  0.19192453147E-01  0.10727007017E+00  0.11988517263E+00  0.51100000000E-03 0.  1.
</event>
<event>
 8    1  0.1320813E+005  0.1043930E+01  0.7957747E-01            NaN
         13   -1    0    0    0    0  0.00000000000E+00  0.00000000000E+00  0.74505805969E-08  0.10566000000E+00  0.10566000000E+00 0. -1.
     999900   -1    0    0    0    0 -0.00000000000E+00 -0.00000000000E+00 -0.74505805969E-08  0.93827000000E+00  0.93827000000E+00 0. -1.
     999902    2    1    2    0    0  0.18138746862E-01 -0.11942278775E-01 -0.15673277193E-01  0.10171478459E+01  0.10167951891E+01 0.  0.
     999903    2    3    3    0    0 -0.10359679179E+00 -0.59645926849E-01 -0.38004963257E-01  0.12720746385E+00  0.21152535728E-01 0.  0.
         14    1    1    2    0    0 -0.18138746862E-01  0.11942278775E-01  0.15673277193E-01  0.26782154096E-01  0.00000000000E+00 0. -1.
     999901    1    3    3    0    0  0.12173553865E+00  0.47703648074E-01  0.22331686064E-01  0.88994038206E+00  0.88000000000E+00 0.  1.
        -11    1    4    4    0    0 -0.49573979976E-01 -0.40392616194E-01 -0.22554783709E-01  0.67809455999E-01  0.51100000000E-03 0. -1.
         11    1    4    4    0    0 -0.54022811814E-01 -0.19253310655E-01 -0.15450179548E-01  0.59398007849E-01  0.51100000000E-03 0.  1.
</event>
<event>
 8    1  0.1064884E+005  0.1043930E+01  0.7957747E-01            NaN
         13   -1    0    0    0    0  0.00000000000E+00  0.00000000000E+00  0.74505805969E-08  0.10566000000E+00  0.10566000000E+00 0. -1.
     999900   -1    0    0    0    0 -0.00000000000E+00 -0.00000000000E+00 -0.74505805969E-08  0.93827000000E+00  0.93827000000E+00 0. -1.
     999902    2    1    2    0    0  0.42365264796E-02 -0.19169529530E-01 -0.12919870362E-01  0.10204280412E+01  0.10201573629E+01 0.  0.
     999903    2    3    3    0    0 -0.41416141539E-01  0.91775020500E-01 -0.79473258153E-01  0.12979780773E+00  0.19837362785E-01 0.  0.
         14    1    1    2    0    0 -0.42365264796E-02  0.19169529530E-01  0.12919870362E-01  0.23501958837E-01  0.00000000000E+00 0.  1.
     999901    1    3    3    0    0  0.45652668019E-01 -0.11094455003E+00  0.66553387791E-01  0.89063023343E+00  0.88000000000E+00 0. -1.
        -11    1    4    4    0    0 -0.21824027014E-01  0.40173966634E-01 -0.47853474423E-01  0.66184982326E-01  0.51100000000E-03 0.  1.
         11    1    4    4    0    0 -0.19592114526E-01  0.51601053866E-01 -0.31619783730E-01  0.63612825404E-01  0.51100000000E-03 0. -1.
</event>
<event>
 8    1  0.1064884E+005  0.1043930E+01  0.7957747E-01            NaN
         13   -1    0    0    0    0  0.00000000000E+00  0.00000000000E+00  0.74505805969E-08  0.10566000000E+00  0.10566000000E+00 0.  1.
     999900   -1    0    0    0    0 -0.00000000000E+00 -0.00000000000E+00 -0.74505805969E-08  0.93827000000E+00  0.93827000000E+00 0. -1.
     999902    2    1    2    0    0 -0.18928264469E-01  0.22908143168E-03 -0.15025000596E-01  0.10197622050E+01  0.10194757831E+01 0.  0.
     999903    2    3    3    0    0 -0.11253334662E+00 -0.65019089242E-01  0.14102421722E-01  0.13191782563E+00  0.17669135601E-01 0.  0.
         14    1    1    2    0    0  0.18928264469E-01 -0.22908143168E-03  0.15025000596E-01  0.24167795038E-01  0.00000000000E+00 0.  1.
     999901    1    3    3    0    0  0.93605082152E-01  0.65248170673E-01 -0.29127422318E-01  0.88784437933E+00  0.88000000000E+00 0. -1.
        -11    1    4    4    0    0 -0.53827771331E-01 -0.22975597681E-01  0.10497538665E-02  0.58537766950E-01  0.51100000000E-03 0. -1.
         11    1    4    4    0    0 -0.58705575290E-01 -0.42043491561E-01  0.13052667855E-01  0.73380058680E-01  0.51100000000E-03 0.  1.
</event>
<event>
 8    1  0.1064884E+005  0.1043930E+01  0.7957747E-01            NaN
         13   -1    0    0    0    0  0.00000000000E+00  0.00000000000E+00  0.74505805969E-08  0.10566000000E+00  0.10566000000E+00 0.  1.
     999900   -1    0    0    0    0 -0.00000000000E+00 -0.00000000000E+00 -0.74505805969E-08  0.93827000000E+00  0.93827000000E+00 0. -1.
     999902    2    1    2    0    0  0.79667441407E-02  0.18947347713E-01 -0.99237494969E-02  0.10211056314E+01  0.10208505075E+01 0.  0.
     999903    2    3    3    0    0 -0.77369639390E-01 -0.70123961643E-01  0.72514281281E-01  0.12868643315E+00  0.19961111963E-01 0.  0.
         14    1    1    2    0    0 -0.79667441407E-02 -0.18947347713E-01  0.99237494969E-02  0.22824368592E-01  0.00000000000E+00 0.  1.
     999901    1    3    3    0    0  0.85336383531E-01  0.89071309355E-01 -0.82438030778E-01  0.89241919826E+00  0.88000000000E+00 0. -1.
        -11    1    4    4    0    0 -0.40972602267E-01 -0.29846305934E-01  0.45178472348E-01  0.67903693560E-01  0.51100000000E-03 0.  1.
         11    1    4    4    0    0 -0.36397037123E-01 -0.40277655709E-01  0.27335808933E-01  0.60782739587E-01  0.51100000000E-03 0. -1.
</event>
<event>
 8    1  0.1064884E+005  0.1043930E+01  0.7957747E-01            NaN
         13   -1    0    0    0    0  0.00000000000E+00  0.00000000000E+00  0.74505805969E-08  0.10566000000E+00  0.10566000000E+00 0.  1.
     999900   -1    0    0    0    0 -0.00000000000E+00 -0.00000000000E+00 -0.74505805969E-08  0.93827000000E+00  0.93827000000E+00 0. -1.
     999902    2    1    2    0    0 -0.14968332550E-01  0.26447422355E-02 -0.17510549101E-01  0.10207423962E+01  0.10204789926E+01 0.  0.
     999903    2    3    3    0    0 -0.30016958787E-01  0.12673462749E+00 -0.64354925005E-02  0.13184002941E+00  0.19434355459E-01 0.  0.
         14    1    1    2    0    0  0.14968332550E-01 -0.26447422355E-02  0.17510549101E-01  0.23187603814E-01  0.00000000000E+00 0.  1.
     999901    1    3    3    0    0  0.15048626236E-01 -0.12408988525E+00 -0.11075056601E-01  0.88890236677E+00  0.88000000000E+00 0.  1.
        -11    1    4    4    0    0 -0.24578100047E-01  0.80057809538E-01  0.34415833963E-02  0.83817906721E-01  0.51100000000E-03 0.  1.
         11    1    4    4    0    0 -0.54388587393E-02  0.46676817953E-01 -0.98770758968E-02  0.48022122692E-01  0.51100000000E-03 0. -1.
</event>
<event>
 8    1  0.1064884E+005  0.1043930E+01  0.7957747E-01            NaN
         13   -1    0    0    0    0  0.00000000000E+00  0.00000000000E+00  0.74505805969E-08  0.10566000000E+00  0.10566000000E+00 0. -1.
     999900   -1    0    0    0    0 -0.00000000000E+00 -0.00000000000E+00 -0.74505805969E-08  0.93827000000E+00  0.93827000000E+00 0. -1.
     999902    2    1    2    0    0  0.13151997149E-01 -0.19452767187E-01  0.29936202897E-02  0.10202583515E+01  0.10199837042E+01 0.  0.
     999903    2    3    3    0    0 -0.69471334021E-01  0.70424163379E-01  0.79500741761E-01  0.12854213143E+00  0.20417702462E-01 0.  0.
         14    1    1    2    0    0 -0.13151997149E-01  0.19452767187E-01 -0.29936202897E-02  0.23671648499E-01  0.00000000000E+00 0. -1.
     999901    1    3    3    0    0  0.82623331170E-01 -0.89876930566E-01 -0.76507121471E-01  0.89171622007E+00  0.88000000000E+00 0. -1.
        -11    1    4    4    0    0 -0.28133845479E-01  0.20711052745E-01  0.17979490645E-01  0.39293564004E-01  0.51100000000E-03 0.  1.
         11    1    4    4    0    0 -0.41337488542E-01  0.49713110634E-01  0.61521251116E-01  0.89248567427E-01  0.51100000000E-03 0. -1.
</event>
<event>
 8    1  0.1064884E+005  0.1043930E+01  0.7957747E-01            NaN
         13   -1    0    0    0    0  0.00000000000E+00  0.00000000000E+00  0.74505805969E-08  0.10566000000E+00  0.10566000000E+00 0. -1.
     999900   -1    0    0    0    0 -0.00000000000E+00 -0.00000000000E+00 -0.74505805969E-08  0.93827000000E+00  0.93827000000E+00 0. -1.
     999902    2    1    2    0    0  0.17962866205E-01  0.71730534062E-02 -0.13705074852E-01  0.10202245927E+01  0.10199491523E+01 0.  0.
     999903    2    3    3    0    0  0.25669303820E-01  0.86309401723E-01  0.91931058197E-01  0.13034766673E+00  0.20759787499E-01 0.  0.
         14    1    1    2    0    0 -0.17962866205E-01 -0.71730534062E-02  0.13705074852E-01  0.23705407276E-01  0.00000000000E+00 0.  1.
     999901    1    3    3    0    0 -0.77064376154E-02 -0.79136348317E-01 -0.10563613305E+00  0.88987692599E+00  0.88000000000E+00 0. -1.
        -11    1    4    4    0    0  0.28684150405E-01  0.69276952984E-01  0.72015720886E-01  0.10396442601E+00  0.51100000000E-03 0. -1.
         11    1    4    4    0    0 -0.30148465851E-02  0.17032448739E-01  0.19915337311E-01  0.26383240726E-01  0.51100000000E-03 0.  1.
</event>
<event>
 8    1  0.1064884E+005  0.1043930E+01  0.7957747E-01            NaN
         13   -1    0    0    0    0  0.00000000000E+00  0.00000000000E+00  0.74505805969E-08  0.10566000000E+00  0.10566000000E+00 0.  1.
     999900   -1    0    0    0    0 -0.00000000000E+00 -0.00000000000E+00 -0.74505805969E-08  0.93827000000E+00  0.93827000000E+00 0.  1.
     999902    2    1    2    0    0 -0.23998209066E-01 -0.11756516108E-02 -0.10411122362E-02  0.10198804655E+01  0.10195968732E+01 0.  0.
     999903    2    3    3    0    0  0.52878595216E-02 -0.10092338061E+00 -0.79848886317E-01  0.13026372301E+00  0.19475694479E-01 0.  0.
         14    1    1    2    0    0  0.23998209066E-01  0.11756516108E-02  0.10411122362E-02  0.24049534503E-01  0.00000000000E+00 0. -1.
     999901    1    3    3    0    0 -0.29286068588E-01  0.99747728997E-01  0.78807774081E-01  0.88961674248E+00  0.88000000000E+00 0. -1.
        -11    1    4    4    0    0  0.11561435381E-01 -0.61127709861E-01 -0.42668943370E-01  0.75439800837E-01  0.51100000000E-03 0. -1.
         11    1    4    4    0    0 -0.62735758593E-02 -0.39795670746E-01 -0.37179942947E-01  0.54823922176E-01  0.51100000000E-03 0.  1.
</event>
<event>
 8    1  0.1064884E+005  0.1043930E+01  0.7957747E-01            NaN
         13   -1    0    0    0    0  0.00000000000E+00  0.00000000000E+00  0.74505805969E-08  0.10566000000E+00  0.10566000000E+00 0. -1.
     999900   -1    0    0    0    0 -0.00000000000E+00 -0.00000000000E+00 -0.74505805969E-08  0.93827000000E+00  0.93827000000E+00 0. -1.
     999902    2    1    2    0    0 -0.72499059849E-03 -0.11192102262E-01 -0.21150924181E-01  0.10199894411E+01  0.10197084435E+01 0.  0.
     999903    2    3    3    0    0  0.29294647793E-01 -0.60827636629E-01  0.10785857898E+00  0.12869357733E+00  0.19245415501E-01 0.  0.
         14    1    1    2    0    0  0.72499059849E-03  0.11192102262E-01  0.21150924181E-01  0.23940558851E-01  0.00000000000E+00 0. -1.
     999901    1    3    3    0    0 -0.30019638391E-01  0.49635534368E-01 -0.12900950316E+00  0.89129586382E+00  0.88000000000E+00 0. -1.
        -11    1    4    4    0    0  0.17730824703E-01 -0.28530497103E-01  0.69733577212E-01  0.77404162171E-01  0.51100000000E-03 0.  1.
         11    1    4    4    0    0  0.11563823090E-01 -0.32297139526E-01  0.38125001770E-01  0.51289415155E-01  0.51100000000E-03 0. -1.
</event>
<event>
 8    1  0.1064884E+005  0.1043930E+01  0.7957747E-01            NaN
         13   -1    0    0    0    0  0.00000000000E+00  0.00000000000E+00  0.74505805969E-08  0.10566000000E+00  0.10566000000E+00 0. -1.
     999900   -1    0    0    0    0 -0.00000000000E+00 -0.00000000000E+00 -0.74505805969E-08  0.93827000000E+00  0.93827000000E+00 0. -1.
     999902    2    1    2    0    0 -0.15125089525E-01 -0.34475607689E-03  0.18826028687E-01  0.10197782600E+01  0.10194922231E+01 0.  0.
     999903    2    3    3    0    0 -0.12523702283E-01 -0.12724798054E+00  0.18165316447E-01  0.13067104927E+00  0.19901073484E-01 0.  0.
         14    1    1    2    0    0  0.15125089525E-01  0.34475607689E-03 -0.18826028687E-01  0.24151740020E-01  0.00000000000E+00 0.  1.
     999901    1    3    3    0    0 -0.26013872422E-02  0.12690322446E+00  0.66071223953E-03  0.88910721071E+00  0.88000000000E+00 0.  1.
        -11    1    4    4    0    0 -0.17662974091E-01 -0.89395844879E-01  0.14809843540E-01  0.92321126088E-01  0.51100000000E-03 0.  1.
         11    1    4    4    0    0  0.51392718083E-02 -0.37852135659E-01  0.33554729069E-02  0.38349923183E-01  0.51100000000E-03 0. -1.
</event>
<event>
 8    1  0.1064884E+005  0.1043930E+01  0.7957747E-01            NaN
         13   -1    0    0    0    0  0.00000000000E+00  0.00000000000E+00  0.74505805969E-08  0.10566000000E+00  0.10566000000E+00 0.  1.
     999900   -1    0    0    0    0 -0.00000000000E+00 -0.00000000000E+00 -0.74505805969E-08  0.93827000000E+00  0.93827000000E+00 0. -1.
     999902    2    1    2    0    0 -0.18834134463E-01  0.13316408173E-02 -0.14679659442E-01  0.10200136815E+01  0.10197332593E+01 0.  0.
     999903    2    3    3    0    0 -0.12951985752E+00 -0.21515626519E-02  0.18562937560E-01  0.13245042617E+00  0.20457517650E-01 0.  0.
         14    1    1    2    0    0  0.18834134463E-01 -0.13316408173E-02  0.14679659442E-01  0.23916318479E-01  0.00000000000E+00 0.  1.
     999901    1    3    3    0    0  0.11068572305E+00  0.34832034693E-02 -0.33242597002E-01  0.88756325535E+00  0.88000000000E+00 0. -1.
        -11    1    4    4    0    0 -0.75899134175E-01 -0.41468042520E-02  0.20585245500E-01  0.78752066686E-01  0.51100000000E-03 0.  1.
         11    1    4    4    0    0 -0.53620723342E-01  0.19952416000E-02 -0.20223079394E-02  0.53698359483E-01  0.51100000000E-03 0. -1.
</event>
<event>
 8    1  0.1064884E+005  0.1043930E+01  0.7957747E-01            NaN
         13   -1    0    0    0    0  0.00000000000E+00  0.00000000000E+00  0.74505805969E-08  0.10566000000E+00  0.10566000000E+00 0.  1.
     999900   -1    0    0    0    0 -0.00000000000E+00 -0.00000000000E+00 -0.74505805969E-08  0.93827000000E+00  0.93827000000E+00 0.  1.
     999902    2    1    2    0    0  0.59195748749E-02  0.22329249567E-01  0.22725527914E-03  0.10208283031E+01  0.10205668700E+01 0.  0.
     999903    2    3    3    0    0  0.12769787868E+00 -0.21592177826E-01 -0.81044358775E-02  0.13131806478E+00  0.20144028762E-01 0.  0.
         14    1    1    2    0    0 -0.59195748749E-02 -0.22329249567E-01 -0.22725527914E-03  0.23101696861E-01  0.00000000000E+00 0. -1.
     999901    1    3    3    0    0 -0.12177830381E+00  0.43921427393E-01  0.83316911566E-02  0.88951023836E+00  0.88000000000E+00 0.  1.
        -11    1    4    4    0    0  0.11073812496E+00 -0.25124477924E-01 -0.46688541179E-02  0.11364959758E+00  0.51100000000E-03 0.  1.
         11    1    4    4    0    0  0.16959753724E-01  0.35323000980E-02 -0.34355817596E-02  0.17668467205E-01  0.51100000000E-03 0. -1.
</event>
<event>
 8    1  0.1064884E+005  0.1043930E+01  0.7957747E-01            NaN
         13   -1    0    0    0    0  0.00000000000E+00  0.00000000000E+00  0.74505805969E-08  0.10566000000E+00  0.10566000000E+00 0.  1.
     999900   -1    0    0    0    0 -0.00000000000E+00 -0.00000000000E+00 -0.74505805969E-08  0.93827000000E+00  0.93827000000E+00 0. -1.
     999902    2    1    2    0    0 -0.12916845849E-02  0.17541158676E-02 -0.23731936499E-01  0.10200982946E+01  0.10198198765E+01 0.  0.
     999903    2    3    3    0    0 -0.33017671836E-01 -0.98418047099E-01 -0.79172800166E-01  0.13211479822E+00  0.20241269107E-01 0.  0.
         14    1    1    2    0    0  0.12916845849E-02 -0.17541158676E-02  0.23731936499E-01  0.23831705385E-01  0.00000000000E+00 0.  1.
     999901    1    3    3    0    0  0.31725987251E-01  0.10017216297E+00  0.55440863667E-01  0.88798349639E+00  0.88000000000E+00 0. -1.
        -11    1    4    4    0    0 -0.15587277605E-01 -0.72770983828E-01 -0.60515055870E-01  0.95921386658E-01  0.51100000000E-03 0.  1.
         11    1    4    4    0    0 -0.17430394232E-01 -0.25647063271E-01 -0.18657744297E-01  0.36193411565E-01  0.51100000000E-03 0. -1.
</event>
<event>
 8    1  0.1064884E+005  0.1043930E+01  0.7957747E-01            NaN
         13   -1    0    0    0    0  0.00000000000E+00  0.00000000000E+00  0.74505805969E-08  0.10566000000E+00  0.10566000000E+00 0. -1.
     999900   -1    0    0    0    0 -0.00000000000E+00 -0.00000000000E+00 -0.74505805969E-08  0.93827000000E+00  0.93827000000E+00 0. -1.
     999902    2    1    2    0    0  0.94108207906E-02 -0.76299394139E-02 -0.22030078563E-01  0.10187883237E+01  0.10184780531E+01 0.  0.
     999903    2    3    3    0    0 -0.25396776275E-01  0.53617094055E-01  0.10958632896E+00  0.12621583557E+00  0.20037081477E-01 0.  0.
         14    1    1    2    0    0 -0.94108207906E-02  0.76299394139E-02  0.22030078563E-01  0.25141676255E-01  0.00000000000E+00 0. -1.
     999901    1    3    3    0    0  0.34807597065E-01 -0.61247033469E-01 -0.13161640752E+00  0.89257248818E+00  0.88000000000E+00 0. -1.
        -11    1    4    4    0    0 -0.52929171015E-02  0.18674742109E-01  0.55203710443E-01  0.58518986081E-01  0.51100000000E-03 0. -1.
         11    1    4    4    0    0 -0.20103859173E-01  0.34942351946E-01  0.54382618513E-01  0.67696849487E-01  0.51100000000E-03 0.  1.
</event>
<event>
 8    1  0.1064884E+005  0.1043930E+01  0.7957747E-01            NaN
         13   -1    0    0    0    0  0.00000000000E+00  0.00000000000E+00  0.74505805969E-08  0.10566000000E+00  0.10566000000E+00 0.  1.
     999900   -1    0    0    0    0 -0.00000000000E+00 -0.00000000000E+00 -0.74505805969E-08  0.93827000000E+00  0.93827000000E+00 0.  1.
     999902    2    1    2    0    0 -0.41377705202E-02 -0.65203864566E-02 -0.21967933847E-01  0.10206442382E+01  0.10203785740E+01 0.  0.
     999903    2    3    3    0    0  0.55331558116E-01  0.51342139282E-01  0.10159958254E+00  0.12814572055E+00  0.20031323798E-01 0.  0.
         14    1    1    2    0    0  0.41377705202E-02  0.65203864566E-02  0.21967933847E-01  0.23285761785E-01  0.00000000000E+00 0.  1.
     999901    1    3    3    0    0 -0.59469328636E-01 -0.57862525739E-01 -0.12356751638E+00  0.89249851767E+00  0.88000000000E+00 0.  1.
        -11    1    4    4    0    0  0.51539776217E-01  0.42064853444E-01  0.78110165340E-01  0.10260243408E+00  0.51100000000E-03 0.  1.
         11    1    4    4    0    0  0.37917818990E-02  0.92772858383E-02  0.23489417197E-01  0.25543286472E-01  0.51100000000E-03 0. -1.
</event>
<event>
 8    1  0.1064884E+005  0.1043930E+01  0.7957747E-01            NaN
         13   -1    0    0    0    0  0.00000000000E+00  0.00000000000E+00  0.74505805969E-08  0.10566000000E+00  0.10566000000E+00 0.  1.
     999900   -1    0    0    0    0 -0.00000000000E+00 -0.00000000000E+00 -0.74505805969E-08  0.93827000000E+00  0.93827000000E+00 0.  1.
     999902    2    1    2    0    0  0.55309931515E-02  0.20529782030E-01  0.10670425029E-01  0.10201408889E+01  0.10198634769E+01 0.  0.
     999903    2    3    3    0    0  0.78779855175E-01  0.11585689207E-01  0.10354647954E+00  0.13218179410E+00  0.20240046703E-01 0.  0.
         14    1    1    2    0    0 -0.55309931515E-02 -0.20529782030E-01 -0.10670425029E-01  0.23789111075E-01  0.00000000000E+00 0. -1.
     999901    1    3    3    0    0 -0.73248862024E-01  0.89440928228E-02 -0.92876054510E-01  0.88795909483E+00  0.88000000000E+00 0.  1.
        -11    1    4    4    0    0  0.91536938241E-02 -0.78329567772E-03  0.24224342167E-01  0.25912999386E-01  0.51100000000E-03 0.  1.
         11    1    4    4    0    0  0.69626161351E-01  0.12368984885E-01  0.79322137371E-01  0.10626879471E+00  0.51100000000E-03 0. -1.
</event>
<event>
 8    1  0.1064884E+005  0.1043930E+01  0.7957747E-01            NaN
         13   -1    0    0    0    0  0.00000000000E+00  0.00000000000E+00  0.74505805969E-08  0.10566000000E+00  0.10566000000E+00 0. -1.
     999900   -1    0    0    0    0 -0.00000000000E+00 -0.00000000000E+00 -0.74505805969E-08  0.93827000000E+00  0.93827000000E+00 0. -1.
     999902    2    1    2    0    0  0.14811682785E-01  0.17406802232E-01 -0.42176364789E-02  0.10206884173E+01  0.10204237718E+01 0.  0.
     999903    2    3    3    0    0  0.99972124832E-01 -0.60381228996E-01  0.55870013310E-01  0.13113020986E+00  0.20817180218E-01 0.  0.
         14    1    1    2    0    0 -0.14811682785E-01 -0.17406802232E-01  0.42176364789E-02  0.23241582742E-01  0.00000000000E+00 0.  1.
     999901    1    3    3    0    0 -0.85160442047E-01  0.77788031228E-01 -0.60087649789E-01  0.88955820740E+00  0.88000000000E+00 0. -1.
        -11    1    4    4    0    0  0.83610157213E-01 -0.58716097370E-01  0.48679274917E-01  0.11317319209E+00  0.51100000000E-03 0. -1.
         11    1    4    4    0    0  0.16361967620E-01 -0.16651316260E-02  0.71907383932E-02  0.17957017775E-01  0.51100000000E-03 0.  1.
</event>
<event>
 8    1  0.1064884E+005  0.1043930E+01  0.7957747E-01            NaN
         13   -1    0    0    0    0  0.00000000000E+00  0.00000000000E+00  0.74505805969E-08  0.10566000000E+00  0.10566000000E+00 0.  1.
     999900   -1    0    0    0    0 -0.00000000000E+00 -0.00000000000E+00 -0.74505805969E-08  0.93827000000E+00  0.93827000000E+00 0.  1.
     999902    2    1    2    0    0  0.46241213136E-03  0.79194381521E-02  0.21602353921E-01  0.10209171119E+01  0.10206577077E+01 0.  0.
     999903    2    3    3    0    0 -0.91583710245E-01  0.32374409086E-01 -0.83675309809E-01  0.12953957079E+00  0.18527400849E-01 0.  0.
         14    1    1    2    0    0 -0.46241213136E-03 -0.79194381521E-02 -0.21602353921E-01  0.23012888140E-01  0.00000000000E+00 0. -1.
     999901    1    3    3    0    0  0.92046122376E-01 -0.24454970933E-01  0.10527766373E+00  0.89137754107E+00  0.88000000000E+00 0. -1.
        -11    1    4    4    0    0 -0.48542716869E-01  0.24449006806E-01 -0.38279678128E-01  0.66481156529E-01  0.51100000000E-03 0. -1.
         11    1    4    4    0    0 -0.43040993376E-01  0.79254022801E-02 -0.45395631681E-01  0.63058414259E-01  0.51100000000E-03 0.  1.
</event>
<event>
 8    1  0.1064884E+005  0.1043930E+01  0.7957747E-01            NaN
         13   -1    0    0    0    0  0.00000000000E+00  0.00000000000E+00  0.74505805969E-08  0.10566000000E+00  0.10566000000E+00 0. -1.
     999900   -1    0    0    0    0 -0.00000000000E+00 -0.00000000000E+00 -0.74505805969E-08  0.93827000000E+00  0.93827000000E+00 0. -1.
     999902    2    1    2    0    0 -0.17653231695E-01 -0.20489063114E-02 -0.16354541317E-01  0.10197782790E+01  0.10194922426E+01 0.  0.
     999903    2    3    3    0    0 -0.94975383743E-01 -0.70446762139E-01 -0.56822692275E-01  0.13282018915E+00  0.20719905299E-01 0.  0.
         14    1    1    2    0    0  0.17653231695E-01  0.20489063114E-02  0.16354541317E-01  0.24151721016E-01  0.00000000000E+00 0. -1.
     999901    1    3    3    0    0  0.77322152048E-01  0.68397855827E-01  0.40468150958E-01  0.88695808983E+00  0.88000000000E+00 0. -1.
        -11    1    4    4    0    0 -0.53246473959E-01 -0.27357166645E-01 -0.24545571722E-01  0.64701991994E-01  0.51100000000E-03 0. -1.
         11    1    4    4    0    0 -0.41728909784E-01 -0.43089595494E-01 -0.32277120553E-01  0.68118197156E-01  0.51100000000E-03 0.  1.
</event>
<event>
 8    1  0.1064884E+005  0.1043930E+01  0.7957747E-01            NaN
         13   -1    0    0    0    0  0.00000000000E+00  0.00000000000E+00  0.74505805969E-08  0.10566000000E+00  0.10566000000E+00 0.  1.
     999900   -1    0    0    0    0 -0.00000000000E+00 -0.00000000000E+00 -0.74505805969E-08  0.93827000000E+00  0.93827000000E+00 0. -1.
     999902    2    1    2    0    0 -0.29333937661E-02  0.12238186181E-01  0.19788261023E-01  0.10204789174E+01  0.10202094234E+01 0.  0.
     999903    2    3    3    0    0 -0.74638885827E-01 -0.67498960167E-01 -0.77593601824E-01  0.12863648890E+00  0.19987654447E-01 0.  0.
         14    1    1    2    0    0  0.29333937661E-02 -0.12238186181E-01 -0.19788261023E-01  0.23451082583E-01  0.00000000000E+00 0. -1.
     999901    1    3    3    0    0  0.71705492061E-01  0.79737146348E-01  0.97381862847E-01  0.89184242852E+00  0.88000000000E+00 0. -1.
        -11    1    4    4    0    0 -0.29242845730E-01 -0.26016420136E-01 -0.18299961195E-01  0.43210506174E-01  0.51100000000E-03 0. -1.
         11    1    4    4    0    0 -0.45396040097E-01 -0.41482540031E-01 -0.59293640629E-01  0.85425982722E-01  0.51100000000E-03 0.  1.
</event>
<event>
 8    1  0.1064884E+005  0.1043930E+01  0.7957747E-01            NaN
         13   -1    0    0    0    0  0.00000000000E+00  0.00000000000E+00  0.74505805969E-08  0.10566000000E+00  0.10566000000E+00 0. -1.
     999900   -1    0    0    0    0 -0.00000000000E+00 -0.00000000000E+00 -0.74505805969E-08  0.93827000000E+00  0.93827000000E+00 0. -1.
     999902    2    1    2    0    0  0.81071016322E-02 -0.22435103285E-01 -0.13720584878E-02  0.10200356178E+01  0.10197557159E+01 0.  0.
     999903    2    3    3    0    0  0.45084503692E-01  0.11171186758E+00  0.39005786782E-01  0.12818747577E+00  0.19960553861E-01 0.  0.
         14    1    1    2    0    0 -0.81071016322E-02  0.22435103285E-01  0.13720584878E-02  0.23894382201E-01  0.00000000000E+00 0.  1.
     999901    1    3    3    0    0 -0.36977402059E-01 -0.13414697086E+00 -0.40377845270E-01  0.89184814203E+00  0.88000000000E+00 0. -1.
        -11    1    4    4    0    0  0.25796364921E-01  0.53253075592E-01  0.95406432318E-02  0.59938530991E-01  0.51100000000E-03 0.  1.
         11    1    4    4    0    0  0.19288138771E-01  0.58458791987E-01  0.29465143550E-01  0.68248944777E-01  0.51100000000E-03 0. -1.
</event>
<event>
 8    1  0.1064884E+005  0.1043930E+01  0.7957747E-01            NaN
         13   -1    0    0    0    0  0.00000000000E+00  0.00000000000E+00  0.74505805969E-08  0.10566000000E+00  0.10566000000E+00 0.  1.
     999900   -1    0    0    0    0 -0.00000000000E+00 -0.00000000000E+00 -0.74505805969E-08  0.93827000000E+00  0.93827000000E+00 0.  1.
     999902    2    1    2    0    0 -0.97758812118E-02  0.18134734368E-01  0.12080982714E-01  0.10200472324E+01  0.10197676058E+01 0.  0.
     999903    2    3    3    0    0 -0.64161381391E-01 -0.62118971565E-01  0.93676516703E-01  0.13097115518E+00  0.20067491566E-01 0.  0.
         14    1    1    2    0    0  0.97758812118E-02 -0.18134734368E-01 -0.12080982714E-01  0.23882767583E-01  0.00000000000E+00 0. -1.
     999901    1    3    3    0    0  0.54385500179E-01  0.80253705933E-01 -0.81595533989E-01  0.88907607724E+00  0.88000000000E+00 0.  1.
        -11    1    4    4    0    0 -0.32515841006E-01 -0.22311697829E-01  0.51726509060E-01  0.65046019378E-01  0.51100000000E-03 0. -1.
         11    1    4    4    0    0 -0.31645540386E-01 -0.39807273736E-01  0.41950007642E-01  0.65925135804E-01  0.51100000000E-03 0.  1.
</event>
<event>
 8    1  0.1064884E+005  0.1043930E+01  0.7957747E-01            NaN
         13   -1    0    0    0    0  0.00000000000E+00  0.00000000000E+00  0.74505805969E-08  0.10566000000E+00  0.10566000000E+00 0.  1.
     999900   -1    0    0    0    0 -0.00000000000E+00 -0.00000000000E+00 -0.74505805969E-08  0.93827000000E+00  0.93827000000E+00 0. -1.
     999902    2    1    2    0    0  0.16424758883E-01  0.51078890757E-02 -0.16824250743E-01  0.10198692717E+01  0.10195854121E+01 0.  0.
     999903    2    3    3    0    0  0.46854875709E-01  0.11593517556E+00 -0.38600029984E-01  0.13212895828E+00  0.18214142623E-01 0.  0.
         14    1    1    2    0    0 -0.16424758883E-01 -0.51078890757E-02  0.16824250743E-01  0.24060728340E-01  0.00000000000E+00 0.  1.
     999901    1    3    3    0    0 -0.30430116826E-01 -0.11082728648E+00  0.21775779241E-01  0.88774031338E+00  0.88000000000E+00 0. -1.
        -11    1    4    4    0    0  0.18292928617E-01  0.33507518395E-01 -0.44182633146E-02  0.38433932899E-01  0.51100000000E-03 0.  1.
         11    1    4    4    0    0  0.28561947091E-01  0.82427657165E-01 -0.34181766670E-01  0.93695025381E-01  0.51100000000E-03 0. -1.
</event>
<event>
 8    1  0.1064884E+005  0.1043930E+01  0.7957747E-01            NaN
         13   -1    0    0    0    0  0.00000000000E+00  0.00000000000E+00  0.74505805969E-08  0.10566000000E+00  0.10566000000E+00 0.  1.
     999900   -1    0    0    0    0 -0.00000000000E+00 -0.00000000000E+00 -0.74505805969E-08  0.93827000000E+00  0.93827000000E+00 0. -1.
     999902    2    1    2    0    0  0.13816358371E-01 -0.15877497236E-01 -0.10361205288E-01  0.10204706468E+01  0.10202009605E+01 0.  0.
     999903    2    3    3    0    0  0.95419513743E-01  0.86369625029E-01  0.98485284048E-02  0.13057066237E+00  0.19675076320E-01 0.  0.
         14    1    1    2    0    0 -0.13816358371E-01  0.15877497236E-01  0.10361205288E-01  0.23459353191E-01  0.00000000000E+00 0.  1.
     999901    1    3    3    0    0 -0.81603155372E-01 -0.10224712226E+00 -0.20209733693E-01  0.88989998444E+00  0.88000000000E+00 0. -1.
        -11    1    4    4    0    0  0.34631000839E-01  0.34371325441E-01 -0.55388992061E-02  0.49108398030E-01  0.51100000000E-03 0. -1.
         11    1    4    4    0    0  0.60788512904E-01  0.51998299588E-01  0.15387427611E-01  0.81462264335E-01  0.51100000000E-03 0.  1.
</event>
<event>
 8    1  0.1064884E+005  0.1043930E+01  0.7957747E-01            NaN
         13   -1    0    0    0    0  0.00000000000E+00  0.00000000000E+00  0.74505805969E-08  0.10566000000E+00  0.10566000000E+00 0.  1.
     999900   -1    0    0    0    0 -0.00000000000E+00 -0.00000000000E+00 -0.74505805969E-08  0.93827000000E+00  0.93827000000E+00 0. -1.
     999902    2    1    2    0    0  0.15824057924E-01  0.89562093482E-02 -0.16413687244E-01  0.10194346204E+01  0.10191402855E+01 0.  0.
     999903    2    3    3    0    0 -0.10245814288E+00 -0.48700111726E-01 -0.57451931549E-01  0.12870510592E+00  0.19872290450E-01 0.  0.
         14    1    1    2    0    0 -0.15824057924E-01 -0.89562093482E-02  0.16413687244E-01  0.24495379646E-01  0.00000000000E+00 0.  1.
     999901    1    3    3    0    0  0.11828220080E+00  0.57656321074E-01  0.41038244305E-01  0.89072951443E+00  0.88000000000E+00 0. -1.
        -11    1    4    4    0    0 -0.44981408245E-01 -0.19765136250E-01 -0.14116264249E-01  0.51122575600E-01  0.51100000000E-03 0.  1.
         11    1    4    4    0    0 -0.57476734631E-01 -0.28934975476E-01 -0.43335667300E-01  0.77582530321E-01  0.51100000000E-03 0. -1.
</event>
<event>
 8    1  0.1064884E+005  0.1043930E+01  0.7957747E-01            NaN
         13   -1    0    0    0    0  0.00000000000E+00  0.00000000000E+00  0.74505805969E-08  0.10566000000E+00  0.10566000000E+00 0.  1.
     999900   -1    0    0    0    0 -0.00000000000E+00 -0.00000000000E+00 -0.74505805969E-08  0.93827000000E+00  0.93827000000E+00 0.  1.
     999902    2    1    2    0    0  0.13173700820E-01 -0.17470041146E-01  0.13369847272E-01  0.10182882070E+01  0.10179653093E+01 0.  0.
     999903    2    3    3    0    0  0.68534011011E-01  0.42537160441E-01 -0.96885905332E-01  0.12765811593E+00  0.20084701298E-01 0.  0.
         14    1    1    2    0    0 -0.13173700820E-01  0.17470041146E-01 -0.13369847272E-01  0.25641792976E-01  0.00000000000E+00 0. -1.
     999901    1    3    3    0    0 -0.55360310191E-01 -0.60007201588E-01  0.11025575260E+00  0.89063009110E+00  0.88000000000E+00 0. -1.
        -11    1    4    4    0    0  0.44969486955E-01  0.35901330051E-01 -0.76922741680E-01  0.96065235986E-01  0.51100000000E-03 0.  1.
         11    1    4    4    0    0  0.23564524056E-01  0.66358303902E-02 -0.19963163652E-01  0.31592879940E-01  0.51100000000E-03 0. -1.
</event>
<event>
 8    1  0.1064884E+005  0.1043930E+01  0.7957747E-01            NaN
         13   -1    0    0    0    0  0.00000000000E+00  0.00000000000E+00  0.74505805969E-08  0.10566000000E+00  0.10566000000E+00 0. -1.
     999900   -1    0    0    0    0 -0.00000000000E+00 -0.00000000000E+00 -0.74505805969E-08  0.93827000000E+00  0.93827000000E+00 0. -1.
     999902    2    1    2    0    0  0.37846402647E-02  0.21789100907E-01 -0.37607082623E-02  0.10214971815E+01  0.10212508313E+01 0.  0.
     999903    2    3    3    0    0 -0.92975542440E-01  0.61112501729E-01 -0.69056624491E-01  0.13291830513E+00  0.22787476683E-01 0.  0.
         14    1    1    2    0    0 -0.37846402647E-02 -0.21789100907E-01  0.37607082623E-02  0.22432818523E-01  0.00000000000E+00 0.  1.
     999901    1    3    3    0    0  0.96760182705E-01 -0.39323400821E-01  0.65295916229E-01  0.88857887634E+00  0.88000000000E+00 0.  1.
        -11    1    4    4    0    0 -0.17504444122E-01  0.18841608309E-02 -0.11627014737E-01  0.21104601838E-01  0.51100000000E-03 0.  1.
         11    1    4    4    0    0 -0.75471098318E-01  0.59228340898E-01 -0.57429609754E-01  0.11181370329E+00  0.51100000000E-03 0. -1.
</event>
<event>
 8    1  0.1064884E+005  0.1043930E+01  0.7957747E-01            NaN
         13   -1    0    0    0    0  0.00000000000E+00  0.00000000000E+00  0.74505805969E-08  0.10566000000E+00  0.10566000000E+00 0. -1.
     999900   -1    0    0    0    0 -0.00000000000E+00 -0.00000000000E+00 -0.74505805969E-08  0.93827000000E+00  0.93827000000E+00 0.  1.
     999902    2    1    2    0    0  0.81145986880E-02 -0.16487333655E-01 -0.16254906417E-01  0.10193963320E+01  0.10191010651E+01 0.  0.
     999903    2    3    3    0    0 -0.15485665070E-01 -0.89823363793E-01  0.89910965229E-01  0.12967371339E+00  0.20572986410E-01 0.  0.
         14    1    1    2    0    0 -0.81145986880E-02  0.16487333655E-01  0.16254906417E-01  0.24533668000E-01  0.00000000000E+00 0. -1.
     999901    1    3    3    0    0  0.23600263758E-01  0.73336030138E-01 -0.10616587165E+00  0.88972261861E+00  0.88000000000E+00 0.  1.
        -11    1    4    4    0    0 -0.12499102875E-01 -0.61511634511E-01  0.74070284649E-01  0.97090560519E-01  0.51100000000E-03 0. -1.
         11    1    4    4    0    0 -0.29865621946E-02 -0.28311729283E-01  0.15840680580E-01  0.32583152870E-01  0.51100000000E-03 0.  1.
</event>
<event>
 8    1  0.1064884E+005  0.1043930E+01  0.7957747E-01            NaN
         13   -1    0    0    0    0  0.00000000000E+00  0.00000000000E+00  0.74505805969E-08  0.10566000000E+00  0.10566000000E+00 0. -1.
     999900   -1    0    0    0    0 -0.00000000000E+00 -0.00000000000E+00 -0.74505805969E-08  0.93827000000E+00  0.93827000000E+00 0. -1.
     999902    2    1    2    0    0  0.13794662189E-01 -0.18539494740E-02 -0.53909645130E-02  0.10290037703E+01  0.10288955083E+01 0.  0.
     999903    2    3    3    0    0  0.52749029970E-01 -0.11146572192E+00  0.60745006399E-01  0.13888796322E+00  0.19820272445E-01 0.  0.
         14    1    1    2    0    0 -0.13794662189E-01  0.18539494740E-02  0.53909645130E-02  0.14926229663E-01  0.00000000000E+00 0.  1.
     999901    1    3    3    0    0 -0.38954367780E-01  0.10961177245E+00 -0.66135970912E-01  0.89011580712E+00  0.88000000000E+00 0.  1.
        -11    1    4    4    0    0  0.84697837018E-02 -0.33991706708E-01  0.23526543133E-01  0.42201098489E-01  0.51100000000E-03 0. -1.
         11    1    4    4    0    0  0.44279246268E-01 -0.77474015212E-01  0.37218463265E-01  0.96686864733E-01  0.51100000000E-03 0.  1.
</event>
<event>
 8    1  0.1064884E+005  0.1043930E+01  0.7957747E-01            NaN
         13   -1    0    0    0    0  0.00000000000E+00  0.00000000000E+00  0.74505805969E-08  0.10566000000E+00  0.10566000000E+00 0. -1.
     999900   -1    0    0    0    0 -0.00000000000E+00 -0.00000000000E+00 -0.74505805969E-08  0.93827000000E+00  0.93827000000E+00 0.  1.
     999902    2    1    2    0    0 -0.18770935923E-01  0.13228382034E-01 -0.65008210399E-02  0.10200637309E+01  0.10197844950E+01 0.  0.
     999903    2    3    3    0    0  0.48358747971E-02 -0.82556838980E-01  0.96579751943E-01  0.12857189437E+00  0.19080518540E-01 0.  0.
         14    1    1    2    0    0  0.18770935923E-01 -0.13228382034E-01  0.65008210399E-02  0.23866269102E-01  0.00000000000E+00 0. -1.
     999901    1    3    3    0    0 -0.23606810720E-01  0.95785221014E-01 -0.10308057298E+00  0.89149183653E+00  0.88000000000E+00 0.  1.
        -11    1    4    4    0    0  0.98598399674E-02 -0.44536756935E-01  0.43081246951E-01  0.62745470931E-01  0.51100000000E-03 0.  1.
         11    1    4    4    0    0 -0.50239651703E-02 -0.38020082045E-01  0.53498504992E-01  0.65826423434E-01  0.51100000000E-03 0. -1.
</event>
<event>
 7    1  0.1064884E+005  0.1043930E+01  0.7957747E-01            NaN
         13   -1    0    0    0    0  0.00000000000E+00  0.00000000000E+00  0.74505805969E-08  0.10566000000E+00  0.10566000000E+00 0. -1.
     999900   -1    0    0    0    0 -0.00000000000E+00 -0.00000000000E+00 -0.74505805969E-08  0.93827000000E+00  0.93827000000E+00 0. -1.
     999903    2    1    2    0    0  0.74394212081E-01 -0.50473452508E-01  0.21746346466E-01  0.94571113938E-01  0.19716079930E-01 0.  0.
         14    1    1    2    0    0 -0.56224301436E-01 -0.85767912635E-02  0.32537417443E-01  0.65524170763E-01  0.00000000000E+00 0. -1.
     999901    1    1    2    0    0 -0.18169910645E-01  0.59050243771E-01 -0.54283763909E-01  0.88383471530E+00  0.88000000000E+00 0.  1.
        -11    1    3    3    0    0  0.19225841287E-01 -0.35464751880E-02  0.59197498650E-02  0.20433184257E-01  0.51100000000E-03 0.  1.
         11    1    3    3    0    0  0.55168370794E-01 -0.46926977319E-01  0.15826596601E-01  0.74137929681E-01  0.51100000000E-03 0. -1.
</event>
<event>
 8    1  0.1064884E+005  0.1043930E+01  0.7957747E-01            NaN
         13   -1    0    0    0    0  0.00000000000E+00  0.00000000000E+00  0.74505805969E-08  0.10566000000E+00  0.10566000000E+00 0.  1.
     999900   -1    0    0    0    0 -0.00000000000E+00 -0.00000000000E+00 -0.74505805969E-08  0.93827000000E+00  0.93827000000E+00 0.  1.
     999902    2    1    2    0    0 -0.64781417613E-02 -0.12601864855E-01  0.18532568585E-01  0.10206012749E+01  0.10203346181E+01 0.  0.
     999903    2    3    3    0    0 -0.48860175382E-01  0.21399501334E-01 -0.11558091423E+00  0.12878360518E+00  0.19519575656E-01 0.  0.
         14    1    1    2    0    0  0.64781417613E-02  0.12601864855E-01 -0.18532568585E-01  0.23328725144E-01  0.00000000000E+00 0. -1.
     999901    1    3    3    0    0  0.42382033621E-01 -0.34001366189E-01  0.13411348281E+00  0.89181766968E+00  0.88000000000E+00 0. -1.
        -11    1    4    4    0    0 -0.26212924857E-02 -0.15150751295E-02 -0.19307937062E-01  0.19550554507E-01  0.51100000000E-03 0.  1.
         11    1    4    4    0    0 -0.46238882896E-01  0.22914576463E-01 -0.96272977164E-01  0.10923305067E+00  0.51100000000E-03 0. -1.
</event>
<event>
 8    1  0.1064884E+005  0.1043930E+01  0.7957747E-01            NaN
         13   -1    0    0    0    0  0.00000000000E+00  0.00000000000E+00  0.74505805969E-08  0.10566000000E+00  0.10566000000E+00 0.  1.
     999900   -1    0    0    0    0 -0.00000000000E+00 -0.00000000000E+00 -0.74505805969E-08  0.93827000000E+00  0.93827000000E+00 0. -1.
     999902    2    1    2    0    0 -0.22574130912E-01  0.40765042472E-02  0.41581086005E-02  0.10206169320E+01  0.10203506371E+01 0.  0.
     999903    2    3    3    0    0  0.26737097738E-01  0.86510407853E-01  0.91982672270E-01  0.13104394469E+00  0.22644654550E-01 0.  0.
         14    1    1    2    0    0  0.22574130912E-01 -0.40765042472E-02 -0.41581086005E-02  0.23313068019E-01  0.00000000000E+00 0. -1.
     999901    1    3    3    0    0 -0.49311228650E-01 -0.82433903606E-01 -0.87824563669E-01  0.88957298729E+00  0.88000000000E+00 0. -1.
        -11    1    4    4    0    0  0.16463965475E-02  0.12441207624E-01  0.25393481147E-01  0.28329918364E-01  0.51100000000E-03 0. -1.
         11    1    4    4    0    0  0.25090701191E-01  0.74069200228E-01  0.66589191123E-01  0.10271402633E+00  0.51100000000E-03 0.  1.
</event>
<event>
 8    1  0.1064884E+005  0.1043930E+01  0.7957747E-01            NaN
         13   -1    0    0    0    0  0.00000000000E+00  0.00000000000E+00  0.74505805969E-08  0.10566000000E+00  0.10566000000E+00 0. -1.
     999900   -1    0    0    0    0 -0.00000000000E+00 -0.00000000000E+00 -0.74505805969E-08  0.93827000000E+00  0.93827000000E+00 0.  1.
     999902    2    1    2    0    0  0.18293921638E-03  0.15157323362E-01  0.17881372566E-01  0.10204881271E+01  0.10202188472E+01 0.  0.
     999903    2    3    3    0    0  0.90673989532E-02  0.53786965378E-01 -0.11567185910E+00  0.12952929052E+00  0.20557303941E-01 0.  0.
         14    1    1    2    0    0 -0.18293921638E-03 -0.15157323362E-01 -0.17881372566E-01  0.23441872858E-01  0.00000000000E+00 0. -1.
     999901    1    3    3    0    0 -0.88844597368E-02 -0.38629642017E-01  0.13355323167E+00  0.89095883662E+00  0.88000000000E+00 0. -1.
        -11    1    4    4    0    0  0.14346633324E-02  0.29262869450E-01 -0.39779790747E-01  0.49407151913E-01  0.51100000000E-03 0.  1.
         11    1    4    4    0    0  0.76327356207E-02  0.24524095928E-01 -0.75892068358E-01  0.80122138606E-01  0.51100000000E-03 0. -1.
</event>
<event>
 8    1  0.1064884E+005  0.1043930E+01  0.7957747E-01            NaN
         13   -1    0    0    0    0  0.00000000000E+00  0.00000000000E+00  0.74505805969E-08  0.10566000000E+00  0.10566000000E+00 0. -1.
     999900   -1    0    0    0    0 -0.00000000000E+00 -0.00000000000E+00 -0.74505805969E-08  0.93827000000E+00  0.93827000000E+00 0. -1.
     999902    2    1    2    0    0  0.57588388941E-02  0.21101366837E-01 -0.93530435262E-02  0.10201411091E+01  0.10198637022E+01 0.  0.
     999903    2    3    3    0    0  0.47525499799E-01  0.66638538593E-01  0.10057397332E+00  0.13115177450E+00  0.19654411383E-01 0.  0.
         14    1    1    2    0    0 -0.57588388941E-02 -0.21101366837E-01  0.93530435262E-02  0.23788890916E-01  0.00000000000E+00 0.  1.
     999901    1    3    3    0    0 -0.41766660905E-01 -0.45537171756E-01 -0.10992701685E+00  0.88898933459E+00  0.88000000000E+00 0. -1.
        -11    1    4    4    0    0  0.32029811368E-01  0.32890456078E-01  0.44831693631E-01  0.64170341998E-01  0.51100000000E-03 0. -1.
         11    1    4    4    0    0  0.15495688431E-01  0.33748082514E-01  0.55742279693E-01  0.66981432500E-01  0.51100000000E-03 0.  1.
</event>
<event>
 8    1  0.1064884E+005  0.1043930E+01  0.7957747E-01            NaN
         13   -1    0    0    0    0  0.00000000000E+00  0.00000000000E+00  0.74505805969E-08  0.10566000000E+00  0.10566000000E+00 0.  1.
     999900   -1    0    0    0    0 -0.00000000000E+00 -0.00000000000E+00 -0.74505805969E-08  0.93827000000E+00  0.93827000000E+00 0.  1.
     999902    2    1    2    0    0  0.65117714725E-02 -0.15944384496E-01 -0.15581563820E-01  0.10207047617E+01  0.10204404925E+01 0.  0.
     999903    2    3    3    0    0  0.86256720516E-01  0.47862370828E-01  0.81531919969E-01  0.12949121394E+00  0.19735555154E-01 0.  0.
         14    1    1    2    0    0 -0.65117714725E-02  0.15944384496E-01  0.15581563820E-01  0.23225238335E-01  0.00000000000E+00 0.  1.
     999901    1    3    3    0    0 -0.79744949043E-01 -0.63806755324E-01 -0.97113483788E-01  0.89121354773E+00  0.88000000000E+00 0.  1.
        -11    1    4    4    0    0  0.31145734133E-01  0.28301367445E-01  0.32503013103E-01  0.53176415220E-01  0.51100000000E-03 0. -1.
         11    1    4    4    0    0  0.55110986383E-01  0.19561003384E-01  0.49028906866E-01  0.76314798715E-01  0.51100000000E-03 0.  1.
</event>
<event>
 8    1  0.1064884E+005  0.1043930E+01  0.7957747E-01            NaN
         13   -1    0    0    0    0  0.00000000000E+00  0.00000000000E+00  0.74505805969E-08  0.10566000000E+00  0.10566000000E+00 0.  1.
     999900   -1    0    0    0    0 -0.00000000000E+00 -0.00000000000E+00 -0.74505805969E-08  0.93827000000E+00  0.93827000000E+00 0. -1.
     999902    2    1    2    0    0  0.14296087665E-01 -0.18666782945E-01  0.28011492069E-02  0.10202514581E+01  0.10199766490E+01 0.  0.
     999903    2    3    3    0    0 -0.58636926517E-01  0.94325459166E-02 -0.11294365202E+00  0.12923762219E+00  0.20465394741E-01 0.  0.
         14    1    1    2    0    0 -0.14296087665E-01  0.18666782945E-01 -0.28011492069E-02  0.23678541866E-01  0.00000000000E+00 0.  1.
     999901    1    3    3    0    0  0.72933014182E-01 -0.28099328861E-01  0.11574480123E+00  0.89101383595E+00  0.88000000000E+00 0.  1.
        -11    1    4    4    0    0 -0.16651586198E-01 -0.63761462287E-02 -0.28703324441E-01  0.33794563447E-01  0.51100000000E-03 0. -1.
         11    1    4    4    0    0 -0.41985340320E-01  0.15808692145E-01 -0.84240327583E-01  0.95443058738E-01  0.51100000000E-03 0.  1.
</event>
<event>
 8    1  0.1064884E+005  0.1043930E+01  0.7957747E-01            NaN
         13   -1    0    0    0    0  0.00000000000E+00  0.00000000000E+00  0.74505805969E-08  0.10566000000E+00  0.10566000000E+00 0. -1.
     999900   -1    0    0    0    0 -0.00000000000E+00 -0.00000000000E+00 -0.74505805969E-08  0.93827000000E+00  0.93827000000E+00 0. -1.
     999902    2    1    2    0    0  0.16224947681E-01  0.21069163686E-02  0.15784067047E-01  0.10211962190E+01  0.10209431390E+01 0.  0.
     999903    2    3    3    0    0 -0.25566352141E-01  0.20521725250E-02 -0.12511902808E+00  0.12900778718E+00  0.18176583593E-01 0.  0.
         14    1    1    2    0    0 -0.16224947681E-01 -0.21069163686E-02 -0.15784067047E-01  0.22733780952E-01  0.00000000000E+00 0.  1.
     999901    1    3    3    0    0  0.41791299821E-01  0.54743843614E-04  0.14090309513E+00  0.89218843187E+00  0.88000000000E+00 0.  1.
        -11    1    4    4    0    0 -0.23013856952E-01 -0.52242115322E-02 -0.89540736814E-01  0.92599863218E-01  0.51100000000E-03 0.  1.
         11    1    4    4    0    0 -0.25524951890E-02  0.72763840572E-02 -0.35578291270E-01  0.36407923964E-01  0.51100000000E-03 0. -1.
</event>
<event>
 8    1  0.1064884E+005  0.1043930E+01  0.7957747E-01            NaN
         13   -1    0    0    0    0  0.00000000000E+00  0.00000000000E+00  0.74505805969E-08  0.10566000000E+00  0.10566000000E+00 0.  1.
     999900   -1    0    0    0    0 -0.00000000000E+00 -0.00000000000E+00 -0.74505805969E-08  0.93827000000E+00  0.93827000000E+00 0. -1.
     999902    2    1    2    0    0 -0.17556467986E-01  0.99236320172E-02  0.11365825047E-01  0.10207807015E+01  0.10205181775E+01 0.  0.
     999903    2    3    3    0    0  0.46348345640E-01 -0.10672552802E+00  0.53986984032E-01  0.12976587846E+00  0.19648951457E-01 0.  0.
         14    1    1    2    0    0  0.17556467986E-01 -0.99236320172E-02 -0.11365825047E-01  0.23149298468E-01  0.00000000000E+00 0.  1.
     999901    1    3    3    0    0 -0.63904813625E-01  0.11664916004E+00 -0.42621158985E-01  0.89101482307E+00  0.88000000000E+00 0. -1.
        -11    1    4    4    0    0  0.21386020577E-01 -0.51671628595E-01  0.15243653266E-01  0.57965068478E-01  0.51100000000E-03 0.  1.
         11    1    4    4    0    0  0.24962325062E-01 -0.55053899423E-01  0.38743330766E-01  0.71800809982E-01  0.51100000000E-03 0. -1.
</event>
<event>
 8    1  0.1064884E+005  0.1043930E+01  0.7957747E-01            NaN
         13   -1    0    0    0    0  0.00000000000E+00  0.00000000000E+00  0.74505805969E-08  0.10566000000E+00  0.10566000000E+00 0. -1.
     999900   -1    0    0    0    0 -0.00000000000E+00 -0.00000000000E+00 -0.74505805969E-08  0.93827000000E+00  0.93827000000E+00 0.  1.
     999902    2    1    2    0    0  0.89143140930E-02  0.18850539323E-01 -0.12563936613E-01  0.10195853839E+01  0.10192947046E+01 0.  0.
     999903    2    3    3    0    0  0.56677971467E-01 -0.11106950437E+00 -0.24443617739E-01  0.12868600041E+00  0.20341312735E-01 0.  0.
         14    1    1    2    0    0 -0.89143140930E-02 -0.18850539323E-01  0.12563936613E-01  0.24344616073E-01  0.00000000000E+00 0. -1.
     999901    1    3    3    0    0 -0.47763657374E-01  0.12992004369E+00  0.11879681126E-01  0.89089938351E+00  0.88000000000E+00 0. -1.
        -11    1    4    4    0    0  0.48974748692E-01 -0.78282301137E-01 -0.21923002346E-01  0.94907975606E-01  0.51100000000E-03 0.  1.
         11    1    4    4    0    0  0.77032227746E-02 -0.32787203234E-01 -0.25206153928E-02  0.33778024808E-01  0.51100000000E-03 0. -1.
</event>
<event>
 8    1  0.1064884E+005  0.1043930E+01  0.7957747E-01            NaN
         13   -1    0    0    0    0  0.00000000000E+00  0.00000000000E+00  0.74505805969E-08  0.10566000000E+00  0.10566000000E+00 0. -1.
     999900   -1    0    0    0    0 -0.00000000000E+00 -0.00000000000E+00 -0.74505805969E-08  0.93827000000E+00  0.93827000000E+00 0. -1.
     999902    2    1    2    0    0 -0.28642610784E-01  0.97635688553E-02  0.19384127252E-01  0.10079929604E+01  0.10073521417E+01 0.  0.
     999903    2    3    3    0    0  0.97003314350E-01  0.62771743716E-01  0.11246491156E-02  0.11730211969E+00  0.20213550974E-01 0.  0.
         14    1    1    2    0    0  0.28642610784E-01 -0.97635688553E-02 -0.19384127252E-01  0.35937039648E-01  0.00000000000E+00 0.  1.
     999901    1    3    3    0    0 -0.12564592513E+00 -0.53008174861E-01  0.18259478137E-01  0.89069084067E+00  0.88000000000E+00 0. -1.
        -11    1    4    4    0    0  0.92982134375E-01  0.53897741118E-01  0.21155655505E-02  0.10749595597E+00  0.51100000000E-03 0. -1.
         11    1    4    4    0    0  0.40211799754E-02  0.88740025982E-02 -0.99091643495E-03  0.98061637192E-02  0.51100000000E-03 0.  1.
</event>
<event>
 8    1  0.1064884E+005  0.1043930E+01  0.7957747E-01            NaN
         13   -1    0    0    0    0  0.00000000000E+00  0.00000000000E+00  0.74505805969E-08  0.10566000000E+00  0.10566000000E+00 0. -1.
     999900   -1    0    0    0    0 -0.00000000000E+00 -0.00000000000E+00 -0.74505805969E-08  0.93827000000E+00  0.93827000000E+00 0. -1.
     999902    2    1    2    0    0  0.94123859185E-02  0.12001499364E-01 -0.18350338594E-01  0.10200686521E+01  0.10197895328E+01 0.  0.
     999903    2    3    3    0    0 -0.78749573694E-01  0.26554012333E-02  0.98303075129E-01  0.12795436595E+00  0.22366910227E-01 0.  0.
         14    1    1    2    0    0 -0.94123859185E-02 -0.12001499364E-01  0.18350338594E-01  0.23861347870E-01  0.00000000000E+00 0. -1.
     999901    1    3    3    0    0  0.88161959613E-01  0.93460981305E-02 -0.11665341372E+00  0.89211428618E+00  0.88000000000E+00 0. -1.
        -11    1    4    4    0    0 -0.24784859185E-01 -0.61606688784E-02  0.19974182389E-01  0.32426411595E-01  0.51100000000E-03 0.  1.
         11    1    4    4    0    0 -0.53964714509E-01  0.88160701117E-02  0.78328892740E-01  0.95527954354E-01  0.51100000000E-03 0. -1.
</event>
<event>
 8    1  0.1064884E+005  0.1043930E+01  0.7957747E-01            NaN
         13   -1    0    0    0    0  0.00000000000E+00  0.00000000000E+00  0.74505805969E-08  0.10566000000E+00  0.10566000000E+00 0. -1.
     999900   -1    0    0    0    0 -0.00000000000E+00 -0.00000000000E+00 -0.74505805969E-08  0.93827000000E+00  0.93827000000E+00 0. -1.
     999902    2    1    2    0    0 -0.10337371465E-01 -0.21393168132E-01  0.60864306258E-02  0.10194030041E+01  0.10191078997E+01 0.  0.
     999903    2    3    3    0    0 -0.90184878466E-01 -0.10084616548E-01  0.92964011177E-01  0.13145524563E+00  0.20078905232E-01 0.  0.
         14    1    1    2    0    0  0.10337371465E-01  0.21393168132E-01 -0.60864306258E-02  0.24526995929E-01  0.00000000000E+00 0.  1.
     999901    1    3    3    0    0  0.79847507001E-01 -0.11308551583E-01 -0.86877580552E-01  0.88794775844E+00  0.88000000000E+00 0. -1.
        -11    1    4    4    0    0 -0.19847181641E-01 -0.64042964564E-02  0.32541037835E-01  0.38653666017E-01  0.51100000000E-03 0. -1.
         11    1    4    4    0    0 -0.70337696825E-01 -0.36803200920E-02  0.60422973343E-01  0.92801579616E-01  0.51100000000E-03 0.  1.
</event>
<event>
 8    1  0.1208167E+005  0.1043930E+01  0.7957747E-01            NaN
         13   -1    0    0    0    0  0.00000000000E+00  0.00000000000E+00  0.74505805969E-08  0.10566000000E+00  0.10566000000E+00 0.  1.
     999900   -1    0    0    0    0 -0.00000000000E+00 -0.00000000000E+00 -0.74505805969E-08  0.93827000000E+00  0.93827000000E+00 0. -1.
     999902    2    1    2    0    0  0.20272788797E-01 -0.10728546196E-01 -0.62166064846E-02  0.10201658702E+01  0.10198890473E+01 0.  0.
     999903    2    3    3    0    0  0.59107257112E-01 -0.75505227742E-01  0.88563094977E-01  0.13185999596E+00  0.18679654235E-01 0.  0.
         14    1    1    2    0    0 -0.20272788797E-01  0.10728546196E-01  0.62166064846E-02  0.23764129802E-01  0.00000000000E+00 0.  1.
     999901    1    3    3    0    0 -0.38834468315E-01  0.64776681546E-01 -0.94779701461E-01  0.88830587424E+00  0.88000000000E+00 0.  1.
        -11    1    4    4    0    0  0.31222127048E-01 -0.25615763681E-01  0.40253088524E-01  0.57022458935E-01  0.51100000000E-03 0. -1.
         11    1    4    4    0    0  0.27885130064E-01 -0.49889464061E-01  0.48310006453E-01  0.74837537022E-01  0.51100000000E-03 0.  1.
</event>
<event>
 8    1  0.1064884E+005  0.1043930E+01  0.7957747E-01            NaN
         13   -1    0    0    0    0  0.00000000000E+00  0.00000000000E+00  0.74505805969E-08  0.10566000000E+00  0.10566000000E+00 0.  1.
     999900   -1    0    0    0    0 -0.00000000000E+00 -0.00000000000E+00 -0.74505805969E-08  0.93827000000E+00  0.93827000000E+00 0.  1.
     999902    2    1    2    0    0 -0.84976884886E-02  0.19185227911E-01 -0.13597942093E-01  0.10189262461E+01  0.10186194124E+01 0.  0.
     999903    2    3    3    0    0  0.24703601848E-01 -0.35301620346E-02  0.12338523745E+00  0.12742038180E+00  0.19730861314E-01 0.  0.
         14    1    1    2    0    0  0.84976884886E-02 -0.19185227911E-01  0.13597942093E-01  0.25003753894E-01  0.00000000000E+00 0.  1.
     999901    1    3    3    0    0 -0.33201290337E-01  0.22715389946E-01 -0.13698317954E+00  0.89150586431E+00  0.88000000000E+00 0.  1.
        -11    1    4    4    0    0  0.16567674082E-01 -0.88727213649E-02  0.50497669223E-01  0.53884030351E-01  0.51100000000E-03 0. -1.
         11    1    4    4    0    0  0.81359277662E-02  0.53425593303E-02  0.72887568228E-01  0.73536351446E-01  0.51100000000E-03 0.  1.
</event>
<event>
 8    1  0.1064884E+005  0.1043930E+01  0.7957747E-01            NaN
         13   -1    0    0    0    0  0.00000000000E+00  0.00000000000E+00  0.74505805969E-08  0.10566000000E+00  0.10566000000E+00 0.  1.
     999900   -1    0    0    0    0 -0.00000000000E+00 -0.00000000000E+00 -0.74505805969E-08  0.93827000000E+00  0.93827000000E+00 0.  1.
     999902    2    1    2    0    0 -0.21555327228E-01  0.75950502369E-03 -0.99794275726E-02  0.10201645218E+01  0.10198876671E+01 0.  0.
     999903    2    3    3    0    0  0.10136944362E+00 -0.29529499569E-01 -0.70185366695E-01  0.12906818682E+00  0.24183790186E-01 0.  0.
         14    1    1    2    0    0  0.21555327228E-01 -0.75950502369E-03  0.99794275726E-02  0.23765478208E-01  0.00000000000E+00 0.  1.
     999901    1    3    3    0    0 -0.12292477085E+00  0.30289004593E-01  0.60205939122E-01  0.89109633497E+00  0.88000000000E+00 0. -1.
        -11    1    4    4    0    0  0.73056919766E-01 -0.31725555887E-01 -0.55631660502E-01  0.97154347269E-01  0.51100000000E-03 0. -1.
         11    1    4    4    0    0  0.28312523852E-01  0.21960563174E-02 -0.14553706192E-01  0.31913839555E-01  0.51100000000E-03 0.  1.
</event>
<event>
 8    1  0.1064884E+005  0.1043930E+01  0.7957747E-01            NaN
         13   -1    0    0    0    0  0.00000000000E+00  0.00000000000E+00  0.74505805969E-08  0.10566000000E+00  0.10566000000E+00 0. -1.
     999900   -1    0    0    0    0 -0.00000000000E+00 -0.00000000000E+00 -0.74505805969E-08  0.93827000000E+00  0.93827000000E+00 0.  1.
     999902    2    1    2    0    0  0.11849040471E-01  0.23227818178E-01  0.52060411452E-02  0.10173398860E+01  0.10169923350E+01 0.  0.
     999903    2    3    3    0    0  0.52799492191E-01  0.14360991054E-01 -0.11429764294E+00  0.12827482055E+00  0.19911151766E-01 0.  0.
         14    1    1    2    0    0 -0.11849040471E-01 -0.23227818178E-01 -0.52060411452E-02  0.26590113986E-01  0.00000000000E+00 0. -1.
     999901    1    3    3    0    0 -0.40950451720E-01  0.88668271236E-02  0.11950368409E+00  0.88906506546E+00  0.88000000000E+00 0. -1.
        -11    1    4    4    0    0  0.15343565270E-01  0.11694229012E-01 -0.26498045412E-01  0.32780901742E-01  0.51100000000E-03 0. -1.
         11    1    4    4    0    0  0.37455926921E-01  0.26667620421E-02 -0.87799597532E-01  0.95493918807E-01  0.51100000000E-03 0.  1.
</event>
<event>
 8    1  0.1064884E+005  0.1043930E+01  0.7957747E-01            NaN
         13   -1    0    0    0    0  0.00000000000E+00  0.00000000000E+00  0.74505805969E-08  0.10566000000E+00  0.10566000000E+00 0.  1.
     999900   -1    0    0    0    0 -0.00000000000E+00 -0.00000000000E+00 -0.74505805969E-08  0.93827000000E+00  0.93827000000E+00 0. -1.
     999902    2    1    2    0    0 -0.12107184013E-01 -0.19185647324E-01 -0.68384935150E-02  0.10202353179E+01  0.10199601295E+01 0.  0.
     999903    2    3    3    0    0 -0.97898181242E-02 -0.11665680786E-01  0.12755806535E+00  0.12999694804E+00  0.19905220821E-01 0.  0.
         14    1    1    2    0    0  0.12107184013E-01  0.19185647324E-01  0.68384935150E-02  0.23694682136E-01  0.00000000000E+00 0. -1.
     999901    1    3    3    0    0 -0.23173658885E-02 -0.75199665381E-02 -0.13439655886E+00  0.89023836983E+00  0.88000000000E+00 0. -1.
        -11    1    4    4    0    0 -0.15168366000E-01 -0.49661180157E-02  0.94343389270E-01  0.95685306474E-01  0.51100000000E-03 0.  1.
         11    1    4    4    0    0  0.53785478758E-02 -0.66995627700E-02  0.33214676079E-01  0.34311641561E-01  0.51100000000E-03 0. -1.
</event>
<event>
 8    1  0.1064884E+005  0.1043930E+01  0.7957747E-01            NaN
         13   -1    0    0    0    0  0.00000000000E+00  0.00000000000E+00  0.74505805969E-08  0.10566000000E+00  0.10566000000E+00 0.  1.
     999900   -1    0    0    0    0 -0.00000000000E+00 -0.00000000000E+00 -0.74505805969E-08  0.93827000000E+00  0.93827000000E+00 0.  1.
     999902    2    1    2    0    0 -0.24908275219E-01 -0.17966760398E-02 -0.33521223970E-02  0.10187330370E+01  0.10184213832E+01 0.  0.
     999903    2    3    3    0    0 -0.97116141151E-01  0.60045763772E-01  0.61611792528E-01  0.13123161532E+00  0.19715102388E-01 0.  0.
         14    1    1    2    0    0  0.24908275219E-01  0.17966760398E-02  0.33521223970E-02  0.25196962986E-01  0.00000000000E+00 0. -1.
     999901    1    3    3    0    0  0.72207865932E-01 -0.61842439812E-01 -0.64963914925E-01  0.88750142169E+00  0.88000000000E+00 0.  1.
        -11    1    4    4    0    0 -0.27429662225E-01  0.13774128056E-01  0.74895058241E-02  0.31598525155E-01  0.51100000000E-03 0.  1.
         11    1    4    4    0    0 -0.69686478926E-01  0.46271635716E-01  0.54122286704E-01  0.99633090166E-01  0.51100000000E-03 0. -1.
</event>
<event>
 8    1  0.1064884E+005  0.1043930E+01  0.7957747E-01            NaN
         13   -1    0    0    0    0  0.00000000000E+00  0.00000000000E+00  0.74505805969E-08  0.10566000000E+00  0.10566000000E+00 0.  1.
     999900   -1    0    0    0    0 -0.00000000000E+00 -0.00000000000E+00 -0.74505805969E-08  0.93827000000E+00  0.93827000000E+00 0. -1.
     999902    2    1    2    0    0  0.13394496523E-03  0.72898639000E-02  0.12919996255E-01  0.10290946921E+01  0.10289877545E+01 0.  0.
     999903    2    3    3    0    0 -0.18621936015E-01 -0.13454949059E+00  0.15705400244E-02  0.13746753028E+00  0.21083485674E-01 0.  0.
         14    1    1    2    0    0 -0.13394496523E-03 -0.72898639000E-02 -0.12919996255E-01  0.14835307889E-01  0.00000000000E+00 0. -1.
     999901    1    3    3    0    0  0.18755880981E-01  0.14183935449E+00  0.11349456230E-01  0.89162716183E+00  0.88000000000E+00 0. -1.
        -11    1    4    4    0    0 -0.28434656588E-02 -0.94387694085E-02 -0.52502189593E-02  0.11180410772E-01  0.51100000000E-03 0. -1.
         11    1    4    4    0    0 -0.15778470356E-01 -0.12511072118E+00  0.68207589837E-02  0.12628711951E+00  0.51100000000E-03 0.  1.
</event>
<event>
 8    1  0.1064884E+005  0.1043930E+01  0.7957747E-01            NaN
         13   -1    0    0    0    0  0.00000000000E+00  0.00000000000E+00  0.74505805969E-08  0.10566000000E+00  0.10566000000E+00 0. -1.
     999900   -1    0    0    0    0 -0.00000000000E+00 -0.00000000000E+00 -0.74505805969E-08  0.93827000000E+00  0.93827000000E+00 0. -1.
     999902    2    1    2    0    0 -0.23133686256E-01 -0.99918876425E-03  0.48374633499E-02  0.10202748342E+01  0.10200005737E+01 0.  0.
     999903    2    3    3    0    0 -0.11796748685E+00 -0.49956348874E-01  0.31326142526E-01  0.13343104671E+00  0.20262089552E-01 0.  0.
         14    1    1    2    0    0  0.23133686256E-01  0.99918876425E-03 -0.48374633499E-02  0.23655165813E-01  0.00000000000E+00 0. -1.
     999901    1    3    3    0    0  0.94833800598E-01  0.48957160110E-01 -0.26488679176E-01  0.88684378748E+00  0.88000000000E+00 0. -1.
        -11    1    4    4    0    0 -0.67143321227E-01 -0.39189596031E-01  0.18425182669E-01  0.79898676459E-01  0.51100000000E-03 0.  1.
         11    1    4    4    0    0 -0.50824165627E-01 -0.10766752844E-01  0.12900959857E-01  0.53532370251E-01  0.51100000000E-03 0. -1.
</event>
<event>
 8    1  0.1064884E+005  0.1043930E+01  0.7957747E-01            NaN
         13   -1    0    0    0    0  0.00000000000E+00  0.00000000000E+00  0.74505805969E-08  0.10566000000E+00  0.10566000000E+00 0.  1.
     999900   -1    0    0    0    0 -0.00000000000E+00 -0.00000000000E+00 -0.74505805969E-08  0.93827000000E+00  0.93827000000E+00 0.  1.
     999902    2    1    2    0    0 -0.28140393506E-02  0.24548134338E-02 -0.21573926393E-01  0.10220352694E+01  0.10218007207E+01 0.  0.
     999903    2    3    3    0    0 -0.11571159621E+00  0.40788108668E-01  0.43045570795E-01  0.13164716345E+00  0.20620649172E-01 0.  0.
         14    1    1    2    0    0  0.28140393506E-02 -0.24548134338E-02  0.21573926393E-01  0.21894730564E-01  0.00000000000E+00 0.  1.
     999901    1    3    3    0    0  0.11289755686E+00 -0.38333295234E-01 -0.64619497188E-01  0.89038810599E+00  0.88000000000E+00 0. -1.
        -11    1    4    4    0    0 -0.77123874970E-01  0.18711856907E-01  0.21394670822E-01  0.82196220959E-01  0.51100000000E-03 0.  1.
         11    1    4    4    0    0 -0.38587721241E-01  0.22076251762E-01  0.21650899973E-01  0.49450942489E-01  0.51100000000E-03 0. -1.
</event>
<event>
 8    1  0.1064884E+005  0.1043930E+01  0.7957747E-01            NaN
         13   -1    0    0    0    0  0.00000000000E+00  0.00000000000E+00  0.74505805969E-08  0.10566000000E+00  0.10566000000E+00 0. -1.
     999900   -1    0    0    0    0 -0.00000000000E+00 -0.00000000000E+00 -0.74505805969E-08  0.93827000000E+00  0.93827000000E+00 0. -1.
     999902    2    1    2    0    0  0.16657341228E-01 -0.14451178518E-01 -0.84967919914E-02  0.10202974155E+01  0.10200236845E+01 0.  0.
     999903    2    3    3    0    0 -0.94021270532E-02 -0.12909664531E+00  0.17430335450E-01  0.13209986150E+00  0.19804367963E-01 0.  0.
         14    1    1    2    0    0 -0.16657341228E-01  0.14451178518E-01  0.84967919914E-02  0.23632584528E-01  0.00000000000E+00 0.  1.
     999901    1    3    3    0    0  0.26059468281E-01  0.11464546679E+00 -0.25927127442E-01  0.88819755397E+00  0.88000000000E+00 0. -1.
        -11    1    4    4    0    0  0.58652024945E-02 -0.45188476606E-01  0.37780679668E-02  0.45726731097E-01  0.51100000000E-03 0.  1.
         11    1    4    4    0    0 -0.15267329548E-01 -0.83908168707E-01  0.13652267484E-01  0.86373130403E-01  0.51100000000E-03 0. -1.
</event>
<event>
 7    1  0.1064884E+005  0.1043930E+01  0.7957747E-01            NaN
         13   -1    0    0    0    0  0.00000000000E+00  0.00000000000E+00  0.74505805969E-08  0.10566000000E+00  0.10566000000E+00 0.  1.
     999900   -1    0    0    0    0 -0.00000000000E+00 -0.00000000000E+00 -0.74505805969E-08  0.93827000000E+00  0.93827000000E+00 0.  1.
     999903    2    1    2    0    0 -0.59718882236E-01 -0.55786208815E-01 -0.50072154741E-01  0.97814540345E-01  0.19545271371E-01 0.  0.
         14    1    1    2    0    0 -0.22168878543E-01 -0.49930271176E-01  0.47141374200E-03  0.54632530478E-01  0.00000000000E+00 0. -1.
     999901    1    1    2    0    0  0.81887760778E-01  0.10571647999E+00  0.49600740999E-01  0.89148292918E+00  0.88000000000E+00 0. -1.
        -11    1    3    3    0    0 -0.56026657175E-01 -0.43896221175E-01 -0.39086025692E-01  0.81202481939E-01  0.51100000000E-03 0.  1.
         11    1    3    3    0    0 -0.36922250603E-02 -0.11889987641E-01 -0.10986129049E-01  0.16612058406E-01  0.51100000000E-03 0. -1.
</event>
<event>
 8    1  0.1064884E+005  0.1043930E+01  0.7957747E-01            NaN
         13   -1    0    0    0    0  0.00000000000E+00  0.00000000000E+00  0.74505805969E-08  0.10566000000E+00  0.10566000000E+00 0.  1.
     999900   -1    0    0    0    0 -0.00000000000E+00 -0.00000000000E+00 -0.74505805969E-08  0.93827000000E+00  0.93827000000E+00 0.  1.
     999902    2    1    2    0    0  0.58546170118E-02  0.83861468029E-02  0.23777852148E-01  0.10180458301E+01  0.10177167199E+01 0.  0.
     999903    2    3    3    0    0  0.12737529839E+00  0.78332603280E-02 -0.38808553236E-02  0.12926431264E+00  0.20208287319E-01 0.  0.
         14    1    1    2    0    0 -0.58546170118E-02 -0.83861468029E-02 -0.23777852148E-01  0.25884169898E-01  0.00000000000E+00 0. -1.
     999901    1    3    3    0    0 -0.12152068138E+00  0.55288647490E-03  0.27658707471E-01  0.88878151746E+00  0.88000000000E+00 0. -1.
        -11    1    4    4    0    0  0.98381532339E-01  0.20177125263E-02 -0.10484093666E-01  0.98960468927E-01  0.51100000000E-03 0.  1.
         11    1    4    4    0    0  0.28993766051E-01  0.58155478017E-02  0.66032383424E-02  0.30303843711E-01  0.51100000000E-03 0. -1.
</event>
<event>
 8    1  0.1064884E+005  0.1043930E+01  0.7957747E-01            NaN
         13   -1    0    0    0    0  0.00000000000E+00  0.00000000000E+00  0.74505805969E-08  0.10566000000E+00  0.10566000000E+00 0.  1.
     999900   -1    0    0    0    0 -0.00000000000E+00 -0.00000000000E+00 -0.74505805969E-08  0.93827000000E+00  0.93827000000E+00 0.  1.
     999902    2    1    2    0    0 -0.59093976281E-02 -0.72608945138E-02 -0.22087175546E-01  0.10199407338E+01  0.10196585779E+01 0.  0.
     999903    2    3    3    0    0  0.54427436025E-01  0.10893801145E+00 -0.41354121977E-01  0.13004527113E+00  0.19281416142E-01 0.  0.
         14    1    1    2    0    0  0.59093976281E-02  0.72608945138E-02  0.22087175546E-01  0.23989266205E-01  0.00000000000E+00 0. -1.
     999901    1    3    3    0    0 -0.60336833653E-01 -0.11619890596E+00  0.19266946431E-01  0.88989546266E+00  0.88000000000E+00 0. -1.
        -11    1    4    4    0    0  0.47253371458E-01  0.79293910819E-01 -0.35977618115E-01  0.99070962109E-01  0.51100000000E-03 0.  1.
         11    1    4    4    0    0  0.71740645670E-02  0.29644100632E-01 -0.53765038616E-02  0.30974309023E-01  0.51100000000E-03 0. -1.
</event>
<event>
 8    1  0.1064884E+005  0.1043930E+01  0.7957747E-01            NaN
         13   -1    0    0    0    0  0.00000000000E+00  0.00000000000E+00  0.74505805969E-08  0.10566000000E+00  0.10566000000E+00 0.  1.
     999900   -1    0    0    0    0 -0.00000000000E+00 -0.00000000000E+00 -0.74505805969E-08  0.93827000000E+00  0.93827000000E+00 0. -1.
     999902    2    1    2    0    0  0.13514427502E-01  0.99418995187E-02 -0.15687040020E-01  0.10209612312E+01  0.10207028320E+01 0.  0.
     999903    2    3    3    0    0  0.12949747276E+00 -0.17891874217E-01 -0.14441857012E-01  0.13291374583E+00  0.19177642762E-01 0.  0.
         14    1    1    2    0    0 -0.13514427502E-01 -0.99418995187E-02  0.15687040020E-01  0.22968768825E-01  0.00000000000E+00 0.  1.
     999901    1    3    3    0    0 -0.11598304526E+00  0.27833773736E-01 -0.12451830077E-02  0.88804748535E+00  0.88000000000E+00 0. -1.
        -11    1    4    4    0    0  0.97790702399E-01 -0.20108497870E-01 -0.15879484497E-01  0.10109298844E+00  0.51100000000E-03 0.  1.
         11    1    4    4    0    0  0.31706770362E-01  0.22166236528E-02  0.14376274856E-02  0.31820757392E-01  0.51100000000E-03 0. -1.
</event>
<event>
 8    1  0.1064884E+005  0.1043930E+01  0.7957747E-01            NaN
         13   -1    0    0    0    0  0.00000000000E+00  0.00000000000E+00  0.74505805969E-08  0.10566000000E+00  0.10566000000E+00 0.  1.
     999900   -1    0    0    0    0 -0.00000000000E+00 -0.00000000000E+00 -0.74505805969E-08  0.93827000000E+00  0.93827000000E+00 0. -1.
     999902    2    1    2    0    0 -0.19294355690E-01 -0.15307476799E-01  0.43738154218E-02  0.10189155788E+01  0.10186084799E+01 0.  0.
     999903    2    3    3    0    0  0.11548504768E+00  0.47607726597E-01 -0.22325297011E-02  0.12640930195E+00  0.19262283366E-01 0.  0.
         14    1    1    2    0    0  0.19294355690E-01  0.15307476799E-01 -0.43738154218E-02  0.25014421216E-01  0.00000000000E+00 0. -1.
     999901    1    3    3    0    0 -0.13477940337E+00 -0.62915203396E-01  0.66063451229E-02  0.89250627683E+00  0.88000000000E+00 0.  1.
        -11    1    4    4    0    0  0.59934236993E-01  0.16735210913E-01  0.50740473479E-02  0.62435463686E-01  0.51100000000E-03 0.  1.
         11    1    4    4    0    0  0.55550810690E-01  0.30872515684E-01 -0.73065770490E-02  0.63973838263E-01  0.51100000000E-03 0. -1.
</event>
<event>
 8    1  0.1064884E+005  0.1043930E+01  0.7957747E-01            NaN
         13   -1    0    0    0    0  0.00000000000E+00  0.00000000000E+00  0.74505805969E-08  0.10566000000E+00  0.10566000000E+00 0. -1.
     999900   -1    0    0    0    0 -0.00000000000E+00 -0.00000000000E+00 -0.74505805969E-08  0.93827000000E+00  0.93827000000E+00 0. -1.
     999902    2    1    2    0    0  0.40553141591E-02 -0.10308777055E-01  0.21127499785E-01  0.10200744408E+01  0.10197954585E+01 0.  0.
     999903    2    3    3    0    0 -0.43012674514E-01 -0.48834718095E-01 -0.10884978519E+00  0.12845022719E+00  0.20402579969E-01 0.  0.
         14    1    1    2    0    0 -0.40553141591E-02  0.10308777055E-01 -0.21127499785E-01  0.23855559194E-01  0.00000000000E+00 0.  1.
     999901    1    3    3    0    0  0.47067988673E-01  0.38525941040E-01  0.12997728498E+00  0.89162421361E+00  0.88000000000E+00 0.  1.
        -11    1    4    4    0    0 -0.35159291062E-01 -0.48622872163E-01 -0.91815087484E-01  0.10968423249E+00  0.51100000000E-03 0. -1.
         11    1    4    4    0    0 -0.78533834525E-02 -0.21184593180E-03 -0.17034697708E-01  0.18765994707E-01  0.51100000000E-03 0.  1.
</event>
<event>
 7    1  0.1064884E+005  0.1043930E+01  0.7957747E-01            NaN
         13   -1    0    0    0    0  0.00000000000E+00  0.00000000000E+00  0.74505805969E-08  0.10566000000E+00  0.10566000000E+00 0.  1.
     999900   -1    0    0    0    0 -0.00000000000E+00 -0.00000000000E+00 -0.74505805969E-08  0.93827000000E+00  0.93827000000E+00 0. -1.
     999902    2    1    2    0    0  0.46974257011E-02  0.24116653891E-01  0.52932683775E-03  0.10193544229E+01  0.10190581340E+01 0.  0.
         14    1    1    2    0    0 -0.46974257011E-02 -0.24116653891E-01 -0.52932683775E-03  0.24575577104E-01  0.00000000000E+00 0.  1.
     999901    1    3    3    0    0 -0.34269544889E-01 -0.32521040589E-01 -0.10610622839E+00  0.88763199103E+00  0.88000000000E+00 0. -1.
        -11    1    3    3    0    0  0.57862683189E-02  0.31342664071E-01  0.66886486915E-01  0.74093904912E-01  0.51100000000E-03 0.  1.
         11    1    3    3    0    0  0.33180702271E-01  0.25295030408E-01  0.39749068315E-01  0.57628526959E-01  0.51100000000E-03 0. -1.
</event>
<event>
 8    1  0.1064884E+005  0.1043930E+01  0.7957747E-01            NaN
         13   -1    0    0    0    0  0.00000000000E+00  0.00000000000E+00  0.74505805969E-08  0.10566000000E+00  0.10566000000E+00 0.  1.
     999900   -1    0    0    0    0 -0.00000000000E+00 -0.00000000000E+00 -0.74505805969E-08  0.93827000000E+00  0.93827000000E+00 0. -1.
     999902    2    1    2    0    0 -0.22066032569E-01 -0.47212240266E-02  0.29209731395E-02  0.10211762787E+01  0.10209227494E+01 0.  0.
     999903    2    3    3    0    0  0.50412382011E-01 -0.11871525951E+00  0.10120762370E-01  0.13083948978E+00  0.19540244519E-01 0.  0.
         14    1    1    2    0    0  0.22066032569E-01  0.47212240266E-02 -0.29209731395E-02  0.22753721316E-01  0.00000000000E+00 0. -1.
     999901    1    3    3    0    0 -0.72478414581E-01  0.11399403548E+00 -0.71997892304E-02  0.89033678890E+00  0.88000000000E+00 0. -1.
        -11    1    4    4    0    0  0.17119885619E-01 -0.59699024201E-01  0.10993136093E-01  0.63072768580E-01  0.51100000000E-03 0. -1.
         11    1    4    4    0    0  0.33292496392E-01 -0.59016235305E-01 -0.87237372337E-03  0.67766721203E-01  0.51100000000E-03 0.  1.
</event>
<event>
 8    1  0.1064884E+005  0.1043930E+01  0.7957747E-01            NaN
         13   -1    0    0    0    0  0.00000000000E+00  0.00000000000E+00  0.74505805969E-08  0.10566000000E+00  0.10566000000E+00 0. -1.
     999900   -1    0    0    0    0 -0.00000000000E+00 -0.00000000000E+00 -0.74505805969E-08  0.93827000000E+00  0.93827000000E+00 0. -1.
     999902    2    1    2    0    0  0.13132687863E-01 -0.13060452685E-01  0.14367144584E-01  0.10204894847E+01  0.10202202363E+01 0.  0.
     999903    2    3    3    0    0  0.23434020959E-02  0.27594452368E-01 -0.12327938342E+00  0.12879682650E+00  0.24977405868E-01 0.  0.
         14    1    1    2    0    0 -0.13132687863E-01  0.13060452685E-01 -0.14367144584E-01  0.23440515317E-01  0.00000000000E+00 0.  1.
     999901    1    3    3    0    0  0.10789285767E-01 -0.40654905053E-01  0.13764652801E+00  0.89169265819E+00  0.88000000000E+00 0.  1.
        -11    1    4    4    0    0  0.59599887781E-03  0.29022143736E-01 -0.74419300967E-01  0.79881997465E-01  0.51100000000E-03 0.  1.
         11    1    4    4    0    0  0.17474032181E-02 -0.14276913678E-02 -0.48860082454E-01  0.48914829031E-01  0.51100000000E-03 0. -1.
</event>
<event>
 8    1  0.1064884E+005  0.1043930E+01  0.7957747E-01            NaN
         13   -1    0    0    0    0  0.00000000000E+00  0.00000000000E+00  0.74505805969E-08  0.10566000000E+00  0.10566000000E+00 0. -1.
     999900   -1    0    0    0    0 -0.00000000000E+00 -0.00000000000E+00 -0.74505805969E-08  0.93827000000E+00  0.93827000000E+00 0.  1.
     999902    2    1    2    0    0  0.10729327356E-01 -0.15415897355E-01  0.16930305946E-01  0.10186435685E+01  0.10183296697E+01 0.  0.
     999903    2    3    3    0    0 -0.73103390167E-01 -0.87219583764E-01  0.61149171307E-01  0.13064638275E+00  0.19439514612E-01 0.  0.
         14    1    1    2    0    0 -0.10729327356E-01  0.15415897355E-01 -0.16930305946E-01  0.25286431464E-01  0.00000000000E+00 0. -1.
     999901    1    3    3    0    0  0.83832717523E-01  0.71803686408E-01 -0.44218865361E-01  0.88799718579E+00  0.88000000000E+00 0.  1.
        -11    1    4    4    0    0 -0.12021063176E-01 -0.13908923593E-01  0.18629068428E-01  0.26177613086E-01  0.51100000000E-03 0. -1.
         11    1    4    4    0    0 -0.61082326991E-01 -0.73310660171E-01  0.42520102880E-01  0.10446876966E+00  0.51100000000E-03 0.  1.
</event>
<event>
 8    1  0.1064884E+005  0.1043930E+01  0.7957747E-01            NaN
         13   -1    0    0    0    0  0.00000000000E+00  0.00000000000E+00  0.74505805969E-08  0.10566000000E+00  0.10566000000E+00 0. -1.
     999900   -1    0    0    0    0 -0.00000000000E+00 -0.00000000000E+00 -0.74505805969E-08  0.93827000000E+00  0.93827000000E+00 0. -1.
     999902    2    1    2    0    0  0.10744635605E-01  0.71886964385E-02  0.18282437127E-01  0.10215386611E+01  0.10212932312E+01 0.  0.
     999903    2    3    3    0    0 -0.73738065873E-01  0.10775990027E+00 -0.33332940751E-02  0.13152791187E+00  0.15459051940E-01 0.  0.
         14    1    1    2    0    0 -0.10744635605E-01 -0.71886964385E-02 -0.18282437127E-01  0.22391338908E-01  0.00000000000E+00 0.  1.
     999901    1    3    3    0    0  0.84482701478E-01 -0.10057120383E+00  0.21615731203E-01  0.89001074922E+00  0.88000000000E+00 0. -1.
        -11    1    4    4    0    0 -0.24472367652E-01  0.26168512392E-01  0.33044964289E-02  0.35984283193E-01  0.51100000000E-03 0.  1.
         11    1    4    4    0    0 -0.49265698221E-01  0.81591387881E-01 -0.66377905040E-02  0.95543628680E-01  0.51100000000E-03 0. -1.
</event>
<event>
 8    1  0.1064884E+005  0.1043930E+01  0.7957747E-01            NaN
         13   -1    0    0    0    0  0.00000000000E+00  0.00000000000E+00  0.74505805969E-08  0.10566000000E+00  0.10566000000E+00 0. -1.
     999900   -1    0    0    0    0 -0.00000000000E+00 -0.00000000000E+00 -0.74505805969E-08  0.93827000000E+00  0.93827000000E+00 0. -1.
     999902    2    1    2    0    0 -0.83224923235E-02  0.11233074360E-01 -0.19971434916E-01  0.10195516479E+01  0.10192601526E+01 0.  0.
     999903    2    3    3    0    0  0.75247448948E-01  0.92569871637E-01  0.46224875795E-01  0.12939348150E+00  0.19353919605E-01 0.  0.
         14    1    1    2    0    0  0.83224923235E-02 -0.11233074360E-01  0.19971434916E-01  0.24378352091E-01  0.00000000000E+00 0.  1.
     999901    1    3    3    0    0 -0.83569941271E-01 -0.81336797278E-01 -0.66196310711E-01  0.89015816641E+00  0.88000000000E+00 0.  1.
        -11    1    4    4    0    0  0.29718795546E-01  0.40745165298E-01  0.29431526568E-01  0.58393931028E-01  0.51100000000E-03 0.  1.
         11    1    4    4    0    0  0.45528653402E-01  0.51824706339E-01  0.16793349227E-01  0.70999550470E-01  0.51100000000E-03 0. -1.
</event>
<event>
 8    1  0.1064884E+005  0.1043930E+01  0.7957747E-01            NaN
         13   -1    0    0    0    0  0.00000000000E+00  0.00000000000E+00  0.74505805969E-08  0.10566000000E+00  0.10566000000E+00 0.  1.
     999900   -1    0    0    0    0 -0.00000000000E+00 -0.00000000000E+00 -0.74505805969E-08  0.93827000000E+00  0.93827000000E+00 0.  1.
     999902    2    1    2    0    0 -0.16048101855E-01 -0.18318458507E-01 -0.54804102087E-02  0.10189671798E+01  0.10186613624E+01 0.  0.
     999903    2    3    3    0    0 -0.28314849836E-01 -0.60198236215E-01 -0.11173002737E+00  0.13150260586E+00  0.19590251836E-01 0.  0.
         14    1    1    2    0    0  0.16048101855E-01  0.18318458507E-01  0.54804102087E-02  0.24962820179E-01  0.00000000000E+00 0. -1.
     999901    1    3    3    0    0  0.12266747981E-01  0.41879777708E-01  0.10624961716E+00  0.88746457396E+00  0.88000000000E+00 0. -1.
        -11    1    4    4    0    0 -0.12114800429E-01 -0.19506870094E-01 -0.56656279213E-01  0.61134944717E-01  0.51100000000E-03 0.  1.
         11    1    4    4    0    0 -0.16200049407E-01 -0.40691366120E-01 -0.55073748159E-01  0.70367661144E-01  0.51100000000E-03 0. -1.
</event>
<event>
 8    1  0.1064884E+005  0.1043930E+01  0.7957747E-01            NaN
         13   -1    0    0    0    0  0.00000000000E+00  0.00000000000E+00  0.74505805969E-08  0.10566000000E+00  0.10566000000E+00 0.  1.
     999900   -1    0    0    0    0 -0.00000000000E+00 -0.00000000000E+00 -0.74505805969E-08  0.93827000000E+00  0.93827000000E+00 0. -1.
     999902    2    1    2    0    0 -0.14914235425E-01 -0.17768501808E-01 -0.27096226257E-02  0.10205741414E+01  0.10203068568E+01 0.  0.
     999903    2    3    3    0    0 -0.46841883430E-01  0.69286728609E-01  0.98381890653E-01  0.12994656387E+00  0.14570526720E-01 0.  0.
         14    1    1    2    0    0  0.14914235425E-01  0.17768501808E-01  0.27096226257E-02  0.23355858571E-01  0.00000000000E+00 0.  1.
     999901    1    3    3    0    0  0.31927648005E-01 -0.87055230416E-01 -0.10109151328E+00  0.89062757756E+00  0.88000000000E+00 0. -1.
        -11    1    4    4    0    0 -0.27793662724E-01  0.40117085189E-01  0.46225631676E-01  0.67223049295E-01  0.51100000000E-03 0.  1.
         11    1    4    4    0    0 -0.19048220706E-01  0.29169643419E-01  0.52156258977E-01  0.62723514576E-01  0.51100000000E-03 0. -1.
</event>
<event>
 7    1  0.1064884E+005  0.1043930E+01  0.7957747E-01            NaN
         13   -1    0    0    0    0  0.00000000000E+00  0.00000000000E+00  0.74505805969E-08  0.10566000000E+00  0.10566000000E+00 0.  1.
     999900   -1    0    0    0    0 -0.00000000000E+00 -0.00000000000E+00 -0.74505805969E-08  0.93827000000E+00  0.93827000000E+00 0. -1.
     999903    2    1    2    0    0  0.51916049776E-01  0.23055873302E-01 -0.70990174853E-01  0.93057084019E-01  0.19828425111E-01 0.  0.
         14    1    1    2    0    0 -0.33165484007E-01  0.55336535772E-01  0.64359890346E-02  0.64834431251E-01  0.00000000000E+00 0.  1.
     999901    1    1    2    0    0 -0.18750565769E-01 -0.78392409074E-01  0.64554185818E-01  0.88603848473E+00  0.88000000000E+00 0.  1.
        -11    1    3    3    0    0  0.30491750751E-01  0.15808842839E-01 -0.56717635790E-01  0.66308504027E-01  0.51100000000E-03 0. -1.
         11    1    3    3    0    0  0.21424299026E-01  0.72470304621E-02 -0.14272539063E-01  0.26748579991E-01  0.51100000000E-03 0.  1.
</event>
<event>
 8    1  0.1064884E+005  0.1043930E+01  0.7957747E-01            NaN
         13   -1    0    0    0    0  0.00000000000E+00  0.00000000000E+00  0.74505805969E-08  0.10566000000E+00  0.10566000000E+00 0.  1.
     999900   -1    0    0    0    0 -0.00000000000E+00 -0.00000000000E+00 -0.74505805969E-08  0.93827000000E+00  0.93827000000E+00 0.  1.
     999902    2    1    2    0    0 -0.10735749748E-01 -0.16463462085E-01  0.13018387298E-01  0.10203550066E+01  0.10200826237E+01 0.  0.
     999903    2    3    3    0    0 -0.54678509074E-01  0.66735652253E-01 -0.93774339465E-01  0.12891922920E+00  0.19574327026E-01 0.  0.
         14    1    1    2    0    0  0.10735749748E-01  0.16463462085E-01 -0.13018387298E-01  0.23574993411E-01  0.00000000000E+00 0.  1.
     999901    1    3    3    0    0  0.43942759326E-01 -0.83199114339E-01  0.10679272676E+00  0.89143577739E+00  0.88000000000E+00 0. -1.
        -11    1    4    4    0    0 -0.83528981853E-02  0.21500276693E-01 -0.18099370822E-01  0.29323730170E-01  0.51100000000E-03 0. -1.
         11    1    4    4    0    0 -0.46325610889E-01  0.45235375561E-01 -0.75674968643E-01  0.99595499027E-01  0.51100000000E-03 0.  1.
</event>
<event>
 8    1  0.1064884E+005  0.1043930E+01  0.7957747E-01            NaN
         13   -1    0    0    0    0  0.00000000000E+00  0.00000000000E+00  0.74505805969E-08  0.10566000000E+00  0.10566000000E+00 0.  1.
     999900   -1    0    0    0    0 -0.00000000000E+00 -0.00000000000E+00 -0.74505805969E-08  0.93827000000E+00  0.93827000000E+00 0.  1.
     999902    2    1    2    0    0  0.10205139261E-01  0.22928595621E-01  0.84673815058E-02  0.10174429859E+01  0.10170981603E+01 0.  0.
     999903    2    3    3    0    0  0.58019082414E-01  0.98745621771E-01  0.60320807633E-01  0.13137122111E+00  0.22425123415E-01 0.  0.
         14    1    1    2    0    0 -0.10205139261E-01 -0.22928595621E-01 -0.84673815058E-02  0.26487014064E-01  0.00000000000E+00 0. -1.
     999901    1    3    3    0    0 -0.47813943153E-01 -0.75817026150E-01 -0.51853426128E-01  0.88607176482E+00  0.88000000000E+00 0.  1.
        -11    1    4    4    0    0  0.14145244620E-01  0.42106287639E-01  0.16504178450E-01  0.47388568573E-01  0.51100000000E-03 0.  1.
         11    1    4    4    0    0  0.43873837795E-01  0.56639334132E-01  0.43816629184E-01  0.83982652541E-01  0.51100000000E-03 0. -1.
</event>
<event>
 8    1  0.1064884E+005  0.1043930E+01  0.7957747E-01            NaN
         13   -1    0    0    0    0  0.00000000000E+00  0.00000000000E+00  0.74505805969E-08  0.10566000000E+00  0.10566000000E+00 0.  1.
     999900   -1    0    0    0    0 -0.00000000000E+00 -0.00000000000E+00 -0.74505805969E-08  0.93827000000E+00  0.93827000000E+00 0.  1.
     999902    2    1    2    0    0  0.25197084568E-01  0.19319162074E-01 -0.44195415907E-02  0.10118729346E+01  0.10113650085E+01 0.  0.
     999903    2    3    3    0    0 -0.10299849820E+00  0.26393925041E-01 -0.54466945782E-01  0.12114912647E+00  0.20127909731E-01 0.  0.
         14    1    1    2    0    0 -0.25197084568E-01 -0.19319162074E-01  0.44195415907E-02  0.32057065397E-01  0.00000000000E+00 0.  1.
     999901    1    3    3    0    0  0.12819558277E+00 -0.70747629668E-02  0.50047404191E-01  0.89072380814E+00  0.88000000000E+00 0.  1.
        -11    1    4    4    0    0 -0.36844320076E-01  0.75058886819E-02 -0.89480908214E-02  0.38654517680E-01  0.51100000000E-03 0.  1.
         11    1    4    4    0    0 -0.66154178127E-01  0.18888036359E-01 -0.45518854961E-01  0.82494608788E-01  0.51100000000E-03 0. -1.
</event>
<event>
 8    1  0.1064884E+005  0.1043930E+01  0.7957747E-01            NaN
         13   -1    0    0    0    0  0.00000000000E+00  0.00000000000E+00  0.74505805969E-08  0.10566000000E+00  0.10566000000E+00 0. -1.
     999900   -1    0    0    0    0 -0.00000000000E+00 -0.00000000000E+00 -0.74505805969E-08  0.93827000000E+00  0.93827000000E+00 0. -1.
     999902    2    1    2    0    0 -0.17559815613E-01 -0.13345711070E-01 -0.73377777652E-02  0.10206856865E+01  0.10204209781E+01 0.  0.
     999903    2    3    3    0    0  0.10617923359E+00 -0.71842234771E-01  0.25073057173E-02  0.13005101320E+00  0.21717345849E-01 0.  0.
         14    1    1    2    0    0  0.17559815613E-01  0.13345711070E-01  0.73377777652E-02  0.23244313516E-01  0.00000000000E+00 0. -1.
     999901    1    3    3    0    0 -0.12373904920E+00  0.58496523701E-01 -0.98450834825E-02  0.89063467328E+00  0.88000000000E+00 0. -1.
        -11    1    4    4    0    0  0.43950298108E-01 -0.26446250322E-01  0.11286532733E-01  0.52523135874E-01  0.51100000000E-03 0. -1.
         11    1    4    4    0    0  0.62228935480E-01 -0.45395984449E-01 -0.87792270156E-02  0.77527877329E-01  0.51100000000E-03 0.  1.
</event>
<event>
 8    1  0.1064884E+005  0.1043930E+01  0.7957747E-01            NaN
         13   -1    0    0    0    0  0.00000000000E+00  0.00000000000E+00  0.74505805969E-08  0.10566000000E+00  0.10566000000E+00 0. -1.
     999900   -1    0    0    0    0 -0.00000000000E+00 -0.00000000000E+00 -0.74505805969E-08  0.93827000000E+00  0.93827000000E+00 0. -1.
     999902    2    1    2    0    0  0.22508493501E-01  0.69926832643E-02 -0.19301340178E-02  0.10202814204E+01  0.10200073145E+01 0.  0.
     999903    2    3    3    0    0 -0.77604466982E-01  0.74798326548E-02 -0.10088898013E+00  0.12909362012E+00  0.20203347590E-01 0.  0.
         14    1    1    2    0    0 -0.22508493501E-01 -0.69926832643E-02  0.19301340178E-02  0.23648579582E-01  0.00000000000E+00 0. -1.
     999901    1    3    3    0    0  0.10011296048E+00 -0.48714939043E-03  0.98958846108E-01  0.89118780029E+00  0.88000000000E+00 0. -1.
        -11    1    4    4    0    0 -0.22668925548E-01  0.32395465062E-02 -0.45634601255E-01  0.51060285935E-01  0.51100000000E-03 0. -1.
         11    1    4    4    0    0 -0.54935541434E-01  0.42402861486E-02 -0.55254378870E-01  0.78033334189E-01  0.51100000000E-03 0.  1.
</event>
<event>
 8    1  0.1064884E+005  0.1043930E+01  0.7957747E-01            NaN
         13   -1    0    0    0    0  0.00000000000E+00  0.00000000000E+00  0.74505805969E-08  0.10566000000E+00  0.10566000000E+00 0. -1.
     999900   -1    0    0    0    0 -0.00000000000E+00 -0.00000000000E+00 -0.74505805969E-08  0.93827000000E+00  0.93827000000E+00 0.  1.
     999902    2    1    2    0    0 -0.64311620072E-02  0.10249278263E-01 -0.19558220253E-01  0.10209314885E+01  0.10206724121E+01 0.  0.
     999903    2    3    3    0    0 -0.10055786198E+00  0.82429647443E-01  0.14007232777E-01  0.13233907299E+00  0.20270601543E-01 0.  0.
         14    1    1    2    0    0  0.64311620072E-02 -0.10249278263E-01  0.19558220253E-01  0.22998511455E-01  0.00000000000E+00 0. -1.
     999901    1    3    3    0    0  0.94126699971E-01 -0.72180369181E-01 -0.33565453030E-01  0.88859241555E+00  0.88000000000E+00 0.  1.
        -11    1    4    4    0    0 -0.78001363390E-01  0.73285713596E-01  0.14383026172E-01  0.10799139350E+00  0.51100000000E-03 0.  1.
         11    1    4    4    0    0 -0.22556498588E-01  0.91439338477E-02 -0.37579339586E-03  0.24347679488E-01  0.51100000000E-03 0. -1.
</event>
<event>
 8    1  0.1064884E+005  0.1043930E+01  0.7957747E-01            NaN
         13   -1    0    0    0    0  0.00000000000E+00  0.00000000000E+00  0.74505805969E-08  0.10566000000E+00  0.10566000000E+00 0. -1.
     999900   -1    0    0    0    0 -0.00000000000E+00 -0.00000000000E+00 -0.74505805969E-08  0.93827000000E+00  0.93827000000E+00 0. -1.
     999902    2    1    2    0    0  0.19309050417E-01 -0.16240537165E-01 -0.65549192755E-02  0.10178616007E+01  0.10175277277E+01 0.  0.
     999903    2    3    3    0    0  0.39720286010E-01 -0.81361933420E-01  0.90974889577E-01  0.12984725487E+00  0.19657409094E-01 0.  0.
         14    1    1    2    0    0 -0.19309050417E-01  0.16240537165E-01  0.65549192755E-02  0.26068399302E-01  0.00000000000E+00 0. -1.
     999901    1    3    3    0    0 -0.20411235592E-01  0.65121396254E-01 -0.97529808853E-01  0.88801434583E+00  0.88000000000E+00 0. -1.
        -11    1    4    4    0    0  0.17645534068E-01 -0.57341924500E-01  0.57492425402E-01  0.83096939038E-01  0.51100000000E-03 0. -1.
         11    1    4    4    0    0  0.22074751942E-01 -0.24020008919E-01  0.33482464176E-01  0.46750315828E-01  0.51100000000E-03 0.  1.
</event>
<event>
 8    1  0.1064884E+005  0.1043930E+01  0.7957747E-01            NaN
         13   -1    0    0    0    0  0.00000000000E+00  0.00000000000E+00  0.74505805969E-08  0.10566000000E+00  0.10566000000E+00 0.  1.
     999900   -1    0    0    0    0 -0.00000000000E+00 -0.00000000000E+00 -0.74505805969E-08  0.93827000000E+00  0.93827000000E+00 0.  1.
     999902    2    1    2    0    0 -0.22052903745E-02  0.14969709738E-02 -0.24072310538E-01  0.10197105788E+01  0.10194229172E+01 0.  0.
     999903    2    3    3    0    0  0.92404207543E-01  0.62313777017E-01 -0.67002856684E-01  0.13151427575E+00  0.19623392779E-01 0.  0.
         14    1    1    2    0    0  0.22052903745E-02 -0.14969709738E-02  0.24072310538E-01  0.24219421182E-01  0.00000000000E+00 0.  1.
     999901    1    3    3    0    0 -0.94609497917E-01 -0.60816806043E-01  0.42930546146E-01  0.88819630307E+00  0.88000000000E+00 0.  1.
        -11    1    4    4    0    0  0.41670252558E-01  0.19988862020E-01 -0.19637556904E-01  0.50218117400E-01  0.51100000000E-03 0. -1.
         11    1    4    4    0    0  0.50733954985E-01  0.42324914997E-01 -0.47365299780E-01  0.81296158349E-01  0.51100000000E-03 0.  1.
</event>
<event>
 8    1  0.1064884E+005  0.1043930E+01  0.7957747E-01            NaN
         13   -1    0    0    0    0  0.00000000000E+00  0.00000000000E+00  0.74505805969E-08  0.10566000000E+00  0.10566000000E+00 0.  1.
     999900   -1    0    0    0    0 -0.00000000000E+00 -0.00000000000E+00 -0.74505805969E-08  0.93827000000E+00  0.93827000000E+00 0.  1.
     999902    2    1    2    0    0 -0.85690342868E-02 -0.34847514376E-02 -0.27311068062E-01  0.10150948430E+01  0.10146852093E+01 0.  0.
     999903    2    3    3    0    0  0.48631473593E-01 -0.25260460745E-01  0.10785073064E+00  0.12267409500E+00  0.20348031441E-01 0.  0.
         14    1    1    2    0    0  0.85690342868E-02  0.34847514376E-02  0.27311068062E-01  0.28835157012E-01  0.00000000000E+00 0.  1.
     999901    1    3    3    0    0 -0.57200507880E-01  0.21775709307E-01 -0.13516179870E+00  0.89242074799E+00  0.88000000000E+00 0.  1.
        -11    1    4    4    0    0  0.17179403700E-01 -0.84856132959E-02  0.19227937244E-01  0.27149810978E-01  0.51100000000E-03 0.  1.
         11    1    4    4    0    0  0.31452069892E-01 -0.16774847449E-01  0.88622793393E-01  0.95524284019E-01  0.51100000000E-03 0. -1.
</event>
<event>
 8    1  0.1064884E+005  0.1043930E+01  0.7957747E-01            NaN
         13   -1    0    0    0    0  0.00000000000E+00  0.00000000000E+00  0.74505805969E-08  0.10566000000E+00  0.10566000000E+00 0.  1.
     999900   -1    0    0    0    0 -0.00000000000E+00 -0.00000000000E+00 -0.74505805969E-08  0.93827000000E+00  0.93827000000E+00 0. -1.
     999902    2    1    2    0    0  0.66663035080E-02  0.85801204414E-02 -0.21155340878E-01  0.10201475166E+01  0.10198702609E+01 0.  0.
     999903    2    3    3    0    0  0.99831843655E-01 -0.55934592081E-01 -0.62771397788E-01  0.13190551005E+00  0.19071958520E-01 0.  0.
         14    1    1    2    0    0 -0.66663035080E-02 -0.85801204414E-02  0.21155340878E-01  0.23782483405E-01  0.00000000000E+00 0.  1.
     999901    1    3    3    0    0 -0.93165540147E-01  0.64514712523E-01  0.41616056910E-01  0.88824200655E+00  0.88000000000E+00 0.  1.
        -11    1    4    4    0    0  0.44289805541E-01 -0.30674036680E-01 -0.20362037698E-01  0.57596502509E-01  0.51100000000E-03 0. -1.
         11    1    4    4    0    0  0.55542038114E-01 -0.25260555401E-01 -0.42409360090E-01  0.74309007538E-01  0.51100000000E-03 0.  1.
</event>
<event>
 8    1  0.1064884E+005  0.1043930E+01  0.7957747E-01            NaN
         13   -1    0    0    0    0  0.00000000000E+00  0.00000000000E+00  0.74505805969E-08  0.10566000000E+00  0.10566000000E+00 0.  1.
     999900   -1    0    0    0    0 -0.00000000000E+00 -0.00000000000E+00 -0.74505805969E-08  0.93827000000E+00  0.93827000000E+00 0.  1.
     999902    2    1    2    0    0 -0.21163772076E-02  0.21186490947E-01 -0.83025514290E-02  0.10210765799E+01  0.10208207987E+01 0.  0.
     999903    2    3    3    0    0  0.49679528847E-01 -0.32153319885E-01  0.11338089097E+00  0.12959757762E+00  0.20938340956E-01 0.  0.
         14    1    1    2    0    0  0.21163772076E-02 -0.21186490947E-01  0.83025514290E-02  0.22853420124E-01  0.00000000000E+00 0. -1.
     999901    1    3    3    0    0 -0.51795906055E-01  0.53339810832E-01 -0.12168344240E+00  0.89147900225E+00  0.88000000000E+00 0.  1.
        -11    1    4    4    0    0  0.47428949849E-01 -0.28242963842E-01  0.88499612035E-01  0.10430538213E+00  0.51100000000E-03 0.  1.
         11    1    4    4    0    0  0.22505789987E-02 -0.39103560431E-02  0.24881278937E-01  0.25292195491E-01  0.51100000000E-03 0. -1.
</event>
<event>
 8    1  0.1064884E+005  0.1043930E+01  0.7957747E-01            NaN
         13   -1    0    0    0    0  0.00000000000E+00  0.00000000000E+00  0.74505805969E-08  0.10566000000E+00  0.10566000000E+00 0. -1.
     999900   -1    0    0    0    0 -0.00000000000E+00 -0.00000000000E+00 -0.74505805969E-08  0.93827000000E+00  0.93827000000E+00 0. -1.
     999902    2    1    2    0    0 -0.19729330552E-01  0.30211046046E-02 -0.15331944232E-01  0.10187617249E+01  0.10184507892E+01 0.  0.
     999903    2    3    3    0    0  0.11179817703E+00  0.33552787901E-01  0.44291866634E-01  0.12646879781E+00  0.20198153518E-01 0.  0.
         14    1    1    2    0    0  0.19729330552E-01 -0.30211046046E-02  0.15331944232E-01  0.25168275090E-01  0.00000000000E+00 0.  1.
     999901    1    3    3    0    0 -0.13152750758E+00 -0.30531683297E-01 -0.59623810866E-01  0.89229292710E+00  0.88000000000E+00 0.  1.
        -11    1    4    4    0    0  0.54050063658E-01  0.25755000051E-01  0.27015532719E-01  0.65687362088E-01  0.51100000000E-03 0. -1.
         11    1    4    4    0    0  0.57748113373E-01  0.77977878500E-02  0.17276333916E-01  0.60781435719E-01  0.51100000000E-03 0.  1.
</event>
<event>
 8    1  0.1064884E+005  0.1043930E+01  0.7957747E-01            NaN
         13   -1    0    0    0    0  0.00000000000E+00  0.00000000000E+00  0.74505805969E-08  0.10566000000E+00  0.10566000000E+00 0. -1.
     999900   -1    0    0    0    0 -0.00000000000E+00 -0.00000000000E+00 -0.74505805969E-08  0.93827000000E+00  0.93827000000E+00 0. -1.
     999902    2    1    2    0    0 -0.20205902258E-01 -0.65215306758E-02 -0.64034698874E-02  0.10217531365E+01  0.10215124369E+01 0.  0.
     999903    2    3    3    0    0 -0.64638941542E-01 -0.11347386557E+00 -0.23154913620E-01  0.13400671561E+00  0.19160868301E-01 0.  0.
         14    1    1    2    0    0  0.20205902258E-01  0.65215306758E-02  0.64034698874E-02  0.22176863507E-01  0.00000000000E+00 0.  1.
     999901    1    3    3    0    0  0.44433039285E-01  0.10695233489E+00  0.16751443733E-01  0.88774642088E+00  0.88000000000E+00 0.  1.
        -11    1    4    4    0    0 -0.59425052703E-01 -0.90780467775E-01 -0.16233044362E-01  0.10970963070E+00  0.51100000000E-03 0.  1.
         11    1    4    4    0    0 -0.52138888386E-02 -0.22693397792E-01 -0.69218692579E-02  0.24297084912E-01  0.51100000000E-03 0. -1.
</event>
<event>
 8    1  0.1064884E+005  0.1043930E+01  0.7957747E-01            NaN
         13   -1    0    0    0    0  0.00000000000E+00  0.00000000000E+00  0.74505805969E-08  0.10566000000E+00  0.10566000000E+00 0.  1.
     999900   -1    0    0    0    0 -0.00000000000E+00 -0.00000000000E+00 -0.74505805969E-08  0.93827000000E+00  0.93827000000E+00 0. -1.
     999902    2    1    2    0    0  0.21821529818E-01  0.76687824221E-02  0.46164167150E-02  0.10203439726E+01  0.10200713316E+01 0.  0.
     999903    2    3    3    0    0 -0.86079568588E-01 -0.92589628958E-01  0.29232578630E-02  0.12810114525E+00  0.20465250030E-01 0.  0.
         14    1    1    2    0    0 -0.21821529818E-01 -0.76687824221E-02 -0.46164167150E-02  0.23586027447E-01  0.00000000000E+00 0. -1.
     999901    1    3    3    0    0  0.10790109841E+00  0.10025841138E+00  0.16931588521E-02  0.89224282730E+00  0.88000000000E+00 0.  1.
        -11    1    4    4    0    0 -0.32012493240E-01 -0.48883353041E-01  0.39512516792E-02  0.58568382587E-01  0.51100000000E-03 0. -1.
         11    1    4    4    0    0 -0.54067075348E-01 -0.43706275916E-01 -0.10279938163E-02  0.69532762662E-01  0.51100000000E-03 0.  1.
</event>
<event>
 8    1  0.1064884E+005  0.1043930E+01  0.7957747E-01            NaN
         13   -1    0    0    0    0  0.00000000000E+00  0.00000000000E+00  0.74505805969E-08  0.10566000000E+00  0.10566000000E+00 0.  1.
     999900   -1    0    0    0    0 -0.00000000000E+00 -0.00000000000E+00 -0.74505805969E-08  0.93827000000E+00  0.93827000000E+00 0. -1.
     999902    2    1    2    0    0 -0.54120907933E-02 -0.13521400921E-01  0.18836044556E-01  0.10201200108E+01  0.10198421059E+01 0.  0.
     999903    2    3    3    0    0  0.12396019775E+00 -0.26704025479E-01 -0.18297600495E-01  0.12978868024E+00  0.20762074351E-01 0.  0.
         14    1    1    2    0    0  0.54120907933E-02  0.13521400921E-01 -0.18836044556E-01  0.23809989167E-01  0.00000000000E+00 0. -1.
     999901    1    3    3    0    0 -0.12937228855E+00  0.13182624559E-01  0.37133645051E-01  0.89033133059E+00  0.88000000000E+00 0.  1.
        -11    1    4    4    0    0  0.78642774873E-01 -0.23925291685E-01 -0.19030779511E-01  0.84377350703E-01  0.51100000000E-03 0. -1.
         11    1    4    4    0    0  0.45317422882E-01 -0.27787337945E-02  0.73317901642E-03  0.45411329540E-01  0.51100000000E-03 0.  1.
</event>
<event>
 8    1  0.1064884E+005  0.1043930E+01  0.7957747E-01            NaN
         13   -1    0    0    0    0  0.00000000000E+00  0.00000000000E+00  0.74505805969E-08  0.10566000000E+00  0.10566000000E+00 0. -1.
     999900   -1    0    0    0    0 -0.00000000000E+00 -0.00000000000E+00 -0.74505805969E-08  0.93827000000E+00  0.93827000000E+00 0. -1.
     999902    2    1    2    0    0  0.15527136806E-01 -0.12534471331E-01  0.63950510936E-02  0.10229752481E+01  0.10227606057E+01 0.  0.
     999903    2    3    3    0    0 -0.32130140302E-01 -0.84105441556E-01  0.97343792437E-01  0.13411907672E+00  0.20150473906E-01 0.  0.
         14    1    1    2    0    0 -0.15527136806E-01  0.12534471331E-01 -0.63950510936E-02  0.20954751906E-01  0.00000000000E+00 0.  1.
     999901    1    3    3    0    0  0.47657277108E-01  0.71570970225E-01 -0.90948741344E-01  0.88885617138E+00  0.88000000000E+00 0. -1.
        -11    1    4    4    0    0 -0.13037662721E-01 -0.60437665887E-01  0.66492443614E-01  0.90797567621E-01  0.51100000000E-03 0.  1.
         11    1    4    4    0    0 -0.19092477581E-01 -0.23667775669E-01  0.30851348824E-01  0.43321509098E-01  0.51100000000E-03 0. -1.
</event>
<event>
 8    1  0.1064884E+005  0.1043930E+01  0.7957747E-01            NaN
         13   -1    0    0    0    0  0.00000000000E+00  0.00000000000E+00  0.74505805969E-08  0.10566000000E+00  0.10566000000E+00 0.  1.
     999900   -1    0    0    0    0 -0.00000000000E+00 -0.00000000000E+00 -0.74505805969E-08  0.93827000000E+00  0.93827000000E+00 0.  1.
     999902    2    1    2    0    0  0.38968624298E-02  0.22941096756E-01 -0.81389977794E-02  0.10192779668E+01  0.10189798088E+01 0.  0.
     999903    2    3    3    0    0 -0.17596848708E-01 -0.12095054753E+00 -0.28487043157E-01  0.12710039036E+00  0.20107550082E-01 0.  0.
         14    1    1    2    0    0 -0.38968624298E-02 -0.22941096756E-01  0.81389977794E-02  0.24652033223E-01  0.00000000000E+00 0.  1.
     999901    1    3    3    0    0  0.21493711138E-01  0.14389164428E+00  0.20348045378E-01  0.89217757642E+00  0.88000000000E+00 0.  1.
        -11    1    4    4    0    0 -0.14413130713E-01 -0.88622631150E-01 -0.29746516224E-01  0.94587660070E-01  0.51100000000E-03 0. -1.
         11    1    4    4    0    0 -0.31837179946E-02 -0.32327916376E-01  0.12594730671E-02  0.32512730290E-01  0.51100000000E-03 0.  1.
</event>
<event>
 8    1  0.1064884E+005  0.1043930E+01  0.7957747E-01            NaN
         13   -1    0    0    0    0  0.00000000000E+00  0.00000000000E+00  0.74505805969E-08  0.10566000000E+00  0.10566000000E+00 0.  1.
     999900   -1    0    0    0    0 -0.00000000000E+00 -0.00000000000E+00 -0.74505805969E-08  0.93827000000E+00  0.93827000000E+00 0. -1.
     999902    2    1    2    0    0 -0.29373645058E-02  0.13873779499E-01  0.19692858093E-01  0.10196623564E+01  0.10193735343E+01 0.  0.
     999903    2    3    3    0    0  0.12330695094E+00 -0.14974213239E-01 -0.27858532194E-01  0.12891493504E+00  0.20350219850E-01 0.  0.
         14    1    1    2    0    0  0.29373645058E-02 -0.13873779499E-01 -0.19692858093E-01  0.24267643637E-01  0.00000000000E+00 0. -1.
     999901    1    3    3    0    0 -0.12624431545E+00  0.28847992738E-01  0.47551390287E-01  0.89074742132E+00  0.88000000000E+00 0.  1.
        -11    1    4    4    0    0  0.58330096231E-01  0.17485821929E-02 -0.18176891721E-01  0.61123793891E-01  0.51100000000E-03 0.  1.
         11    1    4    4    0    0  0.64976854714E-01 -0.16722795432E-01 -0.96816404729E-02  0.67791141153E-01  0.51100000000E-03 0. -1.
</event>
<event>
 8    1  0.1064884E+005  0.1043930E+01  0.7957747E-01            NaN
         13   -1    0    0    0    0  0.00000000000E+00  0.00000000000E+00  0.74505805969E-08  0.10566000000E+00  0.10566000000E+00 0.  1.
     999900   -1    0    0    0    0 -0.00000000000E+00 -0.00000000000E+00 -0.74505805969E-08  0.93827000000E+00  0.93827000000E+00 0. -1.
     999902    2    1    2    0    0 -0.24918081197E-02 -0.20238279074E-01 -0.12636943513E-01  0.10199406401E+01  0.10196584820E+01 0.  0.
     999903    2    3    3    0    0  0.11908423289E+00 -0.39224404772E-01  0.29800453677E-01  0.13036650636E+00  0.19691381084E-01 0.  0.
         14    1    1    2    0    0  0.24918081197E-02  0.20238279074E-01  0.12636943513E-01  0.23989359911E-01  0.00000000000E+00 0. -1.
     999901    1    3    3    0    0 -0.12157604101E+00  0.18986125697E-01 -0.42437397189E-01  0.88957413373E+00  0.88000000000E+00 0. -1.
        -11    1    4    4    0    0  0.70923264829E-01 -0.28997925494E-01  0.26271829109E-01  0.81002835152E-01  0.51100000000E-03 0. -1.
         11    1    4    4    0    0  0.48160968060E-01 -0.10226479278E-01  0.35286245681E-02  0.49363671210E-01  0.51100000000E-03 0.  1.
</event>
<event>
 8    1  0.1064884E+005  0.1043930E+01  0.7957747E-01            NaN
         13   -1    0    0    0    0  0.00000000000E+00  0.00000000000E+00  0.74505805969E-08  0.10566000000E+00  0.10566000000E+00 0. -1.
     999900   -1    0    0    0    0 -0.00000000000E+00 -0.00000000000E+00 -0.74505805969E-08  0.93827000000E+00  0.93827000000E+00 0. -1.
     999902    2    1    2    0    0  0.21090018787E-01  0.11442724021E-01 -0.29885106685E-02  0.10197503387E+01  0.10194636321E+01 0.  0.
     999903    2    3    3    0    0 -0.91412313974E-01 -0.30094276478E-01  0.81431146460E-01  0.12761314307E+00  0.19804192662E-01 0.  0.
         14    1    1    2    0    0 -0.21090018787E-01 -0.11442724021E-01  0.29885106685E-02  0.24179661319E-01  0.00000000000E+00 0. -1.
     999901    1    3    3    0    0  0.11250233276E+00  0.41537000500E-01 -0.84419657129E-01  0.89213719561E+00  0.88000000000E+00 0. -1.
        -11    1    4    4    0    0 -0.48034714430E-01 -0.15801620571E-01  0.55530167102E-01  0.75105829217E-01  0.51100000000E-03 0. -1.
         11    1    4    4    0    0 -0.43377599544E-01 -0.14292655908E-01  0.25900979358E-01  0.52507313851E-01  0.51100000000E-03 0.  1.
</event>
<event>
 8    1  0.1064884E+005  0.1043930E+01  0.7957747E-01            NaN
         13   -1    0    0    0    0  0.00000000000E+00  0.00000000000E+00  0.74505805969E-08  0.10566000000E+00  0.10566000000E+00 0. -1.
     999900   -1    0    0    0    0 -0.00000000000E+00 -0.00000000000E+00 -0.74505805969E-08  0.93827000000E+00  0.93827000000E+00 0.  1.
     999902    2    1    2    0    0  0.14922459134E-01 -0.10451294665E-01  0.80532990364E-02  0.10240110399E+01  0.10238172907E+01 0.  0.
     999903    2    3    3    0    0 -0.12664108442E+00 -0.29857259540E-01  0.14564027368E-01  0.13246226504E+00  0.20117667769E-01 0.  0.
         14    1    1    2    0    0 -0.14922459134E-01  0.10451294665E-01 -0.80532990364E-02  0.19918960117E-01  0.00000000000E+00 0.  1.
     999901    1    3    3    0    0  0.14156354355E+00  0.19405964875E-01 -0.65107283319E-02  0.89154877484E+00  0.88000000000E+00 0.  1.
        -11    1    4    4    0    0 -0.30182945729E-01 -0.84607964171E-02 -0.49805104487E-02  0.31743690621E-01  0.51100000000E-03 0. -1.
         11    1    4    4    0    0 -0.96458138691E-01 -0.21396463123E-01  0.19544537817E-01  0.10071857442E+00  0.51100000000E-03 0.  1.
</event>
<event>
 8    1  0.1064884E+005  0.1043930E+01  0.7957747E-01            NaN
         13   -1    0    0    0    0  0.00000000000E+00  0.00000000000E+00  0.74505805969E-08  0.10566000000E+00  0.10566000000E+00 0.  1.
     999900   -1    0    0    0    0 -0.00000000000E+00 -0.00000000000E+00 -0.74505805969E-08  0.93827000000E+00  0.93827000000E+00 0.  1.
     999902    2    1    2    0    0  0.30849434488E-02 -0.20108744933E-01  0.99029939788E-02  0.10213037368E+01  0.10210530715E+01 0.  0.
     999903    2    3    3    0    0  0.70854748267E-01 -0.11135552217E+00  0.11371093255E-01  0.13399269990E+00  0.20107068316E-01 0.  0.
         14    1    1    2    0    0 -0.30849434488E-02  0.20108744933E-01 -0.99029939788E-02  0.22626263249E-01  0.00000000000E+00 0. -1.
     999901    1    3    3    0    0 -0.67769804818E-01  0.91246777232E-01 -0.14680992766E-02  0.88731103685E+00  0.88000000000E+00 0. -1.
        -11    1    4    4    0    0  0.38805825556E-01 -0.46958305543E-01  0.11830242766E-01  0.62057959372E-01  0.51100000000E-03 0. -1.
         11    1    4    4    0    0  0.32048922711E-01 -0.64397216623E-01 -0.45914951103E-03  0.71934740529E-01  0.51100000000E-03 0.  1.
</event>
<event>
 8    1  0.1064884E+005  0.1043930E+01  0.7957747E-01            NaN
         13   -1    0    0    0    0  0.00000000000E+00  0.00000000000E+00  0.74505805969E-08  0.10566000000E+00  0.10566000000E+00 0. -1.
     999900   -1    0    0    0    0 -0.00000000000E+00 -0.00000000000E+00 -0.74505805969E-08  0.93827000000E+00  0.93827000000E+00 0.  1.
     999902    2    1    2    0    0  0.10224201715E-01  0.53379623711E-02  0.19966087733E-01  0.10208719688E+01  0.10206115343E+01 0.  0.
     999903    2    3    3    0    0 -0.34631946073E-01  0.70325514745E-01  0.10586524797E+00  0.13317037385E+00  0.19540932216E-01 0.  0.
         14    1    1    2    0    0 -0.10224201715E-01 -0.53379623711E-02 -0.19966087733E-01  0.23058031189E-01  0.00000000000E+00 0.  1.
     999901    1    3    3    0    0  0.44856147788E-01 -0.64987552374E-01 -0.85899160237E-01  0.88770159496E+00  0.88000000000E+00 0.  1.
        -11    1    4    4    0    0 -0.25860025259E-01  0.63737409790E-01  0.82952863003E-01  0.10776194558E+00  0.51100000000E-03 0. -1.
         11    1    4    4    0    0 -0.87719208143E-02  0.65881049553E-02  0.22912384967E-01  0.25408428278E-01  0.51100000000E-03 0.  1.
</event>
<event>
 8    1  0.1064884E+005  0.1043930E+01  0.7957747E-01            NaN
         13   -1    0    0    0    0  0.00000000000E+00  0.00000000000E+00  0.74505805969E-08  0.10566000000E+00  0.10566000000E+00 0. -1.
     999900   -1    0    0    0    0 -0.00000000000E+00 -0.00000000000E+00 -0.74505805969E-08  0.93827000000E+00  0.93827000000E+00 0.  1.
     999902    2    1    2    0    0  0.12510585946E-01  0.50979300083E-02  0.21459652020E-01  0.10185721547E+01  0.10182564579E+01 0.  0.
     999903    2    3    3    0    0 -0.22184120043E-01 -0.12327732252E+00  0.20778853817E-01  0.12858092357E+00  0.20294327055E-01 0.  0.
         14    1    1    2    0    0 -0.12510585946E-01 -0.50979300083E-02 -0.21459652020E-01  0.25357845253E-01  0.00000000000E+00 0.  1.
     999901    1    3    3    0    0  0.34694705989E-01  0.12837525253E+00  0.68079820285E-03  0.88999123118E+00  0.88000000000E+00 0.  1.
        -11    1    4    4    0    0 -0.89080785467E-02 -0.31406301232E-01 -0.29118317647E-02  0.32778796587E-01  0.51100000000E-03 0. -1.
         11    1    4    4    0    0 -0.13276041497E-01 -0.91871021286E-01  0.23690685582E-01  0.95802126982E-01  0.51100000000E-03 0.  1.
</event>
<event>
 8    1  0.1064884E+005  0.1043930E+01  0.7957747E-01            NaN
         13   -1    0    0    0    0  0.00000000000E+00  0.00000000000E+00  0.74505805969E-08  0.10566000000E+00  0.10566000000E+00 0.  1.
     999900   -1    0    0    0    0 -0.00000000000E+00 -0.00000000000E+00 -0.74505805969E-08  0.93827000000E+00  0.93827000000E+00 0. -1.
     999902    2    1    2    0    0  0.50153856116E-02 -0.22579455702E-01  0.39336833908E-02  0.10204681208E+01  0.10201983757E+01 0.  0.
     999903    2    3    3    0    0 -0.50689847595E-01 -0.23509129566E-01  0.11736572178E+00  0.13144013209E+00  0.19484759473E-01 0.  0.
         14    1    1    2    0    0 -0.50153856116E-02  0.22579455702E-01 -0.39336833908E-02  0.23461879243E-01  0.00000000000E+00 0.  1.
     999901    1    3    3    0    0  0.55705233206E-01  0.92967386442E-03 -0.11343203839E+00  0.88902798867E+00  0.88000000000E+00 0.  1.
        -11    1    4    4    0    0 -0.36270285759E-01 -0.14270355012E-01  0.59830839921E-01  0.71408453196E-01  0.51100000000E-03 0. -1.
         11    1    4    4    0    0 -0.14419561836E-01 -0.92387745538E-02  0.57534881862E-01  0.60031678893E-01  0.51100000000E-03 0.  1.
</event>
<event>
 8    1  0.1064884E+005  0.1043930E+01  0.7957747E-01            NaN
         13   -1    0    0    0    0  0.00000000000E+00  0.00000000000E+00  0.74505805969E-08  0.10566000000E+00  0.10566000000E+00 0.  1.
     999900   -1    0    0    0    0 -0.00000000000E+00 -0.00000000000E+00 -0.74505805969E-08  0.93827000000E+00  0.93827000000E+00 0. -1.
     999902    2    1    2    0    0  0.54992866860E-02 -0.82017778332E-02 -0.21015043859E-01  0.10207105387E+01  0.10204464025E+01 0.  0.
     999903    2    3    3    0    0 -0.10009740984E+00  0.18471425704E-01  0.76193410127E-01  0.12868385435E+00  0.19834656493E-01 0.  0.
         14    1    1    2    0    0 -0.54992866860E-02  0.82017778332E-02  0.21015043859E-01  0.23219461279E-01  0.00000000000E+00 0.  1.
     999901    1    3    3    0    0  0.10559669653E+00 -0.26673203537E-01 -0.97208453986E-01  0.89202668437E+00  0.88000000000E+00 0. -1.
        -11    1    4    4    0    0 -0.14753591226E-01 -0.28203465711E-02  0.16836236163E-01  0.22568623750E-01  0.51100000000E-03 0.  1.
         11    1    4    4    0    0 -0.85343818619E-01  0.21291772275E-01  0.59357173964E-01  0.10611523060E+00  0.51100000000E-03 0. -1.
</event>
<event>
 8    1  0.1064884E+005  0.1043930E+01  0.7957747E-01            NaN
         13   -1    0    0    0    0  0.00000000000E+00  0.00000000000E+00  0.74505805969E-08  0.10566000000E+00  0.10566000000E+00 0. -1.
     999900   -1    0    0    0    0 -0.00000000000E+00 -0.00000000000E+00 -0.74505805969E-08  0.93827000000E+00  0.93827000000E+00 0.  1.
     999902    2    1    2    0    0  0.19233383642E-01  0.13374786183E-01  0.18875788883E-02  0.10204274277E+01  0.10201567351E+01 0.  0.
     999903    2    3    3    0    0 -0.29257021480E-01 -0.35518368611E-01  0.11985056526E+00  0.12988987870E+00  0.19740688479E-01 0.  0.
         14    1    1    2    0    0 -0.19233383642E-01 -0.13374786183E-01 -0.18875788883E-02  0.23502572324E-01  0.00000000000E+00 0. -1.
     999901    1    3    3    0    0  0.48490405123E-01  0.48893154794E-01 -0.11796298637E+00  0.89053754897E+00  0.88000000000E+00 0. -1.
        -11    1    4    4    0    0 -0.20143770771E-01 -0.20304471207E-01  0.47967328553E-01  0.55849519080E-01  0.51100000000E-03 0. -1.
         11    1    4    4    0    0 -0.91132507089E-02 -0.15213897404E-01  0.71883236708E-01  0.74040359624E-01  0.51100000000E-03 0.  1.
</event>
<event>
 8    1  0.1064884E+005  0.1043930E+01  0.7957747E-01            NaN
         13   -1    0    0    0    0  0.00000000000E+00  0.00000000000E+00  0.74505805969E-08  0.10566000000E+00  0.10566000000E+00 0. -1.
     999900   -1    0    0    0    0 -0.00000000000E+00 -0.00000000000E+00 -0.74505805969E-08  0.93827000000E+00  0.93827000000E+00 0.  1.
     999902    2    1    2    0    0 -0.12159264195E-01 -0.71918043639E-02  0.18588683811E-01  0.10205824322E+01  0.10203153395E+01 0.  0.
     999903    2    3    3    0    0  0.98499884651E-01 -0.83043085738E-01  0.69762138358E-02  0.13033880625E+00  0.18470394954E-01 0.  0.
         14    1    1    2    0    0  0.12159264195E-01  0.71918043639E-02 -0.18588683811E-01  0.23347567788E-01  0.00000000000E+00 0.  1.
     999901    1    3    3    0    0 -0.11065914885E+00  0.75851281374E-01  0.11612469975E-01  0.89024362596E+00  0.88000000000E+00 0.  1.
        -11    1    4    4    0    0  0.38994865260E-01 -0.21521749484E-01  0.13774059573E-02  0.44563926955E-01  0.51100000000E-03 0.  1.
         11    1    4    4    0    0  0.59505019392E-01 -0.61521336254E-01  0.55988078785E-02  0.85774879294E-01  0.51100000000E-03 0. -1.
</event>
<event>
 8    1  0.1064884E+005  0.1043930E+01  0.7957747E-01            NaN
         13   -1    0    0    0    0  0.00000000000E+00  0.00000000000E+00  0.74505805969E-08  0.10566000000E+00  0.10566000000E+00 0. -1.
     999900   -1    0    0    0    0 -0.00000000000E+00 -0.00000000000E+00 -0.74505805969E-08  0.93827000000E+00  0.93827000000E+00 0.  1.
     999902    2    1    2    0    0 -0.32143308512E-02  0.17584322495E-01 -0.15466148265E-01  0.10202922746E+01  0.10200184231E+01 0.  0.
     999903    2    3    3    0    0  0.35920810324E-01  0.49270154727E-01  0.11260855873E+00  0.12959665778E+00  0.19918670793E-01 0.  0.
         14    1    1    2    0    0  0.32143308512E-02 -0.17584322495E-01  0.15466148265E-01  0.23637725411E-01  0.00000000000E+00 0. -1.
     999901    1    3    3    0    0 -0.39135141175E-01 -0.31685832233E-01 -0.12807470700E+00  0.89069561681E+00  0.88000000000E+00 0.  1.
        -11    1    4    4    0    0  0.20322983934E-01  0.38826342231E-01  0.90756797673E-01  0.10078475069E+00  0.51100000000E-03 0. -1.
         11    1    4    4    0    0  0.15597826390E-01  0.10443812496E-01  0.21851761057E-01  0.28811907084E-01  0.51100000000E-03 0.  1.
</event>
<event>
 8    1  0.1064884E+005  0.1043930E+01  0.7957747E-01            NaN
         13   -1    0    0    0    0  0.00000000000E+00  0.00000000000E+00  0.74505805969E-08  0.10566000000E+00  0.10566000000E+00 0. -1.
     999900   -1    0    0    0    0 -0.00000000000E+00 -0.00000000000E+00 -0.74505805969E-08  0.93827000000E+00  0.93827000000E+00 0. -1.
     999902    2    1    2    0    0 -0.21193349938E-01  0.85675499304E-02  0.46582264923E-02  0.10206006179E+01  0.10203339460E+01 0.  0.
     999903    2    3    3    0    0  0.12274537728E-01  0.11349623805E+00 -0.61289122034E-01  0.13128673529E+00  0.21161050406E-01 0.  0.
         14    1    1    2    0    0  0.21193349938E-01 -0.85675499304E-02 -0.46582264923E-02  0.23329382063E-01  0.00000000000E+00 0.  1.
     999901    1    3    3    0    0 -0.33467887666E-01 -0.10492868812E+00  0.65947348526E-01  0.88931388265E+00  0.88000000000E+00 0.  1.
        -11    1    4    4    0    0  0.12228669485E-01  0.57844305358E-01 -0.41429014228E-01  0.72195071581E-01  0.51100000000E-03 0.  1.
         11    1    4    4    0    0  0.45868242671E-04  0.55651932693E-01 -0.19860107806E-01  0.59091663705E-01  0.51100000000E-03 0. -1.
</event>
<event>
 8    1  0.1064884E+005  0.1043930E+01  0.7957747E-01            NaN
         13   -1    0    0    0    0  0.00000000000E+00  0.00000000000E+00  0.74505805969E-08  0.10566000000E+00  0.10566000000E+00 0. -1.
     999900   -1    0    0    0    0 -0.00000000000E+00 -0.00000000000E+00 -0.74505805969E-08  0.93827000000E+00  0.93827000000E+00 0. -1.
     999902    2    1    2    0    0 -0.78071712449E-02  0.68475214252E-02  0.20736346237E-01  0.10207386972E+01  0.10204752086E+01 0.  0.
     999903    2    3    3    0    0  0.10369689941E+00 -0.18961579543E-01 -0.70903419621E-01  0.12860803735E+00  0.20003597449E-01 0.  0.
         14    1    1    2    0    0  0.78071712449E-02 -0.68475214252E-02 -0.20736346237E-01  0.23191302848E-01  0.00000000000E+00 0.  1.
     999901    1    3    3    0    0 -0.11150407066E+00  0.25809100968E-01  0.91639765858E-01  0.89213065980E+00  0.88000000000E+00 0.  1.
        -11    1    4    4    0    0  0.69472306031E-01 -0.97218134950E-02 -0.35969324208E-01  0.78835070672E-01  0.51100000000E-03 0. -1.
         11    1    4    4    0    0  0.34224593384E-01 -0.92397660480E-02 -0.34934095414E-01  0.49772966682E-01  0.51100000000E-03 0.  1.
</event>
<event>
 8    1  0.1064884E+005  0.1043930E+01  0.7957747E-01            NaN
         13   -1    0    0    0    0  0.00000000000E+00  0.00000000000E+00  0.74505805969E-08  0.10566000000E+00  0.10566000000E+00 0.  1.
     999900   -1    0    0    0    0 -0.00000000000E+00 -0.00000000000E+00 -0.74505805969E-08  0.93827000000E+00  0.93827000000E+00 0. -1.
     999902    2    1    2    0    0 -0.34377492537E-02  0.20958043798E-01  0.10225016833E-01  0.10203586469E+01  0.10200863491E+01 0.  0.
     999903    2    3    3    0    0  0.30095853131E-01  0.10029681605E-01  0.12585619671E+00  0.13209376443E+00  0.24548430951E-01 0.  0.
         14    1    1    2    0    0  0.34377492537E-02 -0.20958043798E-01 -0.10225016833E-01  0.23571353144E-01  0.00000000000E+00 0. -1.
     999901    1    3    3    0    0 -0.33533602385E-01  0.10928362193E-01 -0.11563117988E+00  0.88826488242E+00  0.88000000000E+00 0. -1.
        -11    1    4    4    0    0  0.28371306964E-01  0.56132440804E-02  0.66154577322E-01  0.72201999900E-01  0.51100000000E-03 0. -1.
         11    1    4    4    0    0  0.17245461671E-02  0.44164375249E-02  0.59701619390E-01  0.59891764532E-01  0.51100000000E-03 0.  1.
</event>
<event>
 8    1  0.1064884E+005  0.1043930E+01  0.7957747E-01            NaN
         13   -1    0    0    0    0  0.00000000000E+00  0.00000000000E+00  0.74505805969E-08  0.10566000000E+00  0.10566000000E+00 0.  1.
     999900   -1    0    0    0    0 -0.00000000000E+00 -0.00000000000E+00 -0.74505805969E-08  0.93827000000E+00  0.93827000000E+00 0. -1.
     999902    2    1    2    0    0  0.15668444080E-01 -0.95606875801E-02 -0.79429928285E-02  0.10239300495E+01  0.10237347059E+01 0.  0.
     999903    2    3    3    0    0 -0.63011936172E-01 -0.16849306445E-02  0.11439895806E+00  0.13195461104E+00  0.18749791383E-01 0.  0.
         14    1    1    2    0    0 -0.15668444080E-01  0.95606875801E-02  0.79429928285E-02  0.19999950549E-01  0.00000000000E+00 0. -1.
     999901    1    3    3    0    0  0.78680380252E-01 -0.78757569356E-02 -0.12234195089E+00  0.89197543841E+00  0.88000000000E+00 0. -1.
        -11    1    4    4    0    0 -0.43141602442E-01  0.65527146743E-02  0.84694586495E-01  0.95276282639E-01  0.51100000000E-03 0. -1.
         11    1    4    4    0    0 -0.19870333729E-01 -0.82376453188E-02  0.29704371568E-01  0.36678328399E-01  0.51100000000E-03 0.  1.
</event>
<event>
 8    1  0.1344048E+005  0.1043930E+01  0.7957747E-01            NaN
         13   -1    0    0    0    0  0.00000000000E+00  0.00000000000E+00  0.74505805969E-08  0.10566000000E+00  0.10566000000E+00 0. -1.
     999900   -1    0    0    0    0 -0.00000000000E+00 -0.00000000000E+00 -0.74505805969E-08  0.93827000000E+00  0.93827000000E+00 0.  1.
     999902    2    1    2    0    0  0.85778107503E-02  0.20234565812E-01 -0.89334665170E-02  0.10202061025E+01  0.10199302271E+01 0.  0.
     999903    2    3    3    0    0 -0.89917001292E-01  0.66468606208E-01 -0.66419812891E-01  0.13164350223E+00  0.20378356231E-01 0.  0.
         14    1    1    2    0    0 -0.85778107503E-02 -0.20234565812E-01  0.89334665170E-02  0.23723897549E-01  0.00000000000E+00 0.  1.
     999901    1    3    3    0    0  0.98494812042E-01 -0.46234040395E-01  0.57486346374E-01  0.88856260022E+00  0.88000000000E+00 0. -1.
        -11    1    4    4    0    0 -0.51938160508E-01  0.26836646582E-01 -0.29463259426E-01  0.65468487791E-01  0.51100000000E-03 0. -1.
         11    1    4    4    0    0 -0.37978840784E-01  0.39631959626E-01 -0.36956553465E-01  0.66175014440E-01  0.51100000000E-03 0.  1.
</event>
<event>
 8    1  0.1064884E+005  0.1043930E+01  0.7957747E-01            NaN
         13   -1    0    0    0    0  0.00000000000E+00  0.00000000000E+00  0.74505805969E-08  0.10566000000E+00  0.10566000000E+00 0. -1.
     999900   -1    0    0    0    0 -0.00000000000E+00 -0.00000000000E+00 -0.74505805969E-08  0.93827000000E+00  0.93827000000E+00 0.  1.
     999902    2    1    2    0    0  0.12785519246E-01 -0.56728369211E-02  0.18163085647E-01  0.10210051606E+01  0.10207477601E+01 0.  0.
     999903    2    3    3    0    0  0.77700735078E-01 -0.10378463926E+00 -0.18676223603E-01  0.13241242728E+00  0.19380247525E-01 0.  0.
         14    1    1    2    0    0 -0.12785519246E-01  0.56728369211E-02 -0.18163085647E-01  0.22924839396E-01  0.00000000000E+00 0.  1.
     999901    1    3    3    0    0 -0.64915215832E-01  0.98111802334E-01  0.36839309250E-01  0.88859273332E+00  0.88000000000E+00 0. -1.
        -11    1    4    4    0    0  0.68649462888E-01 -0.97943140941E-01 -0.20849992974E-01  0.12141083535E+00  0.51100000000E-03 0. -1.
         11    1    4    4    0    0  0.90512721900E-02 -0.58414983140E-02  0.21737693711E-02  0.11001591934E-01  0.51100000000E-03 0.  1.
</event>
<event>
 8    1  0.1064884E+005  0.1043930E+01  0.7957747E-01            NaN
         13   -1    0    0    0    0  0.00000000000E+00  0.00000000000E+00  0.74505805969E-08  0.10566000000E+00  0.10566000000E+00 0.  1.
     999900   -1    0    0    0    0 -0.00000000000E+00 -0.00000000000E+00 -0.74505805969E-08  0.93827000000E+00  0.93827000000E+00 0. -1.
     999902    2    1    2    0    0 -0.72083074020E-02  0.12200300999E-01 -0.18979982142E-01  0.10202435743E+01  0.10199685800E+01 0.  0.
     999903    2    3    3    0    0  0.52341698704E-01 -0.92144455459E-02  0.11462423687E+00  0.12791242393E+00  0.19957782625E-01 0.  0.
         14    1    1    2    0    0  0.72083074020E-02 -0.12200300999E-01  0.18979982142E-01  0.23686425694E-01  0.00000000000E+00 0.  1.
     999901    1    3    3    0    0 -0.59550006106E-01  0.21414746545E-01 -0.13360421901E+00  0.89233115038E+00  0.88000000000E+00 0. -1.
        -11    1    4    4    0    0  0.50885139925E-01 -0.83609901314E-02  0.94033474480E-01  0.10724625432E+00  0.51100000000E-03 0.  1.
         11    1    4    4    0    0  0.14565587787E-02 -0.85345541445E-03  0.20590762390E-01  0.20666169612E-01  0.51100000000E-03 0. -1.
</event>
<event>
 8    1  0.1064884E+005  0.1043930E+01  0.7957747E-01            NaN
         13   -1    0    0    0    0  0.00000000000E+00  0.00000000000E+00  0.74505805969E-08  0.10566000000E+00  0.10566000000E+00 0.  1.
     999900   -1    0    0    0    0 -0.00000000000E+00 -0.00000000000E+00 -0.74505805969E-08  0.93827000000E+00  0.93827000000E+00 0.  1.
     999902    2    1    2    0    0 -0.22656724356E-01 -0.53240751123E-02  0.64252589997E-02  0.10197854998E+01  0.10194996365E+01 0.  0.
     999903    2    3    3    0    0 -0.91620568577E-01 -0.84532376598E-01 -0.40009474356E-01  0.13232499296E+00  0.19211830798E-01 0.  0.
         14    1    1    2    0    0  0.22656724356E-01  0.53240751123E-02 -0.64252589997E-02  0.24144500151E-01  0.00000000000E+00 0. -1.
     999901    1    3    3    0    0  0.68963844221E-01  0.79208301486E-01  0.46434733356E-01  0.88746050689E+00  0.88000000000E+00 0.  1.
        -11    1    4    4    0    0 -0.87228888503E-01 -0.81446897120E-01 -0.42087632891E-01  0.12654685300E+00  0.51100000000E-03 0. -1.
         11    1    4    4    0    0 -0.43916800741E-02 -0.30854794779E-02  0.20781585351E-02  0.57781399584E-02  0.51100000000E-03 0.  1.
</event>
<event>
 8    1  0.1064884E+005  0.1043930E+01  0.7957747E-01            NaN
         13   -1    0    0    0    0  0.00000000000E+00  0.00000000000E+00  0.74505805969E-08  0.10566000000E+00  0.10566000000E+00 0. -1.
     999900   -1    0    0    0    0 -0.00000000000E+00 -0.00000000000E+00 -0.74505805969E-08  0.93827000000E+00  0.93827000000E+00 0.  1.
     999902    2    1    2    0    0 -0.67488143705E-02 -0.10087478551E-01 -0.20516210308E-01  0.10200926636E+01  0.10198141124E+01 0.  0.
     999903    2    3    3    0    0 -0.51089917734E-01 -0.92235632790E-01  0.73699589089E-01  0.13015386264E+00  0.19768835999E-01 0.  0.
         14    1    1    2    0    0  0.67488143705E-02  0.10087478551E-01  0.20516210308E-01  0.23837336351E-01  0.00000000000E+00 0. -1.
     999901    1    3    3    0    0  0.44341103364E-01  0.82148154239E-01 -0.94215799397E-01  0.88993880101E+00  0.88000000000E+00 0.  1.
        -11    1    4    4    0    0 -0.40154017646E-01 -0.71126930577E-01  0.66445502808E-01  0.10529316859E+00  0.51100000000E-03 0. -1.
         11    1    4    4    0    0 -0.10935900088E-01 -0.21108702214E-01  0.72540862815E-02  0.24860694050E-01  0.51100000000E-03 0.  1.
</event>
<event>
 8    1  0.1064884E+005  0.1043930E+01  0.7957747E-01            NaN
         13   -1    0    0    0    0  0.00000000000E+00  0.00000000000E+00  0.74505805969E-08  0.10566000000E+00  0.10566000000E+00 0.  1.
     999900   -1    0    0    0    0 -0.00000000000E+00 -0.00000000000E+00 -0.74505805969E-08  0.93827000000E+00  0.93827000000E+00 0. -1.
     999902    2    1    2    0    0  0.17366998106E-01 -0.88986511229E-02 -0.16403245251E-01  0.10184375488E+01  0.10181184487E+01 0.  0.
     999903    2    3    3    0    0 -0.72759494800E-01  0.22897656621E-01 -0.10211012900E+00  0.12912350984E+00  0.20691920820E-01 0.  0.
         14    1    1    2    0    0 -0.17366998106E-01  0.88986511229E-02  0.16403245251E-01  0.25492451231E-01  0.00000000000E+00 0.  1.
     999901    1    3    3    0    0  0.90126492906E-01 -0.31796307744E-01  0.85706883749E-01  0.88931403893E+00  0.88000000000E+00 0.  1.
        -11    1    4    4    0    0 -0.31181063508E-01  0.17867925730E-01 -0.58488041970E-01  0.68648624646E-01  0.51100000000E-03 0.  1.
         11    1    4    4    0    0 -0.41578431293E-01  0.50297308909E-02 -0.43622087030E-01  0.60474885196E-01  0.51100000000E-03 0. -1.
</event>
<event>
 8    1  0.1064884E+005  0.1043930E+01  0.7957747E-01            NaN
         13   -1    0    0    0    0  0.00000000000E+00  0.00000000000E+00  0.74505805969E-08  0.10566000000E+00  0.10566000000E+00 0.  1.
     999900   -1    0    0    0    0 -0.00000000000E+00 -0.00000000000E+00 -0.74505805969E-08  0.93827000000E+00  0.93827000000E+00 0. -1.
     999902    2    1    2    0    0 -0.16613421570E-01  0.12289086668E-01 -0.82018308542E-02  0.10216971986E+01  0.10214552698E+01 0.  0.
     999903    2    3    3    0    0  0.37370253415E-02  0.73584161292E-01  0.10590463496E+00  0.13198291168E+00  0.27840673826E-01 0.  0.
         14    1    1    2    0    0  0.16613421570E-01 -0.12289086668E-01  0.82018308542E-02  0.22232801370E-01  0.00000000000E+00 0.  1.
     999901    1    3    3    0    0 -0.20350446911E-01 -0.61295074625E-01 -0.11410646581E+00  0.88971428695E+00  0.88000000000E+00 0. -1.
        -11    1    4    4    0    0 -0.14917028204E-02  0.52916248763E-01  0.93127184614E-01  0.10712277160E+00  0.51100000000E-03 0. -1.
         11    1    4    4    0    0  0.52287281618E-02  0.20667912529E-01  0.12777450342E-01  0.24860140079E-01  0.51100000000E-03 0.  1.
</event>
<event>
 8    1  0.1064884E+005  0.1043930E+01  0.7957747E-01            NaN
         13   -1    0    0    0    0  0.00000000000E+00  0.00000000000E+00  0.74505805969E-08  0.10566000000E+00  0.10566000000E+00 0. -1.
     999900   -1    0    0    0    0 -0.00000000000E+00 -0.00000000000E+00 -0.74505805969E-08  0.93827000000E+00  0.93827000000E+00 0.  1.
     999902    2    1    2    0    0  0.98630032662E-02  0.20257968875E-01 -0.68722712544E-02  0.10203738490E+01  0.10201019064E+01 0.  0.
     999903    2    3    3    0    0 -0.41069165951E-01  0.12180552218E+00 -0.26876158066E-01  0.13284573853E+00  0.20059928896E-01 0.  0.
         14    1    1    2    0    0 -0.98630032662E-02 -0.20257968875E-01  0.68722712544E-02  0.23556150971E-01  0.00000000000E+00 0. -1.
     999901    1    3    3    0    0  0.50932169217E-01 -0.10154755330E+00  0.20003886812E-01  0.88752811050E+00  0.88000000000E+00 0. -1.
        -11    1    4    4    0    0 -0.25354860493E-01  0.49385960214E-01 -0.59102996420E-02  0.55830410887E-01  0.51100000000E-03 0.  1.
         11    1    4    4    0    0 -0.15714305458E-01  0.72419561965E-01 -0.20965858424E-01  0.77015327641E-01  0.51100000000E-03 0. -1.
</event>
<event>
 8    1  0.1064884E+005  0.1043930E+01  0.7957747E-01            NaN
         13   -1    0    0    0    0  0.00000000000E+00  0.00000000000E+00  0.74505805969E-08  0.10566000000E+00  0.10566000000E+00 0.  1.
     999900   -1    0    0    0    0 -0.00000000000E+00 -0.00000000000E+00 -0.74505805969E-08  0.93827000000E+00  0.93827000000E+00 0. -1.
     999902    2    1    2    0    0 -0.92285191481E-03 -0.24039665560E-01  0.13091095205E-02  0.10198370354E+01  0.10195524056E+01 0.  0.
     999903    2    3    3    0    0  0.16413733872E-01  0.66549580848E-01  0.10707961500E+00  0.12871730797E+00  0.20095871503E-01 0.  0.
         14    1    1    2    0    0  0.92285191481E-03  0.24039665560E-01 -0.13091095205E-02  0.24092964608E-01  0.00000000000E+00 0. -1.
     999901    1    3    3    0    0 -0.17336585787E-01 -0.90589246408E-01 -0.10577050548E+00  0.89111972742E+00  0.88000000000E+00 0. -1.
        -11    1    4    4    0    0  0.22124056533E-02  0.45514736616E-01  0.75659847913E-01  0.88324173901E-01  0.51100000000E-03 0. -1.
         11    1    4    4    0    0  0.14201328219E-01  0.21034844232E-01  0.31419767088E-01  0.40393134069E-01  0.51100000000E-03 0.  1.
</event>
<event>
 8    1  0.1064884E+005  0.1043930E+01  0.7957747E-01            NaN
         13   -1    0    0    0    0  0.00000000000E+00  0.00000000000E+00  0.74505805969E-08  0.10566000000E+00  0.10566000000E+00 0. -1.
     999900   -1    0    0    0    0 -0.00000000000E+00 -0.00000000000E+00 -0.74505805969E-08  0.93827000000E+00  0.93827000000E+00 0. -1.
     999902    2    1    2    0    0  0.12543509099E-01  0.10647498624E-01 -0.17455332518E-01  0.10199425558E+01  0.10196604433E+01 0.  0.
     999903    2    3    3    0    0 -0.98899913279E-01 -0.14310129142E-01 -0.81118629851E-01  0.13028220766E+00  0.20180408328E-01 0.  0.
         14    1    1    2    0    0 -0.12543509099E-01 -0.10647498624E-01  0.17455332518E-01  0.23987444232E-01  0.00000000000E+00 0.  1.
     999901    1    3    3    0    0  0.11144342238E+00  0.24957627766E-01  0.63663297332E-01  0.88966034811E+00  0.88000000000E+00 0.  1.
        -11    1    4    4    0    0 -0.26233381350E-01  0.21689894252E-02 -0.30029324916E-01  0.39936403044E-01  0.51100000000E-03 0. -1.
         11    1    4    4    0    0 -0.72666531929E-01 -0.16479118567E-01 -0.51089304935E-01  0.90345804612E-01  0.51100000000E-03 0.  1.
</event>
<event>
 7    1  0.1064884E+005  0.1043930E+01  0.7957747E-01            NaN
         13   -1    0    0    0    0  0.00000000000E+00  0.00000000000E+00  0.74505805969E-08  0.10566000000E+00  0.10566000000E+00 0. -1.
     999900   -1    0    0    0    0 -0.00000000000E+00 -0.00000000000E+00 -0.74505805969E-08  0.93827000000E+00  0.93827000000E+00 0.  1.
     999903    2    1    2    0    0 -0.89365476487E-01 -0.13194182558E-01  0.41410196132E-01  0.10098763185E+00  0.17983954024E-01 0.  0.
         14    1    1    2    0    0  0.33218467007E-01 -0.36980052239E-01  0.27913723582E-01  0.57010233977E-01  0.00000000000E+00 0. -1.
     999901    1    1    2    0    0  0.56147009481E-01  0.50174234797E-01 -0.69323919714E-01  0.88593213417E+00  0.88000000000E+00 0. -1.
        -11    1    3    3    0    0 -0.26613634697E-01 -0.10064776851E-01  0.68198363368E-02  0.29263570758E-01  0.51100000000E-03 0. -1.
         11    1    3    3    0    0 -0.62751841791E-01 -0.31294057070E-02  0.34590359795E-01  0.71724061095E-01  0.51100000000E-03 0.  1.
</event>
<event>
 8    1  0.1064884E+005  0.1043930E+01  0.7957747E-01            NaN
         13   -1    0    0    0    0  0.00000000000E+00  0.00000000000E+00  0.74505805969E-08  0.10566000000E+00  0.10566000000E+00 0.  1.
     999900   -1    0    0    0    0 -0.00000000000E+00 -0.00000000000E+00 -0.74505805969E-08  0.93827000000E+00  0.93827000000E+00 0.  1.
     999902    2    1    2    0    0 -0.21842872990E-01 -0.80978971010E-02 -0.22187265175E-02  0.10205289362E+01  0.10202606039E+01 0.  0.
     999903    2    3    3    0    0 -0.91242202572E-01 -0.14023943193E-01 -0.93754278165E-01  0.13304364499E+00  0.19721467600E-01 0.  0.
         14    1    1    2    0    0  0.21842872990E-01  0.80978971010E-02  0.22187265175E-02  0.23401063764E-01  0.00000000000E+00 0. -1.
     999901    1    3    3    0    0  0.69399329582E-01  0.59260460920E-02  0.91535551647E-01  0.88748529125E+00  0.88000000000E+00 0. -1.
        -11    1    4    4    0    0 -0.79705806844E-01 -0.55203175368E-02 -0.76614916498E-01  0.11069596244E+00  0.51100000000E-03 0.  1.
         11    1    4    4    0    0 -0.11536395727E-01 -0.85036256562E-02 -0.17139361667E-01  0.22347682543E-01  0.51100000000E-03 0. -1.
</event>
<event>
 8    1  0.1064884E+005  0.1043930E+01  0.7957747E-01            NaN
         13   -1    0    0    0    0  0.00000000000E+00  0.00000000000E+00  0.74505805969E-08  0.10566000000E+00  0.10566000000E+00 0. -1.
     999900   -1    0    0    0    0 -0.00000000000E+00 -0.00000000000E+00 -0.74505805969E-08  0.93827000000E+00  0.93827000000E+00 0. -1.
     999902    2    1    2    0    0  0.83757403688E-02 -0.13685663791E-01  0.18411514006E-01  0.10195079962E+01  0.10192154434E+01 0.  0.
     999903    2    3    3    0    0  0.86936930663E-01  0.54731099071E-01  0.79326632221E-01  0.13127189829E+00  0.19648755226E-01 0.  0.
         14    1    1    2    0    0 -0.83757403688E-02  0.13685663791E-01 -0.18411514006E-01  0.24422003769E-01  0.00000000000E+00 0.  1.
     999901    1    3    3    0    0 -0.78561190294E-01 -0.68416762862E-01 -0.60915118216E-01  0.88823609794E+00  0.88000000000E+00 0. -1.
        -11    1    4    4    0    0  0.90675328323E-02  0.13459847554E-01  0.93435946493E-02  0.18733700377E-01  0.51100000000E-03 0. -1.
         11    1    4    4    0    0  0.77869397831E-01  0.41271251517E-01  0.69983037572E-01  0.11253819791E+00  0.51100000000E-03 0.  1.
</event>
<event>
 8    1  0.1064884E+005  0.1043930E+01  0.7957747E-01            NaN
         13   -1    0    0    0    0  0.00000000000E+00  0.00000000000E+00  0.74505805969E-08  0.10566000000E+00  0.10566000000E+00 0.  1.
     999900   -1    0    0    0    0 -0.00000000000E+00 -0.00000000000E+00 -0.74505805969E-08  0.93827000000E+00  0.93827000000E+00 0. -1.
     999902    2    1    2    0    0 -0.49404489892E-02 -0.19900094631E-01  0.27369774669E-01  0.10097316613E+01  0.10091523678E+01 0.  0.
     999903    2    3    3    0    0 -0.85093022731E-01 -0.63319248053E-01  0.62274505056E-01  0.12433457631E+00  0.18188545675E-01 0.  0.
         14    1    1    2    0    0  0.49404489892E-02  0.19900094631E-01 -0.27369774669E-01  0.34198338672E-01  0.00000000000E+00 0. -1.
     999901    1    3    3    0    0  0.80152573742E-01  0.43419153422E-01 -0.34904730387E-01  0.88539708502E+00  0.88000000000E+00 0.  1.
        -11    1    4    4    0    0 -0.66856380213E-01 -0.39672737764E-01  0.44414216492E-01  0.89535386549E-01  0.51100000000E-03 0.  1.
         11    1    4    4    0    0 -0.18236642519E-01 -0.23646510289E-01  0.17860288564E-01  0.34799189757E-01  0.51100000000E-03 0. -1.
</event>
<event>
 8    1  0.1064884E+005  0.1043930E+01  0.7957747E-01            NaN
         13   -1    0    0    0    0  0.00000000000E+00  0.00000000000E+00  0.74505805969E-08  0.10566000000E+00  0.10566000000E+00 0. -1.
     999900   -1    0    0    0    0 -0.00000000000E+00 -0.00000000000E+00 -0.74505805969E-08  0.93827000000E+00  0.93827000000E+00 0.  1.
     999902    2    1    2    0    0 -0.91262311265E-02  0.17805978945E-01 -0.12071594602E-01  0.10205619796E+01  0.10202944133E+01 0.  0.
     999903    2    3    3    0    0  0.63639666694E-01  0.35307038678E-01 -0.10842938028E+00  0.13214429302E+00  0.20213597240E-01 0.  0.
         14    1    1    2    0    0  0.91262311265E-02 -0.17805978945E-01  0.12071594602E-01  0.23368020391E-01  0.00000000000E+00 0. -1.
     999901    1    3    3    0    0 -0.72765897820E-01 -0.17501059733E-01  0.96357785679E-01  0.88841768659E+00  0.88000000000E+00 0. -1.
        -11    1    4    4    0    0  0.36601846900E-01  0.30339287591E-01 -0.75781350501E-01  0.89460839325E-01  0.51100000000E-03 0. -1.
         11    1    4    4    0    0  0.27037819794E-01  0.49677510870E-02 -0.32648029780E-01  0.42683453698E-01  0.51100000000E-03 0.  1.
</event>
<event>
 8    1  0.1064884E+005  0.1043930E+01  0.7957747E-01            NaN
         13   -1    0    0    0    0  0.00000000000E+00  0.00000000000E+00  0.74505805969E-08  0.10566000000E+00  0.10566000000E+00 0.  1.
     999900   -1    0    0    0    0 -0.00000000000E+00 -0.00000000000E+00 -0.74505805969E-08  0.93827000000E+00  0.93827000000E+00 0. -1.
     999902    2    1    2    0    0  0.11452030561E-01 -0.56680539450E-02 -0.21262850469E-01  0.10191230524E+01  0.10188210889E+01 0.  0.
     999903    2    3    3    0    0  0.12444740300E+00  0.33240987956E-01 -0.15706612212E-01  0.13102804649E+00  0.18153013654E-01 0.  0.
         14    1    1    2    0    0 -0.11452030561E-01  0.56680539450E-02  0.21262850469E-01  0.24806947606E-01  0.00000000000E+00 0.  1.
     999901    1    3    3    0    0 -0.11299537244E+00 -0.38909041901E-01 -0.55562382569E-02  0.88809500591E+00  0.88000000000E+00 0.  1.
        -11    1    4    4    0    0  0.97281202003E-02 -0.13396693088E-03  0.27761202532E-02  0.10130263295E-01  0.51100000000E-03 0.  1.
         11    1    4    4    0    0  0.11471928280E+00  0.33374954887E-01 -0.18482732465E-01  0.12089778319E+00  0.51100000000E-03 0. -1.
</event>
<event>
 8    1  0.1064884E+005  0.1043930E+01  0.7957747E-01            NaN
         13   -1    0    0    0    0  0.00000000000E+00  0.00000000000E+00  0.74505805969E-08  0.10566000000E+00  0.10566000000E+00 0. -1.
     999900   -1    0    0    0    0 -0.00000000000E+00 -0.00000000000E+00 -0.74505805969E-08  0.93827000000E+00  0.93827000000E+00 0.  1.
     999902    2    1    2    0    0  0.13991973054E-01 -0.68026733090E-02 -0.17210216750E-01  0.10207299303E+01  0.10204662402E+01 0.  0.
     999903    2    3    3    0    0 -0.98803359481E-01 -0.67764420499E-01  0.44758385319E-01  0.12928210270E+00  0.18879313884E-01 0.  0.
         14    1    1    2    0    0 -0.13991973054E-01  0.68026733090E-02  0.17210216750E-01  0.23200069713E-01  0.00000000000E+00 0. -1.
     999901    1    3    3    0    0  0.11279533253E+00  0.60961747190E-01 -0.61968602069E-01  0.89144782758E+00  0.88000000000E+00 0.  1.
        -11    1    4    4    0    0 -0.39646691274E-01 -0.36639432127E-01  0.25566392602E-01  0.59734493111E-01  0.51100000000E-03 0.  1.
         11    1    4    4    0    0 -0.59156668207E-01 -0.31124988372E-01  0.19191992716E-01  0.69547609592E-01  0.51100000000E-03 0. -1.
</event>
<event>
 8    1  0.1064884E+005  0.1043930E+01  0.7957747E-01            NaN
         13   -1    0    0    0    0  0.00000000000E+00  0.00000000000E+00  0.74505805969E-08  0.10566000000E+00  0.10566000000E+00 0.  1.
     999900   -1    0    0    0    0 -0.00000000000E+00 -0.00000000000E+00 -0.74505805969E-08  0.93827000000E+00  0.93827000000E+00 0.  1.
     999902    2    1    2    0    0  0.13647153486E-01  0.19940570228E-01  0.43120585886E-02  0.10193848378E+01  0.10190892907E+01 0.  0.
     999903    2    3    3    0    0  0.97779614087E-01 -0.56479297180E-01 -0.60608162296E-01  0.12970348912E+00  0.19972025766E-01 0.  0.
         14    1    1    2    0    0 -0.13647153486E-01 -0.19940570228E-01 -0.43120585886E-02  0.24545162223E-01  0.00000000000E+00 0. -1.
     999901    1    3    3    0    0 -0.84132460601E-01  0.76419867408E-01  0.64920220884E-01  0.88968134865E+00  0.88000000000E+00 0. -1.
        -11    1    4    4    0    0  0.85452637653E-01 -0.41904828980E-01 -0.46285943033E-01  0.10583391525E+00  0.51100000000E-03 0.  1.
         11    1    4    4    0    0  0.12326976434E-01 -0.14574468200E-01 -0.14322219263E-01  0.23869573874E-01  0.51100000000E-03 0. -1.
</event>
<event>
 8    1  0.1064884E+005  0.1043930E+01  0.7957747E-01            NaN
         13   -1    0    0    0    0  0.00000000000E+00  0.00000000000E+00  0.74505805969E-08  0.10566000000E+00  0.10566000000E+00 0. -1.
     999900   -1    0    0    0    0 -0.00000000000E+00 -0.00000000000E+00 -0.74505805969E-08  0.93827000000E+00  0.93827000000E+00 0. -1.
     999902    2    1    2    0    0  0.18988358941E-01 -0.10339004382E-01  0.16596475523E-01  0.10166738853E+01  0.10163084637E+01 0.  0.
     999903    2    3    3    0    0 -0.77383304518E-01 -0.96098580760E-01 -0.19896561041E-01  0.12651999742E+00  0.19705927097E-01 0.  0.
         14    1    1    2    0    0 -0.18988358941E-01  0.10339004382E-01 -0.16596475523E-01  0.27256114666E-01  0.00000000000E+00 0.  1.
     999901    1    3    3    0    0  0.96371663459E-01  0.85759576377E-01  0.36493036564E-01  0.89015388792E+00  0.88000000000E+00 0.  1.
        -11    1    4    4    0    0 -0.68345156006E-01 -0.72353188409E-01 -0.15505219887E-01  0.10073091475E+00  0.51100000000E-03 0. -1.
         11    1    4    4    0    0 -0.90381485115E-02 -0.23745392351E-01 -0.43913411540E-02  0.25789082662E-01  0.51100000000E-03 0.  1.
</event>
<event>
 8    1  0.1064884E+005  0.1043930E+01  0.7957747E-01            NaN
         13   -1    0    0    0    0  0.00000000000E+00  0.00000000000E+00  0.74505805969E-08  0.10566000000E+00  0.10566000000E+00 0.  1.
     999900   -1    0    0    0    0 -0.00000000000E+00 -0.00000000000E+00 -0.74505805969E-08  0.93827000000E+00  0.93827000000E+00 0. -1.
     999902    2    1    2    0    0  0.56678496307E-02 -0.18354921776E-01  0.14614696286E-01  0.10197925391E+01  0.10195068444E+01 0.  0.
     999903    2    3    3    0    0 -0.53250148618E-01 -0.94829139981E-01 -0.69479075296E-01  0.13052801206E+00  0.19546762177E-01 0.  0.
         14    1    1    2    0    0 -0.56678496307E-02  0.18354921776E-01 -0.14614696286E-01  0.24137460935E-01  0.00000000000E+00 0. -1.
     999901    1    3    3    0    0  0.58917998248E-01  0.76474218204E-01  0.84093771581E-01  0.88926452700E+00  0.88000000000E+00 0. -1.
        -11    1    4    4    0    0 -0.51332451149E-01 -0.77042518440E-01 -0.57209112603E-01  0.10882882832E+00  0.51100000000E-03 0. -1.
         11    1    4    4    0    0 -0.19176974688E-02 -0.17786621541E-01 -0.12269962693E-01  0.21699183738E-01  0.51100000000E-03 0.  1.
</event>
<event>
 8    1  0.1064884E+005  0.1043930E+01  0.7957747E-01            NaN
         13   -1    0    0    0    0  0.00000000000E+00  0.00000000000E+00  0.74505805969E-08  0.10566000000E+00  0.10566000000E+00 0. -1.
     999900   -1    0    0    0    0 -0.00000000000E+00 -0.00000000000E+00 -0.74505805969E-08  0.93827000000E+00  0.93827000000E+00 0. -1.
     999902    2    1    2    0    0  0.24826038302E-03 -0.16657428832E-01 -0.16100213920E-01  0.10207621676E+01  0.10204992182E+01 0.  0.
     999903    2    3    3    0    0 -0.23513296770E-01  0.12061074589E+00 -0.35677474070E-01  0.12958854116E+00  0.20505625936E-01 0.  0.
         14    1    1    2    0    0 -0.24826038302E-03  0.16657428832E-01  0.16100213920E-01  0.23167832371E-01  0.00000000000E+00 0.  1.
     999901    1    3    3    0    0  0.23761557153E-01 -0.13726817473E+00  0.19577260150E-01  0.89117362646E+00  0.88000000000E+00 0. -1.
        -11    1    4    4    0    0 -0.14749937747E-01  0.30203634280E-01 -0.12299136338E-01  0.35795950370E-01  0.51100000000E-03 0.  1.
         11    1    4    4    0    0 -0.87633590230E-02  0.90407111614E-01 -0.23378337733E-01  0.93792590794E-01  0.51100000000E-03 0. -1.
</event>
<event>
 8    1  0.1064884E+005  0.1043930E+01  0.7957747E-01            NaN
         13   -1    0    0    0    0  0.00000000000E+00  0.00000000000E+00  0.74505805969E-08  0.10566000000E+00  0.10566000000E+00 0.  1.
     999900   -1    0    0    0    0 -0.00000000000E+00 -0.00000000000E+00 -0.74505805969E-08  0.93827000000E+00  0.93827000000E+00 0. -1.
     999902    2    1    2    0    0 -0.61422551924E-02  0.15281373365E-01  0.16877665955E-01  0.10203481579E+01  0.10200756148E+01 0.  0.
     999903    2    3    3    0    0  0.20132796623E-01  0.12930074648E+00  0.15049653860E-02  0.13247028579E+00  0.20545051862E-01 0.  0.
         14    1    1    2    0    0  0.61422551924E-02 -0.15281373365E-01 -0.16877665955E-01  0.23581842143E-01  0.00000000000E+00 0. -1.
     999901    1    3    3    0    0 -0.26275051815E-01 -0.11401937311E+00  0.15372700569E-01  0.88787787207E+00  0.88000000000E+00 0.  1.
        -11    1    4    4    0    0  0.95910042096E-02  0.73655456756E-01  0.10849604317E-01  0.75067227913E-01  0.51100000000E-03 0. -1.
         11    1    4    4    0    0  0.10541792413E-01  0.55645289721E-01 -0.93446389310E-02  0.57403057873E-01  0.51100000000E-03 0.  1.
</event>
<event>
 8    1  0.1064884E+005  0.1043930E+01  0.7957747E-01            NaN
         13   -1    0    0    0    0  0.00000000000E+00  0.00000000000E+00  0.74505805969E-08  0.10566000000E+00  0.10566000000E+00 0. -1.
     999900   -1    0    0    0    0 -0.00000000000E+00 -0.00000000000E+00 -0.74505805969E-08  0.93827000000E+00  0.93827000000E+00 0. -1.
     999902    2    1    2    0    0  0.19673772393E-01 -0.71228387941E-02  0.11037969605E-01  0.10202735225E+01  0.10199992313E+01 0.  0.
     999903    2    3    3    0    0  0.59122069646E-01  0.93360766875E-02  0.11643866004E+00  0.13295375515E+00  0.23155086085E-01 0.  0.
         14    1    1    2    0    0 -0.19673772393E-01  0.71228387941E-02 -0.11037969605E-01  0.23656477457E-01  0.00000000000E+00 0.  1.
     999901    1    3    3    0    0 -0.39448297253E-01 -0.16458915482E-01 -0.10540069043E+00  0.88731976739E+00  0.88000000000E+00 0. -1.
        -11    1    4    4    0    0  0.18846745479E-01 -0.50454880917E-02  0.22816711884E-01  0.30025326433E-01  0.51100000000E-03 0. -1.
         11    1    4    4    0    0  0.40275324167E-01  0.14381564779E-01  0.93621948152E-01  0.10292842872E+00  0.51100000000E-03 0.  1.
</event>
<event>
 8    1  0.1064884E+005  0.1043930E+01  0.7957747E-01            NaN
         13   -1    0    0    0    0  0.00000000000E+00  0.00000000000E+00  0.74505805969E-08  0.10566000000E+00  0.10566000000E+00 0.  1.
     999900   -1    0    0    0    0 -0.00000000000E+00 -0.00000000000E+00 -0.74505805969E-08  0.93827000000E+00  0.93827000000E+00 0.  1.
     999902    2    1    2    0    0  0.20332865696E-01 -0.67390636329E-02 -0.41760143291E-02  0.10221061712E+01  0.10218731554E+01 0.  0.
     999903    2    3    3    0    0 -0.31776871096E-01 -0.12355406805E+00 -0.29414431340E-01  0.13250055771E+00  0.20391462830E-01 0.  0.
         14    1    1    2    0    0 -0.20332865696E-01  0.67390636329E-02  0.41760143291E-02  0.21823828759E-01  0.00000000000E+00 0. -1.
     999901    1    3    3    0    0  0.52109736792E-01  0.11681500441E+00  0.25238417011E-01  0.88960561353E+00  0.88000000000E+00 0.  1.
        -11    1    4    4    0    0 -0.36606216440E-02 -0.16987424799E-01 -0.11488137902E-01  0.20837734656E-01  0.51100000000E-03 0.  1.
         11    1    4    4    0    0 -0.28116249452E-01 -0.10656664325E+00 -0.17926293438E-01  0.11166282306E+00  0.51100000000E-03 0. -1.
</event>
<event>
 8    1  0.1064884E+005  0.1043930E+01  0.7957747E-01            NaN
         13   -1    0    0    0    0  0.00000000000E+00  0.00000000000E+00  0.74505805969E-08  0.10566000000E+00  0.10566000000E+00 0. -1.
     999900   -1    0    0    0    0 -0.00000000000E+00 -0.00000000000E+00 -0.74505805969E-08  0.93827000000E+00  0.93827000000E+00 0. -1.
     999902    2    1    2    0    0 -0.55855404086E-02 -0.25932292327E-01  0.25637560604E-02  0.10172793923E+01  0.10169302371E+01 0.  0.
     999903    2    3    3    0    0  0.11992347782E+00 -0.35149143024E-01 -0.19119442580E-01  0.12806196943E+00  0.20425771504E-01 0.  0.
         14    1    1    2    0    0  0.55855404086E-02  0.25932292327E-01 -0.25637560604E-02  0.26650607725E-01  0.00000000000E+00 0. -1.
     999901    1    3    3    0    0 -0.12550901823E+00  0.92168506975E-02  0.21683198640E-01  0.88921742285E+00  0.88000000000E+00 0.  1.
        -11    1    4    4    0    0  0.62887911114E-02  0.29443276985E-03  0.29943793306E-02  0.69902083570E-02  0.51100000000E-03 0. -1.
         11    1    4    4    0    0  0.11363468671E+00 -0.35443575794E-01 -0.22113821911E-01  0.12107176107E+00  0.51100000000E-03 0.  1.
</event>
<event>
 8    1  0.1064884E+005  0.1043930E+01  0.7957747E-01            NaN
         13   -1    0    0    0    0  0.00000000000E+00  0.00000000000E+00  0.74505805969E-08  0.10566000000E+00  0.10566000000E+00 0. -1.
     999900   -1    0    0    0    0 -0.00000000000E+00 -0.00000000000E+00 -0.74505805969E-08  0.93827000000E+00  0.93827000000E+00 0.  1.
     999902    2    1    2    0    0 -0.13525138779E-02 -0.21482973321E-01 -0.11572688611E-01  0.10194907987E+01  0.10191978288E+01 0.  0.
     999903    2    3    3    0    0  0.87609167768E-01 -0.67263514545E-01 -0.69158032739E-01  0.13195144152E+00  0.20702723520E-01 0.  0.
         14    1    1    2    0    0  0.13525138779E-02  0.21482973321E-01  0.11572688611E-01  0.24439201259E-01  0.00000000000E+00 0. -1.
     999901    1    3    3    0    0 -0.88961681646E-01  0.45780541223E-01  0.57585344128E-01  0.88753935722E+00  0.88000000000E+00 0. -1.
        -11    1    4    4    0    0  0.69887872177E-01 -0.59450598160E-01 -0.64102221547E-01  0.11192874621E+00  0.51100000000E-03 0. -1.
         11    1    4    4    0    0  0.17721295591E-01 -0.78129163852E-02 -0.50558111922E-02  0.20022695315E-01  0.51100000000E-03 0.  1.
</event>
<event>
 8    1  0.1064884E+005  0.1043930E+01  0.7957747E-01            NaN
         13   -1    0    0    0    0  0.00000000000E+00  0.00000000000E+00  0.74505805969E-08  0.10566000000E+00  0.10566000000E+00 0. -1.
     999900   -1    0    0    0    0 -0.00000000000E+00 -0.00000000000E+00 -0.74505805969E-08  0.93827000000E+00  0.93827000000E+00 0. -1.
     999902    2    1    2    0    0 -0.23684230450E-01  0.14387501380E-02 -0.10105467245E-03  0.10202018946E+01  0.10199259202E+01 0.  0.
     999903    2    3    3    0    0 -0.61040590070E-01  0.88925404744E-01 -0.73826328027E-01  0.13201000752E+00  0.18510378994E-01 0.  0.
         14    1    1    2    0    0  0.23684230450E-01 -0.14387501380E-02  0.10105467245E-03  0.23728105403E-01  0.00000000000E+00 0.  1.
     999901    1    3    3    0    0  0.37356359620E-01 -0.87486654606E-01  0.73725273355E-01  0.88819188708E+00  0.88000000000E+00 0.  1.
        -11    1    4    4    0    0 -0.14617670709E-01  0.18060133030E-01 -0.75134275062E-02  0.24424524886E-01  0.51100000000E-03 0.  1.
         11    1    4    4    0    0 -0.46422919361E-01  0.70865271714E-01 -0.66312900521E-01  0.10758548263E+00  0.51100000000E-03 0. -1.
</event>
<event>
 8    1  0.1064884E+005  0.1043930E+01  0.7957747E-01            NaN
         13   -1    0    0    0    0  0.00000000000E+00  0.00000000000E+00  0.74505805969E-08  0.10566000000E+00  0.10566000000E+00 0.  1.
     999900   -1    0    0    0    0 -0.00000000000E+00 -0.00000000000E+00 -0.74505805969E-08  0.93827000000E+00  0.93827000000E+00 0.  1.
     999902    2    1    2    0    0  0.10975961690E-01  0.14721130396E-01 -0.21144551729E-01  0.10159250811E+01  0.10155390169E+01 0.  0.
     999903    2    3    3    0    0  0.13855469289E-01  0.16394215001E-01  0.12128329405E+00  0.12446740850E+00  0.17937503931E-01 0.  0.
         14    1    1    2    0    0 -0.10975961690E-01 -0.14721130396E-01  0.21144551729E-01  0.28004918906E-01  0.00000000000E+00 0.  1.
     999901    1    3    3    0    0 -0.28795075991E-02 -0.16730846051E-02 -0.14242784578E+00  0.89145767260E+00  0.88000000000E+00 0.  1.
        -11    1    4    4    0    0  0.15276003103E-02  0.13577427855E-01  0.41705657363E-01  0.43889669479E-01  0.51100000000E-03 0.  1.
         11    1    4    4    0    0  0.12327868979E-01  0.28167871459E-02  0.79577636689E-01  0.80577739019E-01  0.51100000000E-03 0. -1.
</event>
<event>
 8    1  0.1064884E+005  0.1043930E+01  0.7957747E-01            NaN
         13   -1    0    0    0    0  0.00000000000E+00  0.00000000000E+00  0.74505805969E-08  0.10566000000E+00  0.10566000000E+00 0. -1.
     999900   -1    0    0    0    0 -0.00000000000E+00 -0.00000000000E+00 -0.74505805969E-08  0.93827000000E+00  0.93827000000E+00 0. -1.
     999902    2    1    2    0    0 -0.19732244481E-01  0.15472554386E-01  0.36135318196E-03  0.10188522811E+01  0.10185436066E+01 0.  0.
     999903    2    3    3    0    0  0.94409664872E-01 -0.37864411442E-01  0.73346790716E-01  0.12688811054E+00  0.19337590641E-01 0.  0.
         14    1    1    2    0    0  0.19732244481E-01 -0.15472554386E-01 -0.36135318196E-03  0.25077718947E-01  0.00000000000E+00 0. -1.
     999901    1    3    3    0    0 -0.11414190935E+00  0.53336965828E-01 -0.72985437534E-01  0.89196417052E+00  0.88000000000E+00 0.  1.
        -11    1    4    4    0    0  0.65849492037E-01 -0.18313796534E-01  0.42236533901E-01  0.80347598981E-01  0.51100000000E-03 0. -1.
         11    1    4    4    0    0  0.28560172835E-01 -0.19550614909E-01  0.31110256815E-01  0.46540511554E-01  0.51100000000E-03 0.  1.
</event>
<event>
 8    1  0.1064884E+005  0.1043930E+01  0.7957747E-01            NaN
         13   -1    0    0    0    0  0.00000000000E+00  0.00000000000E+00  0.74505805969E-08  0.10566000000E+00  0.10566000000E+00 0. -1.
     999900   -1    0    0    0    0 -0.00000000000E+00 -0.00000000000E+00 -0.74505805969E-08  0.93827000000E+00  0.93827000000E+00 0. -1.
     999902    2    1    2    0    0 -0.12851314177E-01  0.19648470587E-01 -0.55940801234E-02  0.10197947062E+01  0.10195090635E+01 0.  0.
     999903    2    3    3    0    0 -0.27902254822E-01 -0.10562983302E+00 -0.65192876232E-01  0.12879908298E+00  0.20072249947E-01 0.  0.
         14    1    1    2    0    0  0.12851314177E-01 -0.19648470587E-01  0.55940801234E-02  0.24135293761E-01  0.00000000000E+00 0.  1.
     999901    1    3    3    0    0  0.15050940645E-01  0.12527830360E+00  0.59598796108E-01  0.89099562326E+00  0.88000000000E+00 0.  1.
        -11    1    4    4    0    0 -0.26039265512E-01 -0.85858463414E-01 -0.61004930946E-01  0.10849692073E+00  0.51100000000E-03 0. -1.
         11    1    4    4    0    0 -0.18629893106E-02 -0.19771369603E-01 -0.41879452861E-02  0.20302162246E-01  0.51100000000E-03 0.  1.
</event>
<event>
 8    1  0.1064884E+005  0.1043930E+01  0.7957747E-01            NaN
         13   -1    0    0    0    0  0.00000000000E+00  0.00000000000E+00  0.74505805969E-08  0.10566000000E+00  0.10566000000E+00 0.  1.
     999900   -1    0    0    0    0 -0.00000000000E+00 -0.00000000000E+00 -0.74505805969E-08  0.93827000000E+00  0.93827000000E+00 0.  1.
     999902    2    1    2    0    0  0.34600147765E-02  0.59282473738E-02 -0.12848895625E-01  0.10293625727E+01  0.10292594892E+01 0.  0.
     999903    2    3    3    0    0 -0.80367998085E-03  0.22808002012E-01  0.13365620852E+00  0.13708075021E+00  0.20156863484E-01 0.  0.
         14    1    1    2    0    0 -0.34600147765E-02 -0.59282473738E-02  0.12848895625E-01  0.14567427294E-01  0.00000000000E+00 0.  1.
     999901    1    3    3    0    0  0.42636947573E-02 -0.16879754638E-01 -0.14650510415E+00  0.89228182249E+00  0.88000000000E+00 0.  1.
        -11    1    4    4    0    0 -0.35276381107E-02  0.23247116616E-01  0.80882433492E-01  0.84232427427E-01  0.51100000000E-03 0. -1.
         11    1    4    4    0    0  0.27239581299E-02 -0.43911460457E-03  0.52773775029E-01  0.52848322786E-01  0.51100000000E-03 0.  1.
</event>
<event>
 8    1  0.1064884E+005  0.1043930E+01  0.7957747E-01            NaN
         13   -1    0    0    0    0  0.00000000000E+00  0.00000000000E+00  0.74505805969E-08  0.10566000000E+00  0.10566000000E+00 0.  1.
     999900   -1    0    0    0    0 -0.00000000000E+00 -0.00000000000E+00 -0.74505805969E-08  0.93827000000E+00  0.93827000000E+00 0.  1.
     999902    2    1    2    0    0 -0.85710825295E-02  0.10876262936E-01 -0.18144614050E-01  0.10211049355E+01  0.10208497959E+01 0.  0.
     999903    2    3    3    0    0  0.81385279610E-01  0.96324719020E-01  0.29467242705E-01  0.13112714102E+00  0.20591102149E-01 0.  0.
         14    1    1    2    0    0  0.85710825295E-02 -0.10876262936E-01  0.18144614050E-01  0.22825064517E-01  0.00000000000E+00 0.  1.
     999901    1    3    3    0    0 -0.89956362139E-01 -0.85448456084E-01 -0.47611856755E-01  0.88997779446E+00  0.88000000000E+00 0.  1.
        -11    1    4    4    0    0  0.35354374652E-01  0.50521449801E-01  0.55133119905E-02  0.61911278675E-01  0.51100000000E-03 0. -1.
         11    1    4    4    0    0  0.46030904958E-01  0.45803269219E-01  0.23953930715E-01  0.69215862344E-01  0.51100000000E-03 0.  1.
</event>
<event>
 8    1  0.1064884E+005  0.1043930E+01  0.7957747E-01            NaN
         13   -1    0    0    0    0  0.00000000000E+00  0.00000000000E+00  0.74505805969E-08  0.10566000000E+00  0.10566000000E+00 0. -1.
     999900   -1    0    0    0    0 -0.00000000000E+00 -0.00000000000E+00 -0.74505805969E-08  0.93827000000E+00  0.93827000000E+00 0. -1.
     999902    2    1    2    0    0 -0.19479138999E-01  0.94654421466E-02 -0.88994434134E-02  0.10205156552E+01  0.10202470146E+01 0.  0.
     999903    2    3    3    0    0 -0.11027649904E+00  0.64771840777E-01  0.31076159037E-01  0.13321581457E+00  0.20601650277E-01 0.  0.
         14    1    1    2    0    0  0.19479138999E-01 -0.94654421466E-02  0.88994434134E-02  0.23414344839E-01  0.00000000000E+00 0.  1.
     999901    1    3    3    0    0  0.90797360037E-01 -0.55306398631E-01 -0.39975602451E-01  0.88729984059E+00  0.88000000000E+00 0. -1.
        -11    1    4    4    0    0 -0.47022105520E-01  0.16320719828E-01  0.96205812397E-02  0.50697741642E-01  0.51100000000E-03 0.  1.
         11    1    4    4    0    0 -0.63254393516E-01  0.48451120950E-01  0.21455577798E-01  0.82518072929E-01  0.51100000000E-03 0. -1.
</event>
<event>
 8    1  0.1064884E+005  0.1043930E+01  0.7957747E-01            NaN
         13   -1    0    0    0    0  0.00000000000E+00  0.00000000000E+00  0.74505805969E-08  0.10566000000E+00  0.10566000000E+00 0.  1.
     999900   -1    0    0    0    0 -0.00000000000E+00 -0.00000000000E+00 -0.74505805969E-08  0.93827000000E+00  0.93827000000E+00 0.  1.
     999902    2    1    2    0    0  0.39046023325E-02 -0.23034460652E-01  0.41325308945E-02  0.10202042733E+01  0.10199283549E+01 0.  0.
     999903    2    3    3    0    0 -0.98013984357E-01  0.60053660770E-01 -0.53741752796E-01  0.12855385582E+00  0.20609089059E-01 0.  0.
         14    1    1    2    0    0 -0.39046023325E-02  0.23034460652E-01 -0.41325308945E-02  0.23725726723E-01  0.00000000000E+00 0. -1.
     999901    1    3    3    0    0  0.10191858669E+00 -0.83088121423E-01  0.57874283691E-01  0.89165041745E+00  0.88000000000E+00 0. -1.
        -11    1    4    4    0    0 -0.40688372663E-01  0.15080801502E-01 -0.25995405518E-01  0.50586524618E-01  0.51100000000E-03 0.  1.
         11    1    4    4    0    0 -0.57325611694E-01  0.44972859269E-01 -0.27746347278E-01  0.77967331205E-01  0.51100000000E-03 0. -1.
</event>
<event>
 8    1  0.1064884E+005  0.1043930E+01  0.7957747E-01            NaN
         13   -1    0    0    0    0  0.00000000000E+00  0.00000000000E+00  0.74505805969E-08  0.10566000000E+00  0.10566000000E+00 0. -1.
     999900   -1    0    0    0    0 -0.00000000000E+00 -0.00000000000E+00 -0.74505805969E-08  0.93827000000E+00  0.93827000000E+00 0. -1.
     999902    2    1    2    0    0  0.13426258744E-01 -0.96460924490E-02 -0.18551772091E-01  0.10190808598E+01  0.10187778555E+01 0.  0.
     999903    2    3    3    0    0  0.33798181427E-01 -0.25468786804E-01  0.11907452472E+00  0.12801050873E+00  0.20419885912E-01 0.  0.
         14    1    1    2    0    0 -0.13426258744E-01  0.96460924490E-02  0.18551772091E-01  0.24849140249E-01  0.00000000000E+00 0. -1.
     999901    1    3    3    0    0 -0.20371922683E-01  0.15822694355E-01 -0.13762629681E+00  0.89107035102E+00  0.88000000000E+00 0. -1.
        -11    1    4    4    0    0  0.65206572533E-02 -0.12031284273E-01  0.60282956140E-01  0.61818821521E-01  0.51100000000E-03 0. -1.
         11    1    4    4    0    0  0.27277524174E-01 -0.13437502531E-01  0.58791568576E-01  0.66191687212E-01  0.51100000000E-03 0.  1.
</event>
<event>
 8    1  0.1064884E+005  0.1043930E+01  0.7957747E-01            NaN
         13   -1    0    0    0    0  0.00000000000E+00  0.00000000000E+00  0.74505805969E-08  0.10566000000E+00  0.10566000000E+00 0. -1.
     999900   -1    0    0    0    0 -0.00000000000E+00 -0.00000000000E+00 -0.74505805969E-08  0.93827000000E+00  0.93827000000E+00 0.  1.
     999902    2    1    2    0    0 -0.22896208330E-01 -0.36422329041E-02  0.56275745398E-02  0.10200726780E+01  0.10197936540E+01 0.  0.
     999903    2    3    3    0    0 -0.63396556453E-01 -0.45367516184E-01 -0.10401246621E+00  0.13136450546E+00  0.18992242424E-01 0.  0.
         14    1    1    2    0    0  0.22896208330E-01  0.36422329041E-02 -0.56275745398E-02  0.23857321971E-01  0.00000000000E+00 0.  1.
     999901    1    3    3    0    0  0.40500348122E-01  0.41725283280E-01  0.10964004075E+00  0.88870817257E+00  0.88000000000E+00 0. -1.
        -11    1    4    4    0    0 -0.14935032820E-01 -0.19684795945E-01 -0.24764185742E-01  0.34986746251E-01  0.51100000000E-03 0.  1.
         11    1    4    4    0    0 -0.48461523633E-01 -0.25682720239E-01 -0.79248280466E-01  0.96377759205E-01  0.51100000000E-03 0. -1.
</event>
<event>
 8    1  0.1064884E+005  0.1043930E+01  0.7957747E-01            NaN
         13   -1    0    0    0    0  0.00000000000E+00  0.00000000000E+00  0.74505805969E-08  0.10566000000E+00  0.10566000000E+00 0. -1.
     999900   -1    0    0    0    0 -0.00000000000E+00 -0.00000000000E+00 -0.74505805969E-08  0.93827000000E+00  0.93827000000E+00 0.  1.
     999902    2    1    2    0    0 -0.39212161483E-02  0.19814951418E-01  0.11051037823E-01  0.10209053681E+01  0.10206456961E+01 0.  0.
     999903    2    3    3    0    0  0.47731856132E-01 -0.11091003130E+00  0.41053500787E-01  0.12924556262E+00  0.20968080425E-01 0.  0.
         14    1    1    2    0    0  0.39212161483E-02 -0.19814951418E-01 -0.11051037823E-01  0.23024631870E-01  0.00000000000E+00 0. -1.
     999901    1    3    3    0    0 -0.51653072281E-01  0.13072498272E+00 -0.30002462964E-01  0.89165980551E+00  0.88000000000E+00 0. -1.
        -11    1    4    4    0    0  0.30449844885E-01 -0.67908990908E-01  0.35844667890E-01  0.82607054401E-01  0.51100000000E-03 0.  1.
         11    1    4    4    0    0  0.17282011247E-01 -0.43001040391E-01  0.52088328972E-02  0.46638508216E-01  0.51100000000E-03 0. -1.
</event>
<event>
 7    1  0.1064884E+005  0.1043930E+01  0.7957747E-01            NaN
         13   -1    0    0    0    0  0.00000000000E+00  0.00000000000E+00  0.74505805969E-08  0.10566000000E+00  0.10566000000E+00 0.  1.
     999900   -1    0    0    0    0 -0.00000000000E+00 -0.00000000000E+00 -0.74505805969E-08  0.93827000000E+00  0.93827000000E+00 0.  1.
     999903    2    1    2    0    0  0.29893003791E-01 -0.44604317234E-01  0.94068797221E-01  0.11001915056E+00  0.19290880959E-01 0.  0.
         14    1    1    2    0    0  0.20823881471E-01  0.14889267683E-01  0.34148765729E-01  0.42678595718E-01  0.00000000000E+00 0.  1.
     999901    1    1    2    0    0 -0.50716885262E-01  0.29715049552E-01 -0.12821756295E+00  0.89123225372E+00  0.88000000000E+00 0.  1.
        -11    1    3    3    0    0  0.10821120511E-01 -0.30915210155E-02  0.16083864642E-01  0.19636852449E-01  0.51100000000E-03 0. -1.
         11    1    3    3    0    0  0.19071883280E-01 -0.41512796219E-01  0.77984932579E-01  0.90382298113E-01  0.51100000000E-03 0.  1.
</event>
<event>
 8    1  0.1064884E+005  0.1043930E+01  0.7957747E-01            NaN
         13   -1    0    0    0    0  0.00000000000E+00  0.00000000000E+00  0.74505805969E-08  0.10566000000E+00  0.10566000000E+00 0. -1.
     999900   -1    0    0    0    0 -0.00000000000E+00 -0.00000000000E+00 -0.74505805969E-08  0.93827000000E+00  0.93827000000E+00 0. -1.
     999902    2    1    2    0    0  0.10027916524E-01 -0.23409695513E-02  0.24838806051E-01  0.10170412378E+01  0.10166857301E+01 0.  0.
     999903    2    3    3    0    0 -0.30020429561E-01 -0.63396075903E-01 -0.10173165743E+00  0.12499209211E+00  0.18799051473E-01 0.  0.
         14    1    1    2    0    0 -0.10027916524E-01  0.23409695513E-02 -0.24838806051E-01  0.26888762231E-01  0.00000000000E+00 0. -1.
     999901    1    3    3    0    0  0.40048346086E-01  0.61055106352E-01  0.12657046348E+00  0.89204914565E+00  0.88000000000E+00 0.  1.
        -11    1    4    4    0    0 -0.22621824948E-01 -0.59699076866E-01 -0.94185196203E-01  0.11378417749E+00  0.51100000000E-03 0.  1.
         11    1    4    4    0    0 -0.73986046137E-02 -0.36969990366E-02 -0.75464612298E-02  0.11207914623E-01  0.51100000000E-03 0. -1.
</event>
<event>
 8    1  0.1064884E+005  0.1043930E+01  0.7957747E-01            NaN
         13   -1    0    0    0    0  0.00000000000E+00  0.00000000000E+00  0.74505805969E-08  0.10566000000E+00  0.10566000000E+00 0. -1.
     999900   -1    0    0    0    0 -0.00000000000E+00 -0.00000000000E+00 -0.74505805969E-08  0.93827000000E+00  0.93827000000E+00 0.  1.
     999902    2    1    2    0    0 -0.69235283110E-02  0.19158697098E-01 -0.11399426407E-01  0.10205860963E+01  0.10203190884E+01 0.  0.
     999903    2    3    3    0    0 -0.91188223559E-01 -0.72916933150E-01 -0.55297701318E-01  0.13069536192E+00  0.19780561173E-01 0.  0.
         14    1    1    2    0    0  0.69235283110E-02 -0.19158697098E-01  0.11399426407E-01  0.23343903726E-01  0.00000000000E+00 0. -1.
     999901    1    3    3    0    0  0.84264695248E-01  0.92075630247E-01  0.43898274911E-01  0.88989073436E+00  0.88000000000E+00 0. -1.
        -11    1    4    4    0    0 -0.36472990232E-01 -0.37511573236E-01 -0.16569614911E-01  0.54883607776E-01  0.51100000000E-03 0.  1.
         11    1    4    4    0    0 -0.54715233327E-01 -0.35405359913E-01 -0.38728086407E-01  0.75811754144E-01  0.51100000000E-03 0. -1.
</event>
<event>
 8    1  0.1064884E+005  0.1043930E+01  0.7957747E-01            NaN
         13   -1    0    0    0    0  0.00000000000E+00  0.00000000000E+00  0.74505805969E-08  0.10566000000E+00  0.10566000000E+00 0. -1.
     999900   -1    0    0    0    0 -0.00000000000E+00 -0.00000000000E+00 -0.74505805969E-08  0.93827000000E+00  0.93827000000E+00 0.  1.
     999902    2    1    2    0    0  0.25152554969E-03 -0.59541613428E-02  0.22923092690E-01  0.10202449102E+01  0.10199699472E+01 0.  0.
     999903    2    3    3    0    0 -0.68056448969E-01 -0.54816756766E-01  0.98174697742E-01  0.13304913882E+00  0.20669905546E-01 0.  0.
         14    1    1    2    0    0 -0.25152554969E-03  0.59541613428E-02 -0.22923092690E-01  0.23685089843E-01  0.00000000000E+00 0.  1.
     999901    1    3    3    0    0  0.68307974519E-01  0.48862595424E-01 -0.75251605052E-01  0.88719577134E+00  0.88000000000E+00 0.  1.
        -11    1    4    4    0    0 -0.42573438642E-01 -0.24678905089E-01  0.64740358697E-01  0.81321099349E-01  0.51100000000E-03 0.  1.
         11    1    4    4    0    0 -0.25483010328E-01 -0.30137851678E-01  0.33434339046E-01  0.51728039471E-01  0.51100000000E-03 0. -1.
</event>
<event>
 8    1  0.1064884E+005  0.1043930E+01  0.7957747E-01            NaN
         13   -1    0    0    0    0  0.00000000000E+00  0.00000000000E+00  0.74505805969E-08  0.10566000000E+00  0.10566000000E+00 0. -1.
     999900   -1    0    0    0    0 -0.00000000000E+00 -0.00000000000E+00 -0.74505805969E-08  0.93827000000E+00  0.93827000000E+00 0. -1.
     999902    2    1    2    0    0 -0.51853610110E-02  0.16418411194E-01  0.16787080780E-01  0.10198829986E+01  0.10195994667E+01 0.  0.
     999903    2    3    3    0    0 -0.29403985428E-01  0.35458045965E-01  0.12315656624E+00  0.13294246120E+00  0.19603336414E-01 0.  0.
         14    1    1    2    0    0  0.51853610110E-02 -0.16418411194E-01 -0.16787080780E-01  0.24047001394E-01  0.00000000000E+00 0.  1.
     999901    1    3    3    0    0  0.24218624417E-01 -0.19039634772E-01 -0.10636948546E+00  0.88694053741E+00  0.88000000000E+00 0. -1.
        -11    1    4    4    0    0 -0.93299210054E-02  0.13125513305E-01  0.70553252595E-01  0.72369531560E-01  0.51100000000E-03 0. -1.
         11    1    4    4    0    0 -0.20074064422E-01  0.22332532661E-01  0.52603313646E-01  0.60572929638E-01  0.51100000000E-03 0.  1.
</event>
<event>
 8    1  0.1064884E+005  0.1043930E+01  0.7957747E-01            NaN
         13   -1    0    0    0    0  0.00000000000E+00  0.00000000000E+00  0.74505805969E-08  0.10566000000E+00  0.10566000000E+00 0.  1.
     999900   -1    0    0    0    0 -0.00000000000E+00 -0.00000000000E+00 -0.74505805969E-08  0.93827000000E+00  0.93827000000E+00 0.  1.
     999902    2    1    2    0    0  0.23839459314E-01  0.29918478854E-02  0.49205396113E-02  0.10194048561E+01  0.10191097968E+01 0.  0.
     999903    2    3    3    0    0  0.19017895512E-01  0.12745514892E+00 -0.56168889816E-02  0.13057112687E+00  0.20267570001E-01 0.  0.
         14    1    1    2    0    0 -0.23839459314E-01 -0.29918478854E-02 -0.49205396113E-02  0.24525143919E-01  0.00000000000E+00 0. -1.
     999901    1    3    3    0    0  0.48215638021E-02 -0.12446330104E+00  0.10537428593E-01  0.88883372921E+00  0.88000000000E+00 0.  1.
        -11    1    4    4    0    0  0.95168203368E-02  0.36394542692E-01 -0.99402609109E-02  0.38912755172E-01  0.51100000000E-03 0.  1.
         11    1    4    4    0    0  0.95010751754E-02  0.91060606230E-01  0.43233719292E-02  0.91658371698E-01  0.51100000000E-03 0. -1.
</event>
<event>
 8    1  0.1064884E+005  0.1043930E+01  0.7957747E-01            NaN
         13   -1    0    0    0    0  0.00000000000E+00  0.00000000000E+00  0.74505805969E-08  0.10566000000E+00  0.10566000000E+00 0. -1.
     999900   -1    0    0    0    0 -0.00000000000E+00 -0.00000000000E+00 -0.74505805969E-08  0.93827000000E+00  0.93827000000E+00 0. -1.
     999902    2    1    2    0    0 -0.89853840525E-02 -0.16684773779E-01 -0.88732179214E-03  0.10249588076E+01  0.10247832215E+01 0.  0.
     999903    2    3    3    0    0 -0.36116330010E-01  0.12638352264E+00 -0.67651559994E-02  0.13297272325E+00  0.18941850574E-01 0.  0.
         14    1    1    2    0    0  0.89853840525E-02  0.16684773779E-01  0.88732179214E-03  0.18971192440E-01  0.00000000000E+00 0. -1.
     999901    1    3    3    0    0  0.27130945958E-01 -0.14306829642E+00  0.58778342073E-02  0.89198608431E+00  0.88000000000E+00 0. -1.
        -11    1    4    4    0    0 -0.25258888240E-01  0.81861463417E-01  0.44636451786E-02  0.85787504202E-01  0.51100000000E-03 0. -1.
         11    1    4    4    0    0 -0.10857441770E-01  0.44522059228E-01 -0.11228801178E-01  0.47185219047E-01  0.51100000000E-03 0.  1.
</event>
<event>
 8    1  0.1064884E+005  0.1043930E+01  0.7957747E-01            NaN
         13   -1    0    0    0    0  0.00000000000E+00  0.00000000000E+00  0.74505805969E-08  0.10566000000E+00  0.10566000000E+00 0. -1.
     999900   -1    0    0    0    0 -0.00000000000E+00 -0.00000000000E+00 -0.74505805969E-08  0.93827000000E+00  0.93827000000E+00 0.  1.
     999902    2    1    2    0    0  0.14051314536E-01 -0.17374394918E-01 -0.43958225107E-02  0.10211565002E+01  0.10209025250E+01 0.  0.
     999903    2    3    3    0    0  0.47032366504E-01  0.10110065589E+00 -0.64900078779E-01  0.13054724102E+00  0.19929269725E-01 0.  0.
         14    1    1    2    0    0 -0.14051314536E-01  0.17374394918E-01  0.43958225107E-02  0.22773499830E-01  0.00000000000E+00 0. -1.
     999901    1    3    3    0    0 -0.32981051968E-01 -0.11847505081E+00  0.60504256268E-01  0.89060925915E+00  0.88000000000E+00 0. -1.
        -11    1    4    4    0    0  0.12953363223E-01  0.48307806946E-01 -0.34345107152E-01  0.60673563741E-01  0.51100000000E-03 0. -1.
         11    1    4    4    0    0  0.34079003281E-01  0.52792848948E-01 -0.30554971627E-01  0.69873677281E-01  0.51100000000E-03 0.  1.
</event>
<event>
 8    1  0.1064884E+005  0.1043930E+01  0.7957747E-01            NaN
         13   -1    0    0    0    0  0.00000000000E+00  0.00000000000E+00  0.74505805969E-08  0.10566000000E+00  0.10566000000E+00 0. -1.
     999900   -1    0    0    0    0 -0.00000000000E+00 -0.00000000000E+00 -0.74505805969E-08  0.93827000000E+00  0.93827000000E+00 0. -1.
     999902    2    1    2    0    0 -0.20449307586E-01 -0.10340485327E-01 -0.42198363984E-03  0.10210110583E+01  0.10207537917E+01 0.  0.
     999903    2    3    3    0    0 -0.24003193455E-01  0.30111703714E-01  0.12393088432E+00  0.13134109397E+00  0.20217588329E-01 0.  0.
         14    1    1    2    0    0  0.20449307586E-01  0.10340485327E-01  0.42198363984E-03  0.22918941681E-01  0.00000000000E+00 0. -1.
     999901    1    3    3    0    0  0.35538858687E-02 -0.40452189041E-01 -0.12435286796E+00  0.88966996435E+00  0.88000000000E+00 0. -1.
        -11    1    4    4    0    0 -0.27156591366E-01  0.23808864379E-01  0.97267063171E-01  0.10375685605E+00  0.51100000000E-03 0. -1.
         11    1    4    4    0    0  0.31533979106E-02  0.63028393355E-02  0.26663821153E-01  0.27584237919E-01  0.51100000000E-03 0.  1.
</event>
<event>
 8    1  0.1064884E+005  0.1043930E+01  0.7957747E-01            NaN
         13   -1    0    0    0    0  0.00000000000E+00  0.00000000000E+00  0.74505805969E-08  0.10566000000E+00  0.10566000000E+00 0. -1.
     999900   -1    0    0    0    0 -0.00000000000E+00 -0.00000000000E+00 -0.74505805969E-08  0.93827000000E+00  0.93827000000E+00 0.  1.
     999902    2    1    2    0    0 -0.11259979323E-01 -0.26284188795E-02  0.20614312157E-01  0.10202943154E+01  0.10200205118E+01 0.  0.
     999903    2    3    3    0    0  0.92042971203E-01 -0.67121593129E-01 -0.56056869672E-01  0.12860527812E+00  0.20487267020E-01 0.  0.
         14    1    1    2    0    0  0.11259979323E-01  0.26284188795E-02 -0.20614312157E-01  0.23635684586E-01  0.00000000000E+00 0.  1.
     999901    1    3    3    0    0 -0.10330295053E+00  0.64493174249E-01  0.76671181829E-01  0.89168903730E+00  0.88000000000E+00 0. -1.
        -11    1    4    4    0    0  0.29013989581E-01 -0.32854591140E-01 -0.24628106888E-01  0.50279623311E-01  0.51100000000E-03 0.  1.
         11    1    4    4    0    0  0.63028981622E-01 -0.34267001989E-01 -0.31428762784E-01  0.78325654806E-01  0.51100000000E-03 0. -1.
</event>
<event>
 8    1  0.1064884E+005  0.1043930E+01  0.7957747E-01            NaN
         13   -1    0    0    0    0  0.00000000000E+00  0.00000000000E+00  0.74505805969E-08  0.10566000000E+00  0.10566000000E+00 0.  1.
     999900   -1    0    0    0    0 -0.00000000000E+00 -0.00000000000E+00 -0.74505805969E-08  0.93827000000E+00  0.93827000000E+00 0.  1.
     999902    2    1    2    0    0  0.21752392328E-01 -0.58297812469E-03  0.93822332789E-02  0.10202333180E+01  0.10199580827E+01 0.  0.
     999903    2    3    3    0    0 -0.20091724430E-01  0.49303262481E-01 -0.11544099509E+00  0.12904287516E+00  0.22157418604E-01 0.  0.
         14    1    1    2    0    0 -0.21752392328E-01  0.58297812469E-03 -0.93822332789E-02  0.23696681979E-01  0.00000000000E+00 0.  1.
     999901    1    3    3    0    0  0.41844116758E-01 -0.49886240605E-01  0.12482322837E+00  0.89119044286E+00  0.88000000000E+00 0. -1.
        -11    1    4    4    0    0 -0.12449395470E-01  0.47939639949E-01 -0.10418175438E+00  0.11535725202E+00  0.51100000000E-03 0.  1.
         11    1    4    4    0    0 -0.76423289603E-02  0.13636225318E-02 -0.11259240711E-01  0.13685623140E-01  0.51100000000E-03 0. -1.
</event>
<event>
 8    1  0.1064884E+005  0.1043930E+01  0.7957747E-01            NaN
         13   -1    0    0    0    0  0.00000000000E+00  0.00000000000E+00  0.74505805969E-08  0.10566000000E+00  0.10566000000E+00 0.  1.
     999900   -1    0    0    0    0 -0.00000000000E+00 -0.00000000000E+00 -0.74505805969E-08  0.93827000000E+00  0.93827000000E+00 0.  1.
     999902    2    1    2    0    0 -0.16409676885E-02 -0.10509291882E-01 -0.20939466802E-01  0.10204438496E+01  0.10201735396E+01 0.  0.
     999903    2    3    3    0    0 -0.50382605169E-01  0.46423385675E-02  0.11630058976E+00  0.12834511501E+00  0.19664260887E-01 0.  0.
         14    1    1    2    0    0  0.16409676885E-02  0.10509291882E-01  0.20939466802E-01  0.23486150403E-01  0.00000000000E+00 0.  1.
     999901    1    3    3    0    0  0.48741637481E-01 -0.15151630449E-01 -0.13724005656E+00  0.89209873459E+00  0.88000000000E+00 0.  1.
        -11    1    4    4    0    0 -0.22123006285E-01  0.68379019324E-02  0.32723230089E-01  0.40090587653E-01  0.51100000000E-03 0. -1.
         11    1    4    4    0    0 -0.28259598885E-01 -0.21955633649E-02  0.83577359674E-01  0.88254527355E-01  0.51100000000E-03 0.  1.
</event>
<event>
 8    1  0.1064884E+005  0.1043930E+01  0.7957747E-01            NaN
         13   -1    0    0    0    0  0.00000000000E+00  0.00000000000E+00  0.74505805969E-08  0.10566000000E+00  0.10566000000E+00 0. -1.
     999900   -1    0    0    0    0 -0.00000000000E+00 -0.00000000000E+00 -0.74505805969E-08  0.93827000000E+00  0.93827000000E+00 0.  1.
     999902    2    1    2    0    0  0.14294861257E-01 -0.16896165484E-01  0.72007112344E-02  0.10206561153E+01  0.10203907252E+01 0.  0.
     999903    2    3    3    0    0  0.26128218661E-01  0.93647457727E-01 -0.81873397113E-01  0.12919993705E+00  0.23169817196E-01 0.  0.
         14    1    1    2    0    0 -0.14294861257E-01  0.16896165484E-01 -0.72007112344E-02  0.23273884693E-01  0.00000000000E+00 0.  1.
     999901    1    3    3    0    0 -0.11833357403E-01 -0.11054362321E+00  0.89074108348E-01  0.89145617826E+00  0.88000000000E+00 0. -1.
        -11    1    4    4    0    0  0.22351747810E-01  0.37419885029E-01 -0.35662940844E-01  0.56320110941E-01  0.51100000000E-03 0.  1.
         11    1    4    4    0    0  0.37764708506E-02  0.56227572698E-01 -0.46210456269E-01  0.72879826106E-01  0.51100000000E-03 0. -1.
</event>
<event>
 8    1  0.1064884E+005  0.1043930E+01  0.7957747E-01            NaN
         13   -1    0    0    0    0  0.00000000000E+00  0.00000000000E+00  0.74505805969E-08  0.10566000000E+00  0.10566000000E+00 0.  1.
     999900   -1    0    0    0    0 -0.00000000000E+00 -0.00000000000E+00 -0.74505805969E-08  0.93827000000E+00  0.93827000000E+00 0.  1.
     999902    2    1    2    0    0  0.19645677609E-01  0.16908805191E-02  0.13682900615E-01  0.10199293022E+01  0.10196468742E+01 0.  0.
     999903    2    3    3    0    0 -0.66662452442E-01 -0.10334862045E+00  0.34407970409E-01  0.12924870929E+00  0.19912320543E-01 0.  0.
         14    1    1    2    0    0 -0.19645677609E-01 -0.16908805191E-02 -0.13682900615E-01  0.24000697800E-01  0.00000000000E+00 0.  1.
     999901    1    3    3    0    0  0.86308130051E-01  0.10503950097E+00 -0.20725069795E-01  0.89068059291E+00  0.88000000000E+00 0.  1.
        -11    1    4    4    0    0 -0.15122054711E-01 -0.20690393582E-01  0.15694430824E-01  0.30055701708E-01  0.51100000000E-03 0.  1.
         11    1    4    4    0    0 -0.51540397730E-01 -0.82658226870E-01  0.18713539586E-01  0.99193007578E-01  0.51100000000E-03 0. -1.
</event>
<event>
 8    1  0.1064884E+005  0.1043930E+01  0.7957747E-01            NaN
         13   -1    0    0    0    0  0.00000000000E+00  0.00000000000E+00  0.74505805969E-08  0.10566000000E+00  0.10566000000E+00 0. -1.
     999900   -1    0    0    0    0 -0.00000000000E+00 -0.00000000000E+00 -0.74505805969E-08  0.93827000000E+00  0.93827000000E+00 0. -1.
     999902    2    1    2    0    0  0.78833057203E-04  0.19187739256E-01 -0.13686789157E-01  0.10203608730E+01  0.10200886272E+01 0.  0.
     999903    2    3    3    0    0  0.10955991987E+00 -0.37951047593E-01 -0.57425759868E-01  0.13066202115E+00  0.18198566443E-01 0.  0.
         14    1    1    2    0    0 -0.78833057203E-04 -0.19187739256E-01  0.13686789157E-01  0.23569127049E-01  0.00000000000E+00 0. -1.
     999901    1    3    3    0    0 -0.10948108681E+00  0.57138786850E-01  0.43738970711E-01  0.88969885180E+00  0.88000000000E+00 0.  1.
        -11    1    4    4    0    0  0.46879366398E-01 -0.16068745200E-01 -0.14636852089E-01  0.51675701507E-01  0.51100000000E-03 0.  1.
         11    1    4    4    0    0  0.62680553469E-01 -0.21882302393E-01 -0.42788907779E-01  0.78986319646E-01  0.51100000000E-03 0. -1.
</event>
<event>
 8    1  0.1064884E+005  0.1043930E+01  0.7957747E-01            NaN
         13   -1    0    0    0    0  0.00000000000E+00  0.00000000000E+00  0.74505805969E-08  0.10566000000E+00  0.10566000000E+00 0.  1.
     999900   -1    0    0    0    0 -0.00000000000E+00 -0.00000000000E+00 -0.74505805969E-08  0.93827000000E+00  0.93827000000E+00 0.  1.
     999902    2    1    2    0    0 -0.15875333716E-01  0.74389372624E-02  0.17882538303E-01  0.10188870532E+01  0.10185792448E+01 0.  0.
     999903    2    3    3    0    0  0.12561125845E+00  0.53720471350E-02  0.36097150528E-02  0.12746883414E+00  0.20693634143E-01 0.  0.
         14    1    1    2    0    0  0.15875333716E-01 -0.74389372624E-02 -0.17882538303E-01  0.25042946799E-01  0.00000000000E+00 0. -1.
     999901    1    3    3    0    0 -0.14148659216E+00  0.20668901274E-02  0.14272823251E-01  0.89141821906E+00  0.88000000000E+00 0.  1.
        -11    1    4    4    0    0  0.50834553008E-01  0.29205388006E-02 -0.86561286238E-02  0.51651437639E-01  0.51100000000E-03 0.  1.
         11    1    4    4    0    0  0.74776705440E-01  0.24515083344E-02  0.12265843677E-01  0.75817396497E-01  0.51100000000E-03 0. -1.
</event>
<event>
 8    1  0.1064884E+005  0.1043930E+01  0.7957747E-01            NaN
         13   -1    0    0    0    0  0.00000000000E+00  0.00000000000E+00  0.74505805969E-08  0.10566000000E+00  0.10566000000E+00 0.  1.
     999900   -1    0    0    0    0 -0.00000000000E+00 -0.00000000000E+00 -0.74505805969E-08  0.93827000000E+00  0.93827000000E+00 0.  1.
     999902    2    1    2    0    0 -0.21488222995E-01 -0.34568337273E-02  0.89467454177E-02  0.10203983685E+01  0.10201269984E+01 0.  0.
     999903    2    3    3    0    0 -0.28886921963E-01  0.80434702119E-02  0.12813933395E+00  0.13225768658E+00  0.13162639579E-01 0.  0.
         14    1    1    2    0    0  0.21488222995E-01  0.34568337273E-02 -0.89467454177E-02  0.23531631488E-01  0.00000000000E+00 0.  1.
     999901    1    3    3    0    0  0.73986989675E-02 -0.11500303939E-01 -0.11919258854E+00  0.88814068193E+00  0.88000000000E+00 0.  1.
        -11    1    4    4    0    0 -0.45676732638E-02 -0.29517913817E-02  0.32801558696E-01  0.33253271798E-01  0.51100000000E-03 0.  1.
         11    1    4    4    0    0 -0.24319248699E-01  0.10995261594E-01  0.95337775257E-01  0.99004414784E-01  0.51100000000E-03 0. -1.
</event>
<event>
 7    1  0.1064884E+005  0.1043930E+01  0.7957747E-01            NaN
         13   -1    0    0    0    0  0.00000000000E+00  0.00000000000E+00  0.74505805969E-08  0.10566000000E+00  0.10566000000E+00 0. -1.
     999900   -1    0    0    0    0 -0.00000000000E+00 -0.00000000000E+00 -0.74505805969E-08  0.93827000000E+00  0.93827000000E+00 0. -1.
     999903    2    1    2    0    0  0.90391947864E-01 -0.93332783777E-02  0.34193376879E-01  0.99016542440E-01  0.19423550923E-01 0.  0.
         14    1    1    2    0    0  0.36992858394E-01  0.31292746061E-01 -0.26943856542E-01  0.55440769597E-01  0.00000000000E+00 0.  1.
     999901    1    1    2    0    0 -0.12738480626E+00 -0.21959467683E-01 -0.72495203376E-02  0.88947268796E+00  0.88000000000E+00 0. -1.
        -11    1    3    3    0    0  0.24067099323E-01 -0.10529300904E-01  0.13414026923E-01  0.29500655699E-01  0.51100000000E-03 0. -1.
         11    1    3    3    0    0  0.66324848541E-01  0.11960225263E-02  0.20779349956E-01  0.69515886741E-01  0.51100000000E-03 0.  1.
</event>
<event>
 8    1  0.1064884E+005  0.1043930E+01  0.7957747E-01            NaN
         13   -1    0    0    0    0  0.00000000000E+00  0.00000000000E+00  0.74505805969E-08  0.10566000000E+00  0.10566000000E+00 0.  1.
     999900   -1    0    0    0    0 -0.00000000000E+00 -0.00000000000E+00 -0.74505805969E-08  0.93827000000E+00  0.93827000000E+00 0.  1.
     999902    2    1    2    0    0 -0.15668069757E-01  0.14339342106E-01 -0.28072026142E-02  0.10225060525E+01  0.10222815863E+01 0.  0.
     999903    2    3    3    0    0 -0.12858610767E+00  0.12188490257E-02 -0.34561842305E-01  0.13462599988E+00  0.19843543525E-01 0.  0.
         14    1    1    2    0    0  0.15668069757E-01 -0.14339342106E-01  0.28072026142E-02  0.21423947546E-01  0.00000000000E+00 0.  1.
     999901    1    3    3    0    0  0.11291803792E+00  0.13120493080E-01  0.31754639691E-01  0.88788005258E+00  0.88000000000E+00 0. -1.
        -11    1    4    4    0    0 -0.35665204846E-01 -0.79601703991E-02 -0.13042119511E-01  0.38803726005E-01  0.51100000000E-03 0.  1.
         11    1    4    4    0    0 -0.92920902826E-01  0.91790194248E-02 -0.21519722795E-01  0.95822273870E-01  0.51100000000E-03 0. -1.
</event>
<event>
 8    1  0.1064884E+005  0.1043930E+01  0.7957747E-01            NaN
         13   -1    0    0    0    0  0.00000000000E+00  0.00000000000E+00  0.74505805969E-08  0.10566000000E+00  0.10566000000E+00 0.  1.
     999900   -1    0    0    0    0 -0.00000000000E+00 -0.00000000000E+00 -0.74505805969E-08  0.93827000000E+00  0.93827000000E+00 0.  1.
     999902    2    1    2    0    0  0.74567966202E-02 -0.13593647765E-01 -0.17442451645E-01  0.10205926866E+01  0.10203258312E+01 0.  0.
     999903    2    3    3    0    0  0.12512236530E-01 -0.77102919819E-01 -0.10671430799E+00  0.13378467504E+00  0.20223240024E-01 0.  0.
         14    1    1    2    0    0 -0.74567966202E-02  0.13593647765E-01  0.17442451645E-01  0.23337313359E-01  0.00000000000E+00 0.  1.
     999901    1    3    3    0    0 -0.50554399102E-02  0.63509272054E-01  0.89271856346E-01  0.88680801160E+00  0.88000000000E+00 0. -1.
        -11    1    4    4    0    0  0.14853859959E-01 -0.44603048795E-01 -0.52013018883E-01  0.70111941721E-01  0.51100000000E-03 0. -1.
         11    1    4    4    0    0 -0.23416234290E-02 -0.32499871024E-01 -0.54701289108E-01  0.63672733316E-01  0.51100000000E-03 0.  1.
</event>
<event>
 8    1  0.1064884E+005  0.1043930E+01  0.7957747E-01            NaN
         13   -1    0    0    0    0  0.00000000000E+00  0.00000000000E+00  0.74505805969E-08  0.10566000000E+00  0.10566000000E+00 0.  1.
     999900   -1    0    0    0    0 -0.00000000000E+00 -0.00000000000E+00 -0.74505805969E-08  0.93827000000E+00  0.93827000000E+00 0. -1.
     999902    2    1    2    0    0 -0.15557295068E-01 -0.13161722471E-01  0.85648989355E-02  0.10218252977E+01  0.10215861791E+01 0.  0.
     999903    2    3    3    0    0  0.79563917552E-01 -0.93587607488E-01  0.44398004442E-01  0.13233084609E+00  0.21241769606E-01 0.  0.
         14    1    1    2    0    0  0.15557295068E-01  0.13161722471E-01 -0.85648989355E-02  0.22104702260E-01  0.00000000000E+00 0. -1.
     999901    1    3    3    0    0 -0.95121212620E-01  0.80425885017E-01 -0.35833105507E-01  0.88949445165E+00  0.88000000000E+00 0. -1.
        -11    1    4    4    0    0  0.16049141482E-01 -0.31423324392E-01  0.73640389342E-02  0.36048445855E-01  0.51100000000E-03 0.  1.
         11    1    4    4    0    0  0.63514776071E-01 -0.62164283097E-01  0.37033965508E-01  0.96282400232E-01  0.51100000000E-03 0. -1.
</event>
<event>
 8    1  0.1064884E+005  0.1043930E+01  0.7957747E-01            NaN
         13   -1    0    0    0    0  0.00000000000E+00  0.00000000000E+00  0.74505805969E-08  0.10566000000E+00  0.10566000000E+00 0.  1.
     999900   -1    0    0    0    0 -0.00000000000E+00 -0.00000000000E+00 -0.74505805969E-08  0.93827000000E+00  0.93827000000E+00 0.  1.
     999902    2    1    2    0    0 -0.15061774877E-01 -0.62274740957E-02  0.19331586483E-01  0.10186446538E+01  0.10183307822E+01 0.  0.
     999903    2    3    3    0    0 -0.10387903256E+00  0.62769275594E-01 -0.40206394582E-01  0.12949122053E+00  0.20508209683E-01 0.  0.
         14    1    1    2    0    0  0.15061774877E-01  0.62274740957E-02 -0.19331586483E-01  0.25285346191E-01  0.00000000000E+00 0. -1.
     999901    1    3    3    0    0  0.88817257680E-01 -0.68996749690E-01  0.59537981065E-01  0.88915343328E+00  0.88000000000E+00 0. -1.
        -11    1    4    4    0    0 -0.55413377206E-01  0.34060063872E-01 -0.32240660415E-01  0.72597876204E-01  0.51100000000E-03 0.  1.
         11    1    4    4    0    0 -0.48465655351E-01  0.28709211722E-01 -0.79657341671E-02  0.56893344322E-01  0.51100000000E-03 0. -1.
</event>
<event>
 8    1  0.1064884E+005  0.1043930E+01  0.7957747E-01            NaN
         13   -1    0    0    0    0  0.00000000000E+00  0.00000000000E+00  0.74505805969E-08  0.10566000000E+00  0.10566000000E+00 0.  1.
     999900   -1    0    0    0    0 -0.00000000000E+00 -0.00000000000E+00 -0.74505805969E-08  0.93827000000E+00  0.93827000000E+00 0.  1.
     999902    2    1    2    0    0 -0.11422125121E-01 -0.14721023926E-01 -0.15805973512E-01  0.10194963698E+01  0.10192035350E+01 0.  0.
     999903    2    3    3    0    0 -0.90081391477E-01 -0.23299554757E-01 -0.92623858833E-01  0.13261314246E+00  0.18695988487E-01 0.  0.
         14    1    1    2    0    0  0.11422125121E-01  0.14721023926E-01  0.15805973512E-01  0.24433630233E-01  0.00000000000E+00 0.  1.
     999901    1    3    3    0    0  0.78659266356E-01  0.85785308318E-02  0.76817885322E-01  0.88688322731E+00  0.88000000000E+00 0. -1.
        -11    1    4    4    0    0 -0.26026460921E-01 -0.21798648090E-03 -0.33586490159E-01  0.42493971671E-01  0.51100000000E-03 0. -1.
         11    1    4    4    0    0 -0.64054930555E-01 -0.23081568277E-01 -0.59037368674E-01  0.90119170788E-01  0.51100000000E-03 0.  1.
</event>
<event>
 8    1  0.1064884E+005  0.1043930E+01  0.7957747E-01            NaN
         13   -1    0    0    0    0  0.00000000000E+00  0.00000000000E+00  0.74505805969E-08  0.10566000000E+00  0.10566000000E+00 0. -1.
     999900   -1    0    0    0    0 -0.00000000000E+00 -0.00000000000E+00 -0.74505805969E-08  0.93827000000E+00  0.93827000000E+00 0.  1.
     999902    2    1    2    0    0 -0.21385597897E-01  0.10764639011E-01  0.15849237819E-02  0.10199355583E+01  0.10196532792E+01 0.  0.
     999903    2    3    3    0    0  0.83098390569E-01  0.95819546487E-01  0.17191164072E-01  0.12954530907E+00  0.19993073219E-01 0.  0.
         14    1    1    2    0    0  0.21385597897E-01 -0.10764639011E-01 -0.15849237819E-02  0.23994441728E-01  0.00000000000E+00 0.  1.
     999901    1    3    3    0    0 -0.10448398847E+00 -0.85054907476E-01 -0.15606240290E-01  0.89039024920E+00  0.88000000000E+00 0. -1.
        -11    1    4    4    0    0  0.23384178928E-01  0.15104785928E-01  0.63495609650E-02  0.28557878554E-01  0.51100000000E-03 0. -1.
         11    1    4    4    0    0  0.59714211641E-01  0.80714760559E-01  0.10841603107E-01  0.10098743052E+00  0.51100000000E-03 0.  1.
</event>
<event>
 8    1  0.1064884E+005  0.1043930E+01  0.7957747E-01            NaN
         13   -1    0    0    0    0  0.00000000000E+00  0.00000000000E+00  0.74505805969E-08  0.10566000000E+00  0.10566000000E+00 0.  1.
     999900   -1    0    0    0    0 -0.00000000000E+00 -0.00000000000E+00 -0.74505805969E-08  0.93827000000E+00  0.93827000000E+00 0.  1.
     999902    2    1    2    0    0 -0.69064102639E-02  0.24447523062E-01 -0.48514009001E-02  0.10180665900E+01  0.10177380143E+01 0.  0.
     999903    2    3    3    0    0 -0.35090901706E-01 -0.80810589783E-01  0.88719679626E-01  0.12642250013E+00  0.18701448660E-01 0.  0.
         14    1    1    2    0    0  0.69064102639E-02 -0.24447523062E-01  0.48514009001E-02  0.25863410009E-01  0.00000000000E+00 0. -1.
     999901    1    3    3    0    0  0.28184491442E-01  0.10525811284E+00 -0.93571080526E-01  0.89164408986E+00  0.88000000000E+00 0.  1.
        -11    1    4    4    0    0 -0.17516269472E-01 -0.59095871985E-01  0.66938585787E-01  0.90995478844E-01  0.51100000000E-03 0. -1.
         11    1    4    4    0    0 -0.17574632234E-01 -0.21714717798E-01  0.21781093839E-01  0.35427021284E-01  0.51100000000E-03 0.  1.
</event>
<event>
 8    1  0.1064884E+005  0.1043930E+01  0.7957747E-01            NaN
         13   -1    0    0    0    0  0.00000000000E+00  0.00000000000E+00  0.74505805969E-08  0.10566000000E+00  0.10566000000E+00 0.  1.
     999900   -1    0    0    0    0 -0.00000000000E+00 -0.00000000000E+00 -0.74505805969E-08  0.93827000000E+00  0.93827000000E+00 0.  1.
     999902    2    1    2    0    0  0.17624375385E-01 -0.63034109605E-02 -0.13756227975E-01  0.10207010223E+01  0.10204366671E+01 0.  0.
     999903    2    3    3    0    0 -0.88225400241E-01  0.65574023230E-01  0.62013024377E-01  0.12822608138E+00  0.22641532272E-01 0.  0.
         14    1    1    2    0    0 -0.17624375385E-01  0.63034109605E-02  0.13756227975E-01  0.23228977712E-01  0.00000000000E+00 0.  1.
     999901    1    3    3    0    0  0.10584977563E+00 -0.71877434191E-01 -0.75769252352E-01  0.89247494091E+00  0.88000000000E+00 0.  1.
        -11    1    4    4    0    0 -0.34382925844E-01  0.13154103654E-01  0.16271636087E-01  0.40252245831E-01  0.51100000000E-03 0. -1.
         11    1    4    4    0    0 -0.53842474397E-01  0.52419919576E-01  0.45741388290E-01  0.87973835549E-01  0.51100000000E-03 0.  1.
</event>
<event>
 8    1  0.1064884E+005  0.1043930E+01  0.7957747E-01            NaN
         13   -1    0    0    0    0  0.00000000000E+00  0.00000000000E+00  0.74505805969E-08  0.10566000000E+00  0.10566000000E+00 0. -1.
     999900   -1    0    0    0    0 -0.00000000000E+00 -0.00000000000E+00 -0.74505805969E-08  0.93827000000E+00  0.93827000000E+00 0. -1.
     999902    2    1    2    0    0  0.47077381209E-02  0.20712168685E-01  0.11739901741E-01  0.10196610482E+01  0.10193721946E+01 0.  0.
     999903    2    3    3    0    0  0.81526725128E-01  0.76677124432E-01  0.68470036844E-01  0.13272726188E+00  0.20059705385E-01 0.  0.
         14    1    1    2    0    0 -0.47077381209E-02 -0.20712168685E-01 -0.11739901741E-01  0.24268951826E-01  0.00000000000E+00 0.  1.
     999901    1    3    3    0    0 -0.76818987008E-01 -0.55964955747E-01 -0.56730135103E-01  0.88693378629E+00  0.88000000000E+00 0. -1.
        -11    1    4    4    0    0  0.49162847722E-01  0.36090009982E-01  0.29114913181E-01  0.67582643535E-01  0.51100000000E-03 0.  1.
         11    1    4    4    0    0  0.32363877407E-01  0.40587114449E-01  0.39355123663E-01  0.65144618347E-01  0.51100000000E-03 0. -1.
</event>
<event>
 8    1  0.1064884E+005  0.1043930E+01  0.7957747E-01            NaN
         13   -1    0    0    0    0  0.00000000000E+00  0.00000000000E+00  0.74505805969E-08  0.10566000000E+00  0.10566000000E+00 0. -1.
     999900   -1    0    0    0    0 -0.00000000000E+00 -0.00000000000E+00 -0.74505805969E-08  0.93827000000E+00  0.93827000000E+00 0.  1.
     999902    2    1    2    0    0 -0.12490755093E-01 -0.11816752983E-01 -0.22964630544E-01  0.10152415203E+01  0.10148361028E+01 0.  0.
     999903    2    3    3    0    0  0.37903566469E-01  0.95704636900E-01 -0.69792736839E-01  0.12603214758E+00  0.20421024253E-01 0.  0.
         14    1    1    2    0    0  0.12490755093E-01  0.11816752983E-01  0.22964630544E-01  0.28688479742E-01  0.00000000000E+00 0. -1.
     999901    1    3    3    0    0 -0.50394321562E-01 -0.10752138988E+00  0.46828106295E-01  0.88920937268E+00  0.88000000000E+00 0.  1.
        -11    1    4    4    0    0  0.17323118564E-01  0.51094319217E-01 -0.48265259904E-01  0.72391410593E-01  0.51100000000E-03 0.  1.
         11    1    4    4    0    0  0.20580447905E-01  0.44610317684E-01 -0.21527476935E-01  0.53640736982E-01  0.51100000000E-03 0. -1.
</event>
<event>
 8    1  0.1064884E+005  0.1043930E+01  0.7957747E-01            NaN
         13   -1    0    0    0    0  0.00000000000E+00  0.00000000000E+00  0.74505805969E-08  0.10566000000E+00  0.10566000000E+00 0.  1.
     999900   -1    0    0    0    0 -0.00000000000E+00 -0.00000000000E+00 -0.74505805969E-08  0.93827000000E+00  0.93827000000E+00 0. -1.
     999902    2    1    2    0    0  0.14796922869E-01  0.18084156349E-01 -0.17474657879E-02  0.10204984129E+01  0.10202293720E+01 0.  0.
     999903    2    3    3    0    0  0.15621206678E-01 -0.12144118262E+00 -0.34970125144E-01  0.12888653279E+00  0.19920987653E-01 0.  0.
         14    1    1    2    0    0 -0.14796922869E-01 -0.18084156349E-01  0.17474657879E-02  0.23431587098E-01  0.00000000000E+00 0.  1.
     999901    1    3    3    0    0 -0.82428380830E-03  0.13952533897E+00  0.33222659356E-01  0.89161188011E+00  0.88000000000E+00 0.  1.
        -11    1    4    4    0    0  0.11208454972E-01 -0.62773105275E-01 -0.83631764841E-02  0.64314042406E-01  0.51100000000E-03 0.  1.
         11    1    4    4    0    0  0.44127517058E-02 -0.58668077343E-01 -0.26606948660E-01  0.64572490387E-01  0.51100000000E-03 0. -1.
</event>
<event>
 8    1  0.1064884E+005  0.1043930E+01  0.7957747E-01            NaN
         13   -1    0    0    0    0  0.00000000000E+00  0.00000000000E+00  0.74505805969E-08  0.10566000000E+00  0.10566000000E+00 0. -1.
     999900   -1    0    0    0    0 -0.00000000000E+00 -0.00000000000E+00 -0.74505805969E-08  0.93827000000E+00  0.93827000000E+00 0.  1.
     999902    2    1    2    0    0  0.98102493356E-02 -0.16132640369E-01  0.13527039735E-01  0.10207032077E+01  0.10204389028E+01 0.  0.
     999903    2    3    3    0    0 -0.85906544828E-01 -0.96066534114E-01 -0.17123438369E-01  0.13138291450E+00  0.18961662923E-01 0.  0.
         14    1    1    2    0    0 -0.98102493356E-02  0.16132640369E-01 -0.13527039735E-01  0.23226792316E-01  0.00000000000E+00 0.  1.
     999901    1    3    3    0    0  0.95716794164E-01  0.79933893746E-01  0.30650478104E-01  0.88932029318E+00  0.88000000000E+00 0.  1.
        -11    1    4    4    0    0 -0.13380466924E-01 -0.17314060544E-01 -0.10058064646E-01  0.24088158357E-01  0.51100000000E-03 0. -1.
         11    1    4    4    0    0 -0.72526077905E-01 -0.78752473571E-01 -0.70653737225E-02  0.10729475615E+00  0.51100000000E-03 0.  1.
</event>
<event>
 8    1  0.1064884E+005  0.1043930E+01  0.7957747E-01            NaN
         13   -1    0    0    0    0  0.00000000000E+00  0.00000000000E+00  0.74505805969E-08  0.10566000000E+00  0.10566000000E+00 0. -1.
     999900   -1    0    0    0    0 -0.00000000000E+00 -0.00000000000E+00 -0.74505805969E-08  0.93827000000E+00  0.93827000000E+00 0.  1.
     999902    2    1    2    0    0 -0.23659361632E-01 -0.77222422477E-03 -0.58263838909E-03  0.10202508701E+01  0.10199760472E+01 0.  0.
     999903    2    3    3    0    0 -0.64091195802E-01  0.10768184035E+00 -0.36328861023E-01  0.13195204105E+00  0.19710273338E-01 0.  0.
         14    1    1    2    0    0  0.23659361632E-01  0.77222422477E-03  0.58263838909E-03  0.23679129852E-01  0.00000000000E+00 0. -1.
     999901    1    3    3    0    0  0.40431834171E-01 -0.10845406457E+00  0.35746222634E-01  0.88829882909E+00  0.88000000000E+00 0. -1.
        -11    1    4    4    0    0 -0.33868031003E-01  0.72126297108E-01 -0.28528000291E-01  0.84636600712E-01  0.51100000000E-03 0. -1.
         11    1    4    4    0    0 -0.30223164800E-01  0.35555543239E-01 -0.78008607323E-02  0.47315440341E-01  0.51100000000E-03 0.  1.
</event>
<event>
 8    1  0.1064884E+005  0.1043930E+01  0.7957747E-01            NaN
         13   -1    0    0    0    0  0.00000000000E+00  0.00000000000E+00  0.74505805969E-08  0.10566000000E+00  0.10566000000E+00 0. -1.
     999900   -1    0    0    0    0 -0.00000000000E+00 -0.00000000000E+00 -0.74505805969E-08  0.93827000000E+00  0.93827000000E+00 0.  1.
     999902    2    1    2    0    0  0.57207366968E-02 -0.43415071060E-02  0.19566342585E-01  0.10230873208E+01  0.10228749918E+01 0.  0.
     999903    2    3    3    0    0 -0.11285455393E+00 -0.58531371597E-01  0.35561273565E-01  0.13333877278E+00  0.18776377328E-01 0.  0.
         14    1    1    2    0    0 -0.57207366968E-02  0.43415071060E-02 -0.19566342585E-01  0.20842679158E-01  0.00000000000E+00 0.  1.
     999901    1    3    3    0    0  0.11857529063E+00  0.54189864491E-01 -0.15994930980E-01  0.88974854806E+00  0.88000000000E+00 0.  1.
        -11    1    4    4    0    0 -0.47683685130E-01 -0.16947214161E-01  0.20353065531E-01  0.54547688245E-01  0.51100000000E-03 0. -1.
         11    1    4    4    0    0 -0.65170868799E-01 -0.41584157436E-01  0.15208208034E-01  0.78791084536E-01  0.51100000000E-03 0.  1.
</event>
<event>
 8    1  0.1064884E+005  0.1043930E+01  0.7957747E-01            NaN
         13   -1    0    0    0    0  0.00000000000E+00  0.00000000000E+00  0.74505805969E-08  0.10566000000E+00  0.10566000000E+00 0.  1.
     999900   -1    0    0    0    0 -0.00000000000E+00 -0.00000000000E+00 -0.74505805969E-08  0.93827000000E+00  0.93827000000E+00 0.  1.
     999902    2    1    2    0    0 -0.13145446654E-01 -0.52937405793E-02  0.18720317705E-01  0.10204507165E+01  0.10201805664E+01 0.  0.
     999903    2    3    3    0    0  0.49375974999E-01 -0.50346394321E-02 -0.11616928884E+00  0.12797987597E+00  0.20499036170E-01 0.  0.
         14    1    1    2    0    0  0.13145446654E-01  0.52937405793E-02 -0.18720317705E-01  0.23479283465E-01  0.00000000000E+00 0. -1.
     999901    1    3    3    0    0 -0.62521421653E-01 -0.25910114722E-03  0.13488960654E+00  0.89247084056E+00  0.88000000000E+00 0. -1.
        -11    1    4    4    0    0  0.27105876846E-01  0.74748894114E-02 -0.58795482846E-01  0.65174937325E-01  0.51100000000E-03 0.  1.
         11    1    4    4    0    0  0.22270098153E-01 -0.12509528843E-01 -0.57373805992E-01  0.62804938649E-01  0.51100000000E-03 0. -1.
</event>
<event>
 8    1  0.1064884E+005  0.1043930E+01  0.7957747E-01            NaN
         13   -1    0    0    0    0  0.00000000000E+00  0.00000000000E+00  0.74505805969E-08  0.10566000000E+00  0.10566000000E+00 0. -1.
     999900   -1    0    0    0    0 -0.00000000000E+00 -0.00000000000E+00 -0.74505805969E-08  0.93827000000E+00  0.93827000000E+00 0. -1.
     999902    2    1    2    0    0  0.57962143077E-02  0.70613237429E-02  0.21771700872E-01  0.10203192958E+01  0.10200460774E+01 0.  0.
     999903    2    3    3    0    0  0.84958489004E-01  0.17588586352E-01 -0.92961396931E-01  0.12928552949E+00  0.23358587134E-01 0.  0.
         14    1    1    2    0    0 -0.57962143077E-02 -0.70613237429E-02 -0.21771700872E-01  0.23610704186E-01  0.00000000000E+00 0.  1.
     999901    1    3    3    0    0 -0.79162274696E-01 -0.10527262610E-01  0.11473309780E+00  0.89103376632E+00  0.88000000000E+00 0.  1.
        -11    1    4    4    0    0  0.38192044033E-01  0.93642823868E-02 -0.25808741316E-01  0.47039071647E-01  0.51100000000E-03 0.  1.
         11    1    4    4    0    0  0.46766444971E-01  0.82243039657E-02 -0.67152655616E-01  0.82246457846E-01  0.51100000000E-03 0. -1.
</event>
<event>
 8    1  0.1064884E+005  0.1043930E+01  0.7957747E-01            NaN
         13   -1    0    0    0    0  0.00000000000E+00  0.00000000000E+00  0.74505805969E-08  0.10566000000E+00  0.10566000000E+00 0.  1.
     999900   -1    0    0    0    0 -0.00000000000E+00 -0.00000000000E+00 -0.74505805969E-08  0.93827000000E+00  0.93827000000E+00 0.  1.
     999902    2    1    2    0    0  0.92713326000E-02  0.62043085941E-02 -0.17155970680E-01  0.10234659246E+01  0.10232613158E+01 0.  0.
     999903    2    3    3    0    0  0.75850499002E-01 -0.12846705829E-01 -0.11037818651E+00  0.13583643651E+00  0.18704474799E-01 0.  0.
         14    1    1    2    0    0 -0.92713326000E-02 -0.62043085941E-02  0.17155970680E-01  0.20464075432E-01  0.00000000000E+00 0.  1.
     999901    1    3    3    0    0 -0.66579166402E-01  0.19051014423E-01  0.93222215826E-01  0.88762948806E+00  0.88000000000E+00 0.  1.
        -11    1    4    4    0    0  0.55517778875E-01 -0.13945936668E-01 -0.68523290037E-01  0.89288382891E-01  0.51100000000E-03 0. -1.
         11    1    4    4    0    0  0.20332720127E-01  0.10992308383E-02 -0.41854896468E-01  0.46548053618E-01  0.51100000000E-03 0.  1.
</event>
<event>
 8    1  0.1064884E+005  0.1043930E+01  0.7957747E-01            NaN
         13   -1    0    0    0    0  0.00000000000E+00  0.00000000000E+00  0.74505805969E-08  0.10566000000E+00  0.10566000000E+00 0.  1.
     999900   -1    0    0    0    0 -0.00000000000E+00 -0.00000000000E+00 -0.74505805969E-08  0.93827000000E+00  0.93827000000E+00 0.  1.
     999902    2    1    2    0    0 -0.18561548332E-01  0.69519004919E-02  0.16377178876E-01  0.10182186798E+01  0.10178940063E+01 0.  0.
     999903    2    3    3    0    0 -0.10002626786E+00  0.79940602678E-01  0.21596938601E-01  0.13143172849E+00  0.20300671886E-01 0.  0.
         14    1    1    2    0    0  0.18561548332E-01 -0.69519004919E-02 -0.16377178876E-01  0.25711320170E-01  0.00000000000E+00 0. -1.
     999901    1    3    3    0    0  0.81464719525E-01 -0.72988702186E-01 -0.52197597252E-02  0.88678695134E+00  0.88000000000E+00 0. -1.
        -11    1    4    4    0    0 -0.71248870808E-01  0.51058435803E-01  0.23032258735E-01  0.90631735730E-01  0.51100000000E-03 0. -1.
         11    1    4    4    0    0 -0.28777397049E-01  0.28882166875E-01 -0.14353201336E-02  0.40799992760E-01  0.51100000000E-03 0.  1.
</event>
<event>
 8    1  0.1064884E+005  0.1043930E+01  0.7957747E-01            NaN
         13   -1    0    0    0    0  0.00000000000E+00  0.00000000000E+00  0.74505805969E-08  0.10566000000E+00  0.10566000000E+00 0. -1.
     999900   -1    0    0    0    0 -0.00000000000E+00 -0.00000000000E+00 -0.74505805969E-08  0.93827000000E+00  0.93827000000E+00 0. -1.
     999902    2    1    2    0    0  0.16293952954E-01  0.14881023126E-01  0.30193765903E-01  0.10065321224E+01  0.10058371201E+01 0.  0.
     999903    2    3    3    0    0 -0.46396981681E-01 -0.10402170620E+00  0.70273108477E-02  0.11602401069E+00  0.20952152380E-01 0.  0.
         14    1    1    2    0    0 -0.16293952954E-01 -0.14881023126E-01 -0.30193765903E-01  0.37397877634E-01  0.00000000000E+00 0.  1.
     999901    1    3    3    0    0  0.62690934635E-01  0.11890272932E+00  0.23166455055E-01  0.89050811168E+00  0.88000000000E+00 0.  1.
        -11    1    4    4    0    0 -0.32166277328E-01 -0.49860026624E-01  0.88392212502E-02  0.59992371227E-01  0.51100000000E-03 0.  1.
         11    1    4    4    0    0 -0.14230704353E-01 -0.54161679571E-01 -0.18119104025E-02  0.56031639461E-01  0.51100000000E-03 0. -1.
</event>
<event>
 8    1  0.1064884E+005  0.1043930E+01  0.7957747E-01            NaN
         13   -1    0    0    0    0  0.00000000000E+00  0.00000000000E+00  0.74505805969E-08  0.10566000000E+00  0.10566000000E+00 0. -1.
     999900   -1    0    0    0    0 -0.00000000000E+00 -0.00000000000E+00 -0.74505805969E-08  0.93827000000E+00  0.93827000000E+00 0. -1.
     999902    2    1    2    0    0 -0.12016332866E-01 -0.18459762608E-01 -0.10748754963E-01  0.10194210052E+01  0.10191263391E+01 0.  0.
     999903    2    3    3    0    0  0.17320662156E-01 -0.75182262603E-01 -0.10505212966E+00  0.13208159567E+00  0.21382703803E-01 0.  0.
         14    1    1    2    0    0  0.12016332866E-01  0.18459762608E-01  0.10748754963E-01  0.24508994764E-01  0.00000000000E+00 0. -1.
     999901    1    3    3    0    0 -0.29336995022E-01  0.56722499995E-01  0.94303374697E-01  0.88733940956E+00  0.88000000000E+00 0.  1.
        -11    1    4    4    0    0  0.63773522672E-02 -0.63846735635E-01 -0.81242902913E-01  0.10352655055E+00  0.51100000000E-03 0. -1.
         11    1    4    4    0    0  0.10943309889E-01 -0.11335526969E-01 -0.23809226747E-01  0.28555045128E-01  0.51100000000E-03 0.  1.
</event>
<event>
 8    1  0.1064884E+005  0.1043930E+01  0.7957747E-01            NaN
         13   -1    0    0    0    0  0.00000000000E+00  0.00000000000E+00  0.74505805969E-08  0.10566000000E+00  0.10566000000E+00 0. -1.
     999900   -1    0    0    0    0 -0.00000000000E+00 -0.00000000000E+00 -0.74505805969E-08  0.93827000000E+00  0.93827000000E+00 0.  1.
     999902    2    1    2    0    0 -0.37424068536E-02 -0.25288719566E-01  0.43707538002E-02  0.10179949188E+01  0.10176644960E+01 0.  0.
     999903    2    3    3    0    0 -0.10734791716E+00  0.60090371125E-01  0.27267091960E-01  0.12751867929E+00  0.19572716790E-01 0.  0.
         14    1    1    2    0    0  0.37424068536E-02  0.25288719566E-01 -0.43707538002E-02  0.25935081166E-01  0.00000000000E+00 0.  1.
     999901    1    3    3    0    0  0.10360551031E+00 -0.85379090691E-01 -0.22896338160E-01  0.89047623955E+00  0.88000000000E+00 0.  1.
        -11    1    4    4    0    0 -0.63595338729E-01  0.32125482893E-01  0.25107677722E-01  0.75545154449E-01  0.51100000000E-03 0. -1.
         11    1    4    4    0    0 -0.43752578433E-01  0.27964888232E-01  0.21594142382E-02  0.51973524839E-01  0.51100000000E-03 0.  1.
</event>
<event>
 8    1  0.1064884E+005  0.1043930E+01  0.7957747E-01            NaN
         13   -1    0    0    0    0  0.00000000000E+00  0.00000000000E+00  0.74505805969E-08  0.10566000000E+00  0.10566000000E+00 0.  1.
     999900   -1    0    0    0    0 -0.00000000000E+00 -0.00000000000E+00 -0.74505805969E-08  0.93827000000E+00  0.93827000000E+00 0.  1.
     999902    2    1    2    0    0 -0.14316897688E-01  0.10934030820E-01 -0.15385442813E-01  0.10202395285E+01  0.10199644391E+01 0.  0.
     999903    2    3    3    0    0 -0.12568033003E+00  0.14922390412E-01 -0.35463241885E-01  0.13298486433E+00  0.20226456021E-01 0.  0.
         14    1    1    2    0    0  0.14316897688E-01 -0.10934030820E-01  0.15385442813E-01  0.23690471501E-01  0.00000000000E+00 0.  1.
     999901    1    3    3    0    0  0.11136343234E+00 -0.39883595923E-02  0.20077799072E-01  0.88725466417E+00  0.88000000000E+00 0.  1.
        -11    1    4    4    0    0 -0.80306680300E-01 -0.27232441671E-03 -0.22912657216E-01  0.83513400381E-01  0.51100000000E-03 0.  1.
         11    1    4    4    0    0 -0.45373649731E-01  0.15194714829E-01 -0.12550584669E-01  0.49471463948E-01  0.51100000000E-03 0. -1.
</event>
<event>
 8    1  0.1064884E+005  0.1043930E+01  0.7957747E-01            NaN
         13   -1    0    0    0    0  0.00000000000E+00  0.00000000000E+00  0.74505805969E-08  0.10566000000E+00  0.10566000000E+00 0. -1.
     999900   -1    0    0    0    0 -0.00000000000E+00 -0.00000000000E+00 -0.74505805969E-08  0.93827000000E+00  0.93827000000E+00 0.  1.
     999902    2    1    2    0    0  0.16645484391E-02 -0.19745325073E-01 -0.14105554428E-01  0.10196068577E+01  0.10193166972E+01 0.  0.
     999903    2    3    3    0    0  0.36837440363E-01 -0.67329217848E-01  0.10282316580E+00  0.12990258957E+00  0.20294303715E-01 0.  0.
         14    1    1    2    0    0 -0.16645484391E-02  0.19745325073E-01  0.14105554428E-01  0.24323142262E-01  0.00000000000E+00 0.  1.
     999901    1    3    3    0    0 -0.35172891924E-01  0.47583892774E-01 -0.11692872023E+00  0.88970426817E+00  0.88000000000E+00 0.  1.
        -11    1    4    4    0    0  0.30257178161E-01 -0.42136087609E-01  0.56086763047E-01  0.76399822116E-01  0.51100000000E-03 0. -1.
         11    1    4    4    0    0  0.65802622015E-02 -0.25193130239E-01  0.46736402757E-01  0.53502767457E-01  0.51100000000E-03 0.  1.
</event>
<event>
 8    1  0.1064884E+005  0.1043930E+01  0.7957747E-01            NaN
         13   -1    0    0    0    0  0.00000000000E+00  0.00000000000E+00  0.74505805969E-08  0.10566000000E+00  0.10566000000E+00 0.  1.
     999900   -1    0    0    0    0 -0.00000000000E+00 -0.00000000000E+00 -0.74505805969E-08  0.93827000000E+00  0.93827000000E+00 0. -1.
     999902    2    1    2    0    0  0.62984099599E-02 -0.92898273580E-02 -0.21145492098E-01  0.10199904366E+01  0.10197094626E+01 0.  0.
     999903    2    3    3    0    0  0.82341855527E-01  0.67608355081E-01  0.69386228865E-01  0.12875986677E+00  0.20336757020E-01 0.  0.
         14    1    1    2    0    0 -0.62984099599E-02  0.92898273580E-02  0.21145492098E-01  0.23939563413E-01  0.00000000000E+00 0.  1.
     999901    1    3    3    0    0 -0.76043445567E-01 -0.76898182439E-01 -0.90531720962E-01  0.89123056982E+00  0.88000000000E+00 0.  1.
        -11    1    4    4    0    0  0.16061778714E-01  0.18704498481E-01  0.25315266939E-01  0.35340668643E-01  0.51100000000E-03 0.  1.
         11    1    4    4    0    0  0.66280076813E-01  0.48903856600E-01  0.44070961925E-01  0.93419198127E-01  0.51100000000E-03 0. -1.
</event>
<event>
 7    1  0.1064884E+005  0.1043930E+01  0.7957747E-01            NaN
         13   -1    0    0    0    0  0.00000000000E+00  0.00000000000E+00  0.74505805969E-08  0.10566000000E+00  0.10566000000E+00 0.  1.
     999900   -1    0    0    0    0 -0.00000000000E+00 -0.00000000000E+00 -0.74505805969E-08  0.93827000000E+00  0.93827000000E+00 0. -1.
     999903    2    1    2    0    0 -0.90470684674E-01 -0.37680945509E-01 -0.45612618340E-01  0.10995477656E+00  0.20118237908E-01 0.  0.
         14    1    1    2    0    0 -0.26282513205E-01  0.25867078967E-01  0.27498650620E-01  0.46000565873E-01  0.00000000000E+00 0.  1.
     999901    1    1    2    0    0  0.11675319788E+00  0.11813866542E-01  0.18113967719E-01  0.88797465757E+00  0.88000000000E+00 0. -1.
        -11    1    3    3    0    0 -0.63724375431E-01 -0.30201063132E-01 -0.23123477396E-01  0.74214934927E-01  0.51100000000E-03 0.  1.
         11    1    3    3    0    0 -0.26746309243E-01 -0.74798823771E-02 -0.22489140943E-01  0.35739841632E-01  0.51100000000E-03 0. -1.
</event>
<event>
 8    1  0.1064884E+005  0.1043930E+01  0.7957747E-01            NaN
         13   -1    0    0    0    0  0.00000000000E+00  0.00000000000E+00  0.74505805969E-08  0.10566000000E+00  0.10566000000E+00 0. -1.
     999900   -1    0    0    0    0 -0.00000000000E+00 -0.00000000000E+00 -0.74505805969E-08  0.93827000000E+00  0.93827000000E+00 0.  1.
     999902    2    1    2    0    0 -0.11244368802E-01 -0.11861115817E-01  0.16730816798E-01  0.10205410682E+01  0.10202730173E+01 0.  0.
     999903    2    3    3    0    0  0.54187427188E-01 -0.39853136027E-01  0.11251962989E+00  0.13248680760E+00  0.19171263951E-01 0.  0.
         14    1    1    2    0    0  0.11244368802E-01  0.11861115817E-01 -0.16730816798E-01  0.23388931761E-01  0.00000000000E+00 0.  1.
     999901    1    3    3    0    0 -0.65431795990E-01  0.27992020210E-01 -0.95788813092E-01  0.88805426064E+00  0.88000000000E+00 0.  1.
        -11    1    4    4    0    0  0.49211901512E-01 -0.29953254166E-01  0.83748888944E-01  0.10165208412E+00  0.51100000000E-03 0.  1.
         11    1    4    4    0    0  0.49755256759E-02 -0.98998818603E-02  0.28770740947E-01  0.30834723482E-01  0.51100000000E-03 0. -1.
</event>
<event>
 8    1  0.1064884E+005  0.1043930E+01  0.7957747E-01            NaN
         13   -1    0    0    0    0  0.00000000000E+00  0.00000000000E+00  0.74505805969E-08  0.10566000000E+00  0.10566000000E+00 0.  1.
     999900   -1    0    0    0    0 -0.00000000000E+00 -0.00000000000E+00 -0.74505805969E-08  0.93827000000E+00  0.93827000000E+00 0. -1.
     999902    2    1    2    0    0 -0.53322819664E-03 -0.12212236557E-01 -0.19287348926E-01  0.10210952703E+01  0.10208399121E+01 0.  0.
     999903    2    3    3    0    0  0.10591574296E+00 -0.76384267055E-01 -0.60109626723E-02  0.13226137385E+00  0.20105682815E-01 0.  0.
         14    1    1    2    0    0  0.53322819664E-03  0.12212236557E-01  0.19287348926E-01  0.22834729748E-01  0.00000000000E+00 0.  1.
     999901    1    3    3    0    0 -0.10644897115E+00  0.64172030498E-01 -0.13276386254E-01  0.88883389640E+00  0.88000000000E+00 0.  1.
        -11    1    4    4    0    0  0.57545347700E-01 -0.30620879414E-01  0.18186957438E-02  0.65212530032E-01  0.51100000000E-03 0.  1.
         11    1    4    4    0    0  0.48370395256E-01 -0.45763387641E-01 -0.78296584162E-02  0.67048843820E-01  0.51100000000E-03 0. -1.
</event>
<event>
 8    1  0.1064884E+005  0.1043930E+01  0.7957747E-01            NaN
         13   -1    0    0    0    0  0.00000000000E+00  0.00000000000E+00  0.74505805969E-08  0.10566000000E+00  0.10566000000E+00 0.  1.
     999900   -1    0    0    0    0 -0.00000000000E+00 -0.00000000000E+00 -0.74505805969E-08  0.93827000000E+00  0.93827000000E+00 0.  1.
     999902    2    1    2    0    0  0.84574409060E-02  0.15663630906E-01 -0.15249137602E-01  0.10204904216E+01  0.10202211950E+01 0.  0.
     999903    2    3    3    0    0  0.38540360139E-01 -0.92746074004E-01 -0.81736170943E-01  0.13083983186E+00  0.18736764885E-01 0.  0.
         14    1    1    2    0    0 -0.84574409060E-02 -0.15663630906E-01  0.15249137602E-01  0.23439578440E-01  0.00000000000E+00 0.  1.
     999901    1    3    3    0    0 -0.30082919233E-01  0.10840970491E+00  0.66487033341E-01  0.88965058970E+00  0.88000000000E+00 0. -1.
        -11    1    4    4    0    0  0.20036183923E-01 -0.47611434694E-01 -0.53969817215E-01  0.74708096423E-01  0.51100000000E-03 0.  1.
         11    1    4    4    0    0  0.18504176216E-01 -0.45134639310E-01 -0.27766353728E-01  0.56131735439E-01  0.51100000000E-03 0. -1.
</event>
<event>
 8    1  0.1064884E+005  0.1043930E+01  0.7957747E-01            NaN
         13   -1    0    0    0    0  0.00000000000E+00  0.00000000000E+00  0.74505805969E-08  0.10566000000E+00  0.10566000000E+00 0.  1.
     999900   -1    0    0    0    0 -0.00000000000E+00 -0.00000000000E+00 -0.74505805969E-08  0.93827000000E+00  0.93827000000E+00 0.  1.
     999902    2    1    2    0    0 -0.16343379818E-02 -0.10925500620E-01  0.20702287979E-01  0.10204646564E+01  0.10201948307E+01 0.  0.
     999903    2    3    3    0    0  0.11752544611E+00 -0.48284798212E-01 -0.22267688624E-01  0.13061006703E+00  0.20481392355E-01 0.  0.
         14    1    1    2    0    0  0.16343379818E-02  0.10925500620E-01 -0.20702287979E-01  0.23465343637E-01  0.00000000000E+00 0. -1.
     999901    1    3    3    0    0 -0.11915978409E+00  0.37359297592E-01  0.42969976604E-01  0.88985458933E+00  0.88000000000E+00 0.  1.
        -11    1    4    4    0    0  0.47445099390E-01 -0.21456189001E-01  0.87372035446E-03  0.52080994718E-01  0.51100000000E-03 0.  1.
         11    1    4    4    0    0  0.70080346717E-01 -0.26828609210E-01 -0.23141408979E-01  0.78529072315E-01  0.51100000000E-03 0. -1.
</event>
<event>
 8    1  0.1064884E+005  0.1043930E+01  0.7957747E-01            NaN
         13   -1    0    0    0    0  0.00000000000E+00  0.00000000000E+00  0.74505805969E-08  0.10566000000E+00  0.10566000000E+00 0.  1.
     999900   -1    0    0    0    0 -0.00000000000E+00 -0.00000000000E+00 -0.74505805969E-08  0.93827000000E+00  0.93827000000E+00 0. -1.
     999902    2    1    2    0    0  0.17211733314E-01  0.12259398751E-01 -0.91951485638E-02  0.10208846669E+01  0.10206245224E+01 0.  0.
     999903    2    3    3    0    0 -0.34302215916E-01  0.12597909445E+00 -0.55695750384E-02  0.13206578717E+00  0.19051974161E-01 0.  0.
         14    1    1    2    0    0 -0.17211733314E-01 -0.12259398751E-01  0.91951485638E-02  0.23045333118E-01  0.00000000000E+00 0. -1.
     999901    1    3    3    0    0  0.51513949229E-01 -0.11371969570E+00 -0.36255735253E-02  0.88881887972E+00  0.88000000000E+00 0. -1.
        -11    1    4    4    0    0 -0.22208556261E-01  0.67877797474E-01  0.57337053764E-02  0.71650204881E-01  0.51100000000E-03 0. -1.
         11    1    4    4    0    0 -0.12093659654E-01  0.58101296974E-01 -0.11303280415E-01  0.60415582286E-01  0.51100000000E-03 0.  1.
</event>
<event>
 8    1  0.1064884E+005  0.1043930E+01  0.7957747E-01            NaN
         13   -1    0    0    0    0  0.00000000000E+00  0.00000000000E+00  0.74505805969E-08  0.10566000000E+00  0.10566000000E+00 0.  1.
     999900   -1    0    0    0    0 -0.00000000000E+00 -0.00000000000E+00 -0.74505805969E-08  0.93827000000E+00  0.93827000000E+00 0.  1.
     999902    2    1    2    0    0 -0.17482101331E-01 -0.11533188822E-01 -0.95492732701E-02  0.10209120303E+01  0.10206525102E+01 0.  0.
     999903    2    3    3    0    0 -0.23171517295E-01  0.92173766201E-01 -0.88205051937E-01  0.13131985769E+00  0.20781035724E-01 0.  0.
         14    1    1    2    0    0  0.17482101331E-01  0.11533188822E-01  0.95492732701E-02  0.23017969748E-01  0.00000000000E+00 0.  1.
     999901    1    3    3    0    0  0.56894159641E-02 -0.10370695502E+00  0.78655778667E-01  0.88959217257E+00  0.88000000000E+00 0. -1.
        -11    1    4    4    0    0 -0.19030410963E-01  0.34142423187E-01 -0.34330526425E-01  0.52026029717E-01  0.51100000000E-03 0. -1.
         11    1    4    4    0    0 -0.41411063319E-02  0.58031343014E-01 -0.53874525512E-01  0.79293827968E-01  0.51100000000E-03 0.  1.
</event>
<event>
 8    1  0.1064884E+005  0.1043930E+01  0.7957747E-01            NaN
         13   -1    0    0    0    0  0.00000000000E+00  0.00000000000E+00  0.74505805969E-08  0.10566000000E+00  0.10566000000E+00 0. -1.
     999900   -1    0    0    0    0 -0.00000000000E+00 -0.00000000000E+00 -0.74505805969E-08  0.93827000000E+00  0.93827000000E+00 0. -1.
     999902    2    1    2    0    0  0.40096178144E-02 -0.19332677502E-01 -0.12868149938E-01  0.10203626765E+01  0.10200904729E+01 0.  0.
     999903    2    3    3    0    0 -0.46569631805E-01 -0.10935670174E+00 -0.57224069195E-01  0.13321554495E+00  0.18551778847E-01 0.  0.
         14    1    1    2    0    0 -0.40096178144E-02  0.19332677502E-01  0.12868149938E-01  0.23567323506E-01  0.00000000000E+00 0. -1.
     999901    1    3    3    0    0  0.50579249619E-01  0.90024024242E-01  0.44355919258E-01  0.88714713154E+00  0.88000000000E+00 0. -1.
        -11    1    4    4    0    0 -0.43024400797E-01 -0.10720775134E+00 -0.57480752270E-01  0.12903061270E+00  0.51100000000E-03 0.  1.
         11    1    4    4    0    0 -0.35452310076E-02 -0.21489504045E-02  0.25668307483E-03  0.41849322503E-02  0.51100000000E-03 0. -1.
</event>
<event>
 8    1  0.1064884E+005  0.1043930E+01  0.7957747E-01            NaN
         13   -1    0    0    0    0  0.00000000000E+00  0.00000000000E+00  0.74505805969E-08  0.10566000000E+00  0.10566000000E+00 0. -1.
     999900   -1    0    0    0    0 -0.00000000000E+00 -0.00000000000E+00 -0.74505805969E-08  0.93827000000E+00  0.93827000000E+00 0. -1.
     999902    2    1    2    0    0  0.15213849415E-01 -0.14600881067E-01 -0.12277725036E-01  0.10195293960E+01  0.10192373619E+01 0.  0.
     999903    2    3    3    0    0  0.46052222211E-01  0.10634479122E+00 -0.54653536792E-01  0.12971224049E+00  0.20204812725E-01 0.  0.
         14    1    1    2    0    0 -0.15213849415E-01  0.14600881067E-01  0.12277725036E-01  0.24400603968E-01  0.00000000000E+00 0.  1.
     999901    1    3    3    0    0 -0.30838372796E-01 -0.12094567229E+00  0.42375811756E-01  0.88981715555E+00  0.88000000000E+00 0.  1.
        -11    1    4    4    0    0  0.20169905202E-01  0.67240580465E-01 -0.26648473799E-01  0.75090099307E-01  0.51100000000E-03 0. -1.
         11    1    4    4    0    0  0.25882317009E-01  0.39104210758E-01 -0.28005062993E-01  0.54622141179E-01  0.51100000000E-03 0.  1.
</event>
<event>
 8    1  0.1064884E+005  0.1043930E+01  0.7957747E-01            NaN
         13   -1    0    0    0    0  0.00000000000E+00  0.00000000000E+00  0.74505805969E-08  0.10566000000E+00  0.10566000000E+00 0. -1.
     999900   -1    0    0    0    0 -0.00000000000E+00 -0.00000000000E+00 -0.74505805969E-08  0.93827000000E+00  0.93827000000E+00 0. -1.
     999902    2    1    2    0    0  0.20383375697E-01  0.10858034371E-01  0.41404290848E-02  0.10204667933E+01  0.10201970173E+01 0.  0.
     999903    2    3    3    0    0  0.45811226938E-01 -0.10231830663E+00  0.64009265836E-01  0.13083780469E+00  0.21298841209E-01 0.  0.
         14    1    1    2    0    0 -0.20383375697E-01 -0.10858034371E-01 -0.41404290848E-02  0.23463206690E-01  0.00000000000E+00 0.  1.
     999901    1    3    3    0    0 -0.25427851241E-01  0.11317634100E+00 -0.59868836751E-01  0.88962898862E+00  0.88000000000E+00 0. -1.
        -11    1    4    4    0    0  0.26082007512E-01 -0.79629466061E-01  0.43251512314E-01  0.94297812379E-01  0.51100000000E-03 0. -1.
         11    1    4    4    0    0  0.19729219425E-01 -0.22688840572E-01  0.20757753522E-01  0.36539992309E-01  0.51100000000E-03 0.  1.
</event>
<event>
 8    1  0.1064884E+005  0.1043930E+01  0.7957747E-01            NaN
         13   -1    0    0    0    0  0.00000000000E+00  0.00000000000E+00  0.74505805969E-08  0.10566000000E+00  0.10566000000E+00 0. -1.
     999900   -1    0    0    0    0 -0.00000000000E+00 -0.00000000000E+00 -0.74505805969E-08  0.93827000000E+00  0.93827000000E+00 0. -1.
     999902    2    1    2    0    0 -0.81835127006E-03 -0.19498144120E-01  0.13921788308E-01  0.10199578597E+01  0.10196761113E+01 0.  0.
     999903    2    3    3    0    0 -0.43873158478E-01  0.99861779894E-01 -0.63756823123E-01  0.12747005887E+00  0.16924960697E-01 0.  0.
         14    1    1    2    0    0  0.81835127006E-03  0.19498144120E-01 -0.13921788308E-01  0.23972140343E-01  0.00000000000E+00 0.  1.
     999901    1    3    3    0    0  0.43054807208E-01 -0.11935992401E+00  0.77678611431E-01  0.89248780079E+00  0.88000000000E+00 0.  1.
        -11    1    4    4    0    0 -0.19159228497E-01  0.63606213806E-01 -0.40577878193E-01  0.77843765267E-01  0.51100000000E-03 0. -1.
         11    1    4    4    0    0 -0.24713929981E-01  0.36255566088E-01 -0.23178944930E-01  0.49626293600E-01  0.51100000000E-03 0.  1.
</event>
<event>
 8    1  0.1064884E+005  0.1043930E+01  0.7957747E-01            NaN
         13   -1    0    0    0    0  0.00000000000E+00  0.00000000000E+00  0.74505805969E-08  0.10566000000E+00  0.10566000000E+00 0.  1.
     999900   -1    0    0    0    0 -0.00000000000E+00 -0.00000000000E+00 -0.74505805969E-08  0.93827000000E+00  0.93827000000E+00 0.  1.
     999902    2    1    2    0    0 -0.15039329664E-01  0.28806041870E-02 -0.16882078569E-01  0.10211378107E+01  0.10208834138E+01 0.  0.
     999903    2    3    3    0    0  0.10679929884E+00 -0.12253879037E-01  0.67061382393E-01  0.12865800216E+00  0.22347365091E-01 0.  0.
         14    1    1    2    0    0  0.15039329664E-01 -0.28806041870E-02  0.16882078569E-01  0.22792189321E-01  0.00000000000E+00 0. -1.
     999901    1    3    3    0    0 -0.12183862851E+00  0.15134483224E-01 -0.83943460962E-01  0.89247980852E+00  0.88000000000E+00 0.  1.
        -11    1    4    4    0    0  0.89091096766E-01 -0.18395176052E-01  0.53761320918E-01  0.10566998993E+00  0.51100000000E-03 0.  1.
         11    1    4    4    0    0  0.17708202075E-01  0.61412970145E-02  0.13300061476E-01  0.22988012224E-01  0.51100000000E-03 0. -1.
</event>
<event>
 8    1  0.1064884E+005  0.1043930E+01  0.7957747E-01            NaN
         13   -1    0    0    0    0  0.00000000000E+00  0.00000000000E+00  0.74505805969E-08  0.10566000000E+00  0.10566000000E+00 0. -1.
     999900   -1    0    0    0    0 -0.00000000000E+00 -0.00000000000E+00 -0.74505805969E-08  0.93827000000E+00  0.93827000000E+00 0.  1.
     999902    2    1    2    0    0  0.14142604802E-01 -0.17518263820E-01  0.78399668961E-02  0.10200895319E+01  0.10198109066E+01 0.  0.
     999903    2    3    3    0    0 -0.10038169900E+00  0.44467094512E-01 -0.62265594990E-01  0.12774834681E+00  0.19718717142E-01 0.  0.
         14    1    1    2    0    0 -0.14142604802E-01  0.17518263820E-01 -0.78399668961E-02  0.23840468090E-01  0.00000000000E+00 0.  1.
     999901    1    3    3    0    0  0.11452430380E+00 -0.61985358332E-01  0.70105561886E-01  0.89234118509E+00  0.88000000000E+00 0.  1.
        -11    1    4    4    0    0 -0.67655226367E-01  0.21742487717E-01 -0.33258608401E-01  0.78462485181E-01  0.51100000000E-03 0.  1.
         11    1    4    4    0    0 -0.32726472634E-01  0.22724606795E-01 -0.29006986589E-01  0.49285861634E-01  0.51100000000E-03 0. -1.
</event>
<event>
 8    1  0.1064884E+005  0.1043930E+01  0.7957747E-01            NaN
         13   -1    0    0    0    0  0.00000000000E+00  0.00000000000E+00  0.74505805969E-08  0.10566000000E+00  0.10566000000E+00 0. -1.
     999900   -1    0    0    0    0 -0.00000000000E+00 -0.00000000000E+00 -0.74505805969E-08  0.93827000000E+00  0.93827000000E+00 0. -1.
     999902    2    1    2    0    0  0.16514768354E-01  0.14065363958E-01 -0.10478220636E-01  0.10198392311E+01  0.10195546539E+01 0.  0.
     999903    2    3    3    0    0  0.72195708837E-01 -0.10605382652E+00  0.35545804269E-02  0.12982467700E+00  0.19549353478E-01 0.  0.
         14    1    1    2    0    0 -0.16514768354E-01 -0.14065363958E-01  0.10478220636E-01  0.24090768870E-01  0.00000000000E+00 0. -1.
     999901    1    3    3    0    0 -0.55680940483E-01  0.12011919048E+00 -0.14032801063E-01  0.89001455413E+00  0.88000000000E+00 0.  1.
        -11    1    4    4    0    0  0.31918681355E-01 -0.31188319015E-01 -0.15664982664E-02  0.44656785601E-01  0.51100000000E-03 0.  1.
         11    1    4    4    0    0  0.40277027482E-01 -0.74865507510E-01  0.51210786934E-02  0.85167891400E-01  0.51100000000E-03 0. -1.
</event>
<event>
 8    1  0.1064884E+005  0.1043930E+01  0.7957747E-01            NaN
         13   -1    0    0    0    0  0.00000000000E+00  0.00000000000E+00  0.74505805969E-08  0.10566000000E+00  0.10566000000E+00 0.  1.
     999900   -1    0    0    0    0 -0.00000000000E+00 -0.00000000000E+00 -0.74505805969E-08  0.93827000000E+00  0.93827000000E+00 0.  1.
     999902    2    1    2    0    0 -0.22651351128E-01 -0.96660687545E-02  0.26842046451E-03  0.10193009797E+01  0.10190033849E+01 0.  0.
     999903    2    3    3    0    0  0.23520908100E-01  0.78783934945E-01 -0.96529720138E-01  0.12838843586E+00  0.20136088762E-01 0.  0.
         14    1    1    2    0    0  0.22651351128E-01  0.96660687545E-02 -0.26842046451E-03  0.24629020335E-01  0.00000000000E+00 0.  1.
     999901    1    3    3    0    0 -0.46172259228E-01 -0.88450003699E-01  0.96798140603E-01  0.89091254380E+00  0.88000000000E+00 0. -1.
        -11    1    4    4    0    0  0.25427468019E-01  0.73056046663E-01 -0.94213394921E-01  0.12190228459E+00  0.51100000000E-03 0. -1.
         11    1    4    4    0    0 -0.19065599192E-02  0.57278882821E-02 -0.23163252176E-02  0.64861512788E-02  0.51100000000E-03 0.  1.
</event>
<event>
 8    1  0.1064884E+005  0.1043930E+01  0.7957747E-01            NaN
         13   -1    0    0    0    0  0.00000000000E+00  0.00000000000E+00  0.74505805969E-08  0.10566000000E+00  0.10566000000E+00 0. -1.
     999900   -1    0    0    0    0 -0.00000000000E+00 -0.00000000000E+00 -0.74505805969E-08  0.93827000000E+00  0.93827000000E+00 0.  1.
     999902    2    1    2    0    0  0.17044580947E-01 -0.59255475752E-02  0.13011349217E-01  0.10216830887E+01  0.10214408493E+01 0.  0.
     999903    2    3    3    0    0 -0.12629970155E+00 -0.20078580882E-01  0.12154498882E-01  0.12997202235E+00  0.19754258491E-01 0.  0.
         14    1    1    2    0    0 -0.17044580947E-01  0.59255475752E-02 -0.13011349217E-01  0.22246911295E-01  0.00000000000E+00 0. -1.
     999901    1    3    3    0    0  0.14334428249E+00  0.14153033307E-01  0.85685033487E-03  0.89171106636E+00  0.88000000000E+00 0. -1.
        -11    1    4    4    0    0 -0.76340183829E-01 -0.37425875015E-02  0.12237048031E-01  0.77406957657E-01  0.51100000000E-03 0. -1.
         11    1    4    4    0    0 -0.49959517718E-01 -0.16335993381E-01 -0.82549149334E-04  0.52565064688E-01  0.51100000000E-03 0.  1.
</event>
<event>
 8    1  0.1064884E+005  0.1043930E+01  0.7957747E-01            NaN
         13   -1    0    0    0    0  0.00000000000E+00  0.00000000000E+00  0.74505805969E-08  0.10566000000E+00  0.10566000000E+00 0.  1.
     999900   -1    0    0    0    0 -0.00000000000E+00 -0.00000000000E+00 -0.74505805969E-08  0.93827000000E+00  0.93827000000E+00 0.  1.
     999902    2    1    2    0    0 -0.19092777616E-01 -0.93938254656E-03  0.13858785432E-01  0.10203189320E+01  0.10200457051E+01 0.  0.
     999903    2    3    3    0    0  0.24918581184E-01  0.11427000741E+00  0.54883793338E-01  0.13077227530E+00  0.20262944849E-01 0.  0.
         14    1    1    2    0    0  0.19092777616E-01  0.93938254656E-03 -0.13858785432E-01  0.23611067962E-01  0.00000000000E+00 0. -1.
     999901    1    3    3    0    0 -0.44011358801E-01 -0.11520938996E+00 -0.41025007906E-01  0.88954665674E+00  0.88000000000E+00 0.  1.
        -11    1    4    4    0    0  0.14618757234E-01  0.84355893239E-01  0.48815921973E-01  0.98553945361E-01  0.51100000000E-03 0. -1.
         11    1    4    4    0    0  0.10299823951E-01  0.29914114173E-01  0.60678713651E-02  0.32218329939E-01  0.51100000000E-03 0.  1.
</event>
<event>
 8    1  0.1064884E+005  0.1043930E+01  0.7957747E-01            NaN
         13   -1    0    0    0    0  0.00000000000E+00  0.00000000000E+00  0.74505805969E-08  0.10566000000E+00  0.10566000000E+00 0. -1.
     999900   -1    0    0    0    0 -0.00000000000E+00 -0.00000000000E+00 -0.74505805969E-08  0.93827000000E+00  0.93827000000E+00 0. -1.
     999902    2    1    2    0    0 -0.17974434329E-01  0.12002630284E-01  0.10647662146E-01  0.10198360976E+01  0.10195514454E+01 0.  0.
     999903    2    3    3    0    0  0.33349982610E-01  0.73640122752E-01 -0.98890964417E-01  0.12942490779E+00  0.20887673249E-01 0.  0.
         14    1    1    2    0    0  0.17974434329E-01 -0.12002630284E-01 -0.10647662146E-01  0.24093902389E-01  0.00000000000E+00 0. -1.
     999901    1    3    3    0    0 -0.51324416939E-01 -0.61637492468E-01  0.10953862656E+00  0.89041118982E+00  0.88000000000E+00 0.  1.
        -11    1    4    4    0    0  0.19076956508E-01  0.59130897033E-01 -0.65235916425E-01  0.90090949415E-01  0.51100000000E-03 0. -1.
         11    1    4    4    0    0  0.14273026102E-01  0.14509225719E-01 -0.33655047991E-01  0.39333958374E-01  0.51100000000E-03 0.  1.
</event>
<event>
 8    1  0.1064884E+005  0.1043930E+01  0.7957747E-01            NaN
         13   -1    0    0    0    0  0.00000000000E+00  0.00000000000E+00  0.74505805969E-08  0.10566000000E+00  0.10566000000E+00 0.  1.
     999900   -1    0    0    0    0 -0.00000000000E+00 -0.00000000000E+00 -0.74505805969E-08  0.93827000000E+00  0.93827000000E+00 0. -1.
     999902    2    1    2    0    0 -0.18881328263E-02 -0.19088165905E-01 -0.13840610954E-01  0.10202765513E+01  0.10200023311E+01 0.  0.
     999903    2    3    3    0    0 -0.42786031042E-02  0.72262820686E-01 -0.10674861593E+00  0.13067966818E+00  0.21016350152E-01 0.  0.
         14    1    1    2    0    0  0.18881328263E-02  0.19088165905E-01  0.13840610954E-01  0.23653448687E-01  0.00000000000E+00 0.  1.
     999901    1    3    3    0    0  0.23904702779E-02 -0.91350986591E-01  0.92908004975E-01  0.88959688314E+00  0.88000000000E+00 0.  1.
        -11    1    4    4    0    0  0.60852136916E-02  0.27302724134E-01 -0.29184553334E-01  0.40428552350E-01  0.51100000000E-03 0. -1.
         11    1    4    4    0    0 -0.10363816796E-01  0.44960096553E-01 -0.77564062595E-01  0.90251115826E-01  0.51100000000E-03 0.  1.
</event>
<event>
 8    1  0.1064884E+005  0.1043930E+01  0.7957747E-01            NaN
         13   -1    0    0    0    0  0.00000000000E+00  0.00000000000E+00  0.74505805969E-08  0.10566000000E+00  0.10566000000E+00 0. -1.
     999900   -1    0    0    0    0 -0.00000000000E+00 -0.00000000000E+00 -0.74505805969E-08  0.93827000000E+00  0.93827000000E+00 0.  1.
     999902    2    1    2    0    0 -0.18752997513E-02  0.16278950910E-01  0.60981921104E-02  0.10264454657E+01  0.10262965386E+01 0.  0.
     999903    2    3    3    0    0 -0.10729240778E+00  0.14270793510E-01 -0.79911085896E-01  0.13598805783E+00  0.19790247839E-01 0.  0.
         14    1    1    2    0    0  0.18752997513E-02 -0.16278950910E-01 -0.60981921104E-02  0.17484534278E-01  0.00000000000E+00 0.  1.
     999901    1    3    3    0    0  0.10541710803E+00  0.20081574004E-02  0.86009278007E-01  0.89045740789E+00  0.88000000000E+00 0.  1.
        -11    1    4    4    0    0 -0.16624777132E-01  0.68507463541E-02 -0.66280383076E-02  0.19170496944E-01  0.51100000000E-03 0. -1.
         11    1    4    4    0    0 -0.90667630648E-01  0.74200471555E-02 -0.73283047589E-01  0.11681756089E+00  0.51100000000E-03 0.  1.
</event>
<event>
 8    1  0.1064884E+005  0.1043930E+01  0.7957747E-01            NaN
         13   -1    0    0    0    0  0.00000000000E+00  0.00000000000E+00  0.74505805969E-08  0.10566000000E+00  0.10566000000E+00 0. -1.
     999900   -1    0    0    0    0 -0.00000000000E+00 -0.00000000000E+00 -0.74505805969E-08  0.93827000000E+00  0.93827000000E+00 0. -1.
     999902    2    1    2    0    0  0.13623919657E-01  0.19542906621E-01  0.17346781009E-02  0.10200439058E+01  0.10197642004E+01 0.  0.
     999903    2    3    3    0    0  0.15707941363E-01 -0.12354790528E+00 -0.22373994853E-01  0.12815795366E+00  0.20323413076E-01 0.  0.
         14    1    1    2    0    0 -0.13623919657E-01 -0.19542906621E-01 -0.17346781009E-02  0.23886094158E-01  0.00000000000E+00 0.  1.
     999901    1    3    3    0    0 -0.20840217060E-02  0.14309081190E+00  0.24108672954E-01  0.89188595219E+00  0.88000000000E+00 0.  1.
        -11    1    4    4    0    0  0.10435289549E-01 -0.39477402395E-01 -0.15358175438E-01  0.43629064185E-01  0.51100000000E-03 0.  1.
         11    1    4    4    0    0  0.52726518136E-02 -0.84070502883E-01 -0.70158194151E-02  0.84528889471E-01  0.51100000000E-03 0. -1.
</event>
<event>
 8    1  0.1064884E+005  0.1043930E+01  0.7957747E-01            NaN
         13   -1    0    0    0    0  0.00000000000E+00  0.00000000000E+00  0.74505805969E-08  0.10566000000E+00  0.10566000000E+00 0. -1.
     999900   -1    0    0    0    0 -0.00000000000E+00 -0.00000000000E+00 -0.74505805969E-08  0.93827000000E+00  0.93827000000E+00 0. -1.
     999902    2    1    2    0    0  0.70613071717E-02 -0.99061576391E-02  0.21102828078E-01  0.10195717700E+01  0.10192807615E+01 0.  0.
     999903    2    3    3    0    0  0.63366377923E-01  0.10580046507E+00 -0.30713366524E-01  0.12870522464E+00  0.20314716510E-01 0.  0.
         14    1    1    2    0    0 -0.70613071717E-02  0.99061576391E-02 -0.21102828078E-01  0.24358230047E-01  0.00000000000E+00 0.  1.
     999901    1    3    3    0    0 -0.56305070751E-01 -0.11570662271E+00  0.51816194602E-01  0.89086654531E+00  0.88000000000E+00 0.  1.
        -11    1    4    4    0    0  0.40173550038E-01  0.73218002089E-01 -0.11407077731E-01  0.84292185260E-01  0.51100000000E-03 0.  1.
         11    1    4    4    0    0  0.23192827884E-01  0.32582462981E-01 -0.19306288793E-01  0.44413039381E-01  0.51100000000E-03 0. -1.
</event>
<event>
 8    1  0.1064884E+005  0.1043930E+01  0.7957747E-01            NaN
         13   -1    0    0    0    0  0.00000000000E+00  0.00000000000E+00  0.74505805969E-08  0.10566000000E+00  0.10566000000E+00 0. -1.
     999900   -1    0    0    0    0 -0.00000000000E+00 -0.00000000000E+00 -0.74505805969E-08  0.93827000000E+00  0.93827000000E+00 0. -1.
     999902    2    1    2    0    0 -0.50124184646E-02 -0.99305393225E-03 -0.23586977937E-01  0.10197958743E+01  0.10195102595E+01 0.  0.
     999903    2    3    3    0    0  0.11007713907E+00  0.49070673749E-01 -0.46237836970E-01  0.13060239451E+00  0.19852967446E-01 0.  0.
         14    1    1    2    0    0  0.50124184646E-02  0.99305393225E-03  0.23586977937E-01  0.24134125697E-01  0.00000000000E+00 0. -1.
     999901    1    3    3    0    0 -0.11508955754E+00 -0.50063727681E-01  0.22650859033E-01  0.88919347979E+00  0.88000000000E+00 0.  1.
        -11    1    4    4    0    0  0.71500263830E-01  0.23242566644E-01 -0.34449852449E-01  0.82701620823E-01  0.51100000000E-03 0. -1.
         11    1    4    4    0    0  0.38576875244E-01  0.25828107104E-01 -0.11787984520E-01  0.47900773691E-01  0.51100000000E-03 0.  1.
</event>
<event>
 8    1  0.1064884E+005  0.1043930E+01  0.7957747E-01            NaN
         13   -1    0    0    0    0  0.00000000000E+00  0.00000000000E+00  0.74505805969E-08  0.10566000000E+00  0.10566000000E+00 0. -1.
     999900   -1    0    0    0    0 -0.00000000000E+00 -0.00000000000E+00 -0.74505805969E-08  0.93827000000E+00  0.93827000000E+00 0. -1.
     999902    2    1    2    0    0 -0.96164464386E-02 -0.18133738668E-01 -0.96690454569E-02  0.10212408184E+01  0.10209887415E+01 0.  0.
     999903    2    3    3    0    0 -0.18138937096E-01  0.39508634078E-01  0.12063502121E+00  0.12973959815E+00  0.19738332759E-01 0.  0.
         14    1    1    2    0    0  0.96164464386E-02  0.18133738668E-01  0.96690454569E-02  0.22689181569E-01  0.00000000000E+00 0.  1.
     999901    1    3    3    0    0  0.85224906570E-02 -0.57642372747E-01 -0.13030406666E+00  0.89150122029E+00  0.88000000000E+00 0. -1.
        -11    1    4    4    0    0 -0.88576505109E-03  0.70060465746E-02  0.45812321149E-01  0.46356220278E-01  0.51100000000E-03 0. -1.
         11    1    4    4    0    0 -0.17253172045E-01  0.32502587504E-01  0.74822700056E-01  0.83383377868E-01  0.51100000000E-03 0.  1.
</event>
<event>
 8    1  0.1064884E+005  0.1043930E+01  0.7957747E-01            NaN
         13   -1    0    0    0    0  0.00000000000E+00  0.00000000000E+00  0.74505805969E-08  0.10566000000E+00  0.10566000000E+00 0. -1.
     999900   -1    0    0    0    0 -0.00000000000E+00 -0.00000000000E+00 -0.74505805969E-08  0.93827000000E+00  0.93827000000E+00 0.  1.
     999902    2    1    2    0    0  0.37420379788E-02  0.44305153138E-02 -0.23765633974E-01  0.10194670142E+01  0.10191734668E+01 0.  0.
     999903    2    3    3    0    0  0.92223382310E-01 -0.67265521447E-01 -0.61807212374E-01  0.13131363128E+00  0.19832691115E-01 0.  0.
         14    1    1    2    0    0 -0.37420379788E-02 -0.44305153138E-02  0.23765633974E-01  0.24462985762E-01  0.00000000000E+00 0. -1.
     999901    1    3    3    0    0 -0.88481344332E-01  0.71696036761E-01  0.38041578400E-01  0.88815338296E+00  0.88000000000E+00 0. -1.
        -11    1    4    4    0    0  0.77573245660E-02 -0.13062142425E-01 -0.50735768221E-02  0.16024916597E-01  0.51100000000E-03 0. -1.
         11    1    4    4    0    0  0.84466057744E-01 -0.54203379022E-01 -0.56733635552E-01  0.11528871468E+00  0.51100000000E-03 0.  1.
</event>
<event>
 7    1  0.1064884E+005  0.1043930E+01  0.7957747E-01            NaN
         13   -1    0    0    0    0  0.00000000000E+00  0.00000000000E+00  0.74505805969E-08  0.10566000000E+00  0.10566000000E+00 0.  1.
     999900   -1    0    0    0    0 -0.00000000000E+00 -0.00000000000E+00 -0.74505805969E-08  0.93827000000E+00  0.93827000000E+00 0.  1.
     999902    2    1    2    0    0 -0.17974784337E-01  0.12720602933E-01  0.30743366340E-02  0.10216958336E+01  0.10214538747E+01 0.  0.
         14    1    1    2    0    0  0.17974784337E-01 -0.12720602933E-01 -0.30743366340E-02  0.22234166426E-01  0.00000000000E+00 0. -1.
     999901    1    3    3    0    0  0.72170692722E-01  0.19546786414E-01  0.94324828440E-01  0.88819359320E+00  0.88000000000E+00 0. -1.
        -11    1    3    3    0    0 -0.64948688564E-01 -0.21318084443E-01 -0.62870813441E-01  0.92875148313E-01  0.51100000000E-03 0. -1.
         11    1    3    3    0    0 -0.25196788495E-01  0.14491900961E-01 -0.28379678365E-01  0.40627092058E-01  0.51100000000E-03 0.  1.
</event>
<event>
 8    1  0.1064884E+005  0.1043930E+01  0.7957747E-01            NaN
         13   -1    0    0    0    0  0.00000000000E+00  0.00000000000E+00  0.74505805969E-08  0.10566000000E+00  0.10566000000E+00 0. -1.
     999900   -1    0    0    0    0 -0.00000000000E+00 -0.00000000000E+00 -0.74505805969E-08  0.93827000000E+00  0.93827000000E+00 0.  1.
     999902    2    1    2    0    0  0.14702533383E-01 -0.63717971616E-02  0.16962852167E-01  0.10205954196E+01  0.10203286274E+01 0.  0.
     999903    2    3    3    0    0  0.12224949082E+00  0.36322854671E-01 -0.26692148569E-01  0.13194760389E+00  0.20818539771E-01 0.  0.
         14    1    1    2    0    0 -0.14702533383E-01  0.63717971616E-02 -0.16962852167E-01  0.23334580361E-01  0.00000000000E+00 0.  1.
     999901    1    3    3    0    0 -0.10754695744E+00 -0.42694651833E-01  0.43655000736E-01  0.88864781575E+00  0.88000000000E+00 0. -1.
        -11    1    4    4    0    0  0.61880107777E-01  0.13447572898E-01 -0.22671384316E-01  0.67262454186E-01  0.51100000000E-03 0.  1.
         11    1    4    4    0    0  0.60369383048E-01  0.22875281774E-01 -0.40207642528E-02  0.64685149702E-01  0.51100000000E-03 0. -1.
</event>
<event>
 8    1  0.1064884E+005  0.1043930E+01  0.7957747E-01            NaN
         13   -1    0    0    0    0  0.00000000000E+00  0.00000000000E+00  0.74505805969E-08  0.10566000000E+00  0.10566000000E+00 0. -1.
     999900   -1    0    0    0    0 -0.00000000000E+00 -0.00000000000E+00 -0.74505805969E-08  0.93827000000E+00  0.93827000000E+00 0.  1.
     999902    2    1    2    0    0  0.13084912390E-01  0.16133303507E-01  0.12467422936E-01  0.10197032576E+01  0.10194154200E+01 0.  0.
     999903    2    3    3    0    0 -0.83783286924E-01  0.32065980506E-01  0.92898665586E-01  0.13059894252E+00  0.19443647980E-01 0.  0.
         14    1    1    2    0    0 -0.13084912390E-01 -0.16133303507E-01 -0.12467422936E-01  0.24226742434E-01  0.00000000000E+00 0. -1.
     999901    1    3    3    0    0  0.96868199314E-01 -0.15932676999E-01 -0.80431242650E-01  0.88910431504E+00  0.88000000000E+00 0.  1.
        -11    1    4    4    0    0 -0.33263158964E-01  0.14323391921E-01  0.51271642661E-01  0.62774515231E-01  0.51100000000E-03 0.  1.
         11    1    4    4    0    0 -0.50520127960E-01  0.17742588585E-01  0.41627022925E-01  0.67824427291E-01  0.51100000000E-03 0. -1.
</event>
<event>
 8    1  0.1064884E+005  0.1043930E+01  0.7957747E-01            NaN
         13   -1    0    0    0    0  0.00000000000E+00  0.00000000000E+00  0.74505805969E-08  0.10566000000E+00  0.10566000000E+00 0.  1.
     999900   -1    0    0    0    0 -0.00000000000E+00 -0.00000000000E+00 -0.74505805969E-08  0.93827000000E+00  0.93827000000E+00 0. -1.
     999902    2    1    2    0    0  0.97413293039E-02 -0.45795449828E-02 -0.68930024606E-02  0.10311480122E+01  0.10310687872E+01 0.  0.
     999903    2    3    3    0    0 -0.52652776755E-01  0.12632258033E+00 -0.15668970928E-01  0.13923691322E+00  0.20290198428E-01 0.  0.
         14    1    1    2    0    0 -0.97413293039E-02  0.45795449828E-02  0.68930024606E-02  0.12781987787E-01  0.00000000000E+00 0.  1.
     999901    1    3    3    0    0  0.62394106059E-01 -0.13090212531E+00  0.87759684672E-02  0.89191109899E+00  0.88000000000E+00 0.  1.
        -11    1    4    4    0    0 -0.27189438150E-01  0.84734360074E-01 -0.39355592148E-02  0.89078207612E-01  0.51100000000E-03 0. -1.
         11    1    4    4    0    0 -0.25463338604E-01  0.41588220256E-01 -0.11733411713E-01  0.50158705609E-01  0.51100000000E-03 0.  1.
</event>
<event>
 8    1  0.1064884E+005  0.1043930E+01  0.7957747E-01            NaN
         13   -1    0    0    0    0  0.00000000000E+00  0.00000000000E+00  0.74505805969E-08  0.10566000000E+00  0.10566000000E+00 0. -1.
     999900   -1    0    0    0    0 -0.00000000000E+00 -0.00000000000E+00 -0.74505805969E-08  0.93827000000E+00  0.93827000000E+00 0. -1.
     999902    2    1    2    0    0  0.23434199453E-01  0.13611516791E-01  0.83450457800E-02  0.10155737858E+01  0.10151778364E+01 0.  0.
     999903    2    3    3    0    0  0.84812462607E-01  0.95231355588E-01 -0.94366408785E-02  0.12948954736E+00  0.20404111930E-01 0.  0.
         14    1    1    2    0    0 -0.23434199453E-01 -0.13611516791E-01 -0.83450457800E-02  0.28356214177E-01  0.00000000000E+00 0.  1.
     999901    1    3    3    0    0 -0.61378263153E-01 -0.81619838797E-01  0.17781686659E-01  0.88608423846E+00  0.88000000000E+00 0.  1.
        -11    1    4    4    0    0  0.56631144109E-01  0.48858242016E-01 -0.31909810372E-02  0.74864262348E-01  0.51100000000E-03 0.  1.
         11    1    4    4    0    0  0.28181318497E-01  0.46373113573E-01 -0.62456598413E-02  0.54625285011E-01  0.51100000000E-03 0. -1.
</event>
<event>
 8    1  0.1064884E+005  0.1043930E+01  0.7957747E-01            NaN
         13   -1    0    0    0    0  0.00000000000E+00  0.00000000000E+00  0.74505805969E-08  0.10566000000E+00  0.10566000000E+00 0.  1.
     999900   -1    0    0    0    0 -0.00000000000E+00 -0.00000000000E+00 -0.74505805969E-08  0.93827000000E+00  0.93827000000E+00 0. -1.
     999902    2    1    2    0    0  0.10149751213E-01  0.14706281063E-02  0.21342089184E-01  0.10202516350E+01  0.10199768300E+01 0.  0.
     999903    2    3    3    0    0 -0.18566662016E-01  0.52285899856E-01 -0.11366866335E+00  0.12804385232E+00  0.19902935175E-01 0.  0.
         14    1    1    2    0    0 -0.10149751213E-01 -0.14706281063E-02 -0.21342089184E-01  0.23678364966E-01  0.00000000000E+00 0. -1.
     999901    1    3    3    0    0  0.28716413228E-01 -0.50815271750E-01  0.13501075253E+00  0.89220778271E+00  0.88000000000E+00 0.  1.
        -11    1    4    4    0    0 -0.78145419384E-02  0.35993675811E-01 -0.90710976566E-01  0.97904821918E-01  0.51100000000E-03 0. -1.
         11    1    4    4    0    0 -0.10752120077E-01  0.16292224045E-01 -0.22957686780E-01  0.30139030405E-01  0.51100000000E-03 0.  1.
</event>
<event>
 8    1  0.1064884E+005  0.1043930E+01  0.7957747E-01            NaN
         13   -1    0    0    0    0  0.00000000000E+00  0.00000000000E+00  0.74505805969E-08  0.10566000000E+00  0.10566000000E+00 0.  1.
     999900   -1    0    0    0    0 -0.00000000000E+00 -0.00000000000E+00 -0.74505805969E-08  0.93827000000E+00  0.93827000000E+00 0.  1.
     999902    2    1    2    0    0  0.12601466036E-01 -0.77505364871E-02  0.18168604303E-01  0.10204999777E+01  0.10202309731E+01 0.  0.
     999903    2    3    3    0    0 -0.95430911127E-02  0.12255999896E+00  0.38404631013E-01  0.13039845887E+00  0.20416132364E-01 0.  0.
         14    1    1    2    0    0 -0.12601466036E-01  0.77505364871E-02 -0.18168604303E-01  0.23430022288E-01  0.00000000000E+00 0. -1.
     999901    1    3    3    0    0  0.22144557148E-01 -0.13031053545E+00 -0.20236026710E-01  0.89010151884E+00  0.88000000000E+00 0.  1.
        -11    1    4    4    0    0  0.53021984987E-02  0.28194129771E-01  0.45633081361E-02  0.29053522413E-01  0.51100000000E-03 0. -1.
         11    1    4    4    0    0 -0.14845289611E-01  0.94365869188E-01  0.33841322877E-01  0.10134493646E+00  0.51100000000E-03 0.  1.
</event>
<event>
 8    1  0.1064884E+005  0.1043930E+01  0.7957747E-01            NaN
         13   -1    0    0    0    0  0.00000000000E+00  0.00000000000E+00  0.74505805969E-08  0.10566000000E+00  0.10566000000E+00 0. -1.
     999900   -1    0    0    0    0 -0.00000000000E+00 -0.00000000000E+00 -0.74505805969E-08  0.93827000000E+00  0.93827000000E+00 0. -1.
     999902    2    1    2    0    0 -0.21579721983E-01  0.43512779964E-02  0.69296000009E-02  0.10208510620E+01  0.10205901496E+01 0.  0.
     999903    2    3    3    0    0 -0.10806151819E+00 -0.31804589383E-01  0.69431259186E-01  0.13366855251E+00  0.18914506554E-01 0.  0.
         14    1    1    2    0    0  0.21579721983E-01 -0.43512779964E-02 -0.69296000009E-02  0.23078937958E-01  0.00000000000E+00 0.  1.
     999901    1    3    3    0    0  0.86481796207E-01  0.36155867380E-01 -0.62501659185E-01  0.88718250953E+00  0.88000000000E+00 0. -1.
        -11    1    4    4    0    0 -0.58367515200E-01 -0.18576489257E-01  0.26764535465E-01  0.66846497765E-01  0.51100000000E-03 0. -1.
         11    1    4    4    0    0 -0.49694002991E-01 -0.13228100126E-01  0.42666723720E-01  0.66822054744E-01  0.51100000000E-03 0.  1.
</event>
<event>
 8    1  0.1064884E+005  0.1043930E+01  0.7957747E-01            NaN
         13   -1    0    0    0    0  0.00000000000E+00  0.00000000000E+00  0.74505805969E-08  0.10566000000E+00  0.10566000000E+00 0. -1.
     999900   -1    0    0    0    0 -0.00000000000E+00 -0.00000000000E+00 -0.74505805969E-08  0.93827000000E+00  0.93827000000E+00 0.  1.
     999902    2    1    2    0    0 -0.80554161273E-02 -0.65428627155E-02 -0.18902173392E-01  0.10223663514E+01  0.10221389170E+01 0.  0.
     999903    2    3    3    0    0  0.52919234877E-01 -0.80068213986E-01  0.86716055558E-01  0.13091859880E+00  0.20214868545E-01 0.  0.
         14    1    1    2    0    0  0.80554161273E-02  0.65428627155E-02  0.18902173392E-01  0.21563648588E-01  0.00000000000E+00 0. -1.
     999901    1    3    3    0    0 -0.60974651004E-01  0.73525351271E-01 -0.10561822895E+00  0.89144775261E+00  0.88000000000E+00 0.  1.
        -11    1    4    4    0    0  0.48754622700E-01 -0.60068029838E-01  0.72480438475E-01  0.10601347332E+00  0.51100000000E-03 0. -1.
         11    1    4    4    0    0  0.41646121774E-02 -0.20000184148E-01  0.14235617083E-01  0.24905125482E-01  0.51100000000E-03 0.  1.
</event>
<event>
 8    1  0.1064884E+005  0.1043930E+01  0.7957747E-01            NaN
         13   -1    0    0    0    0  0.00000000000E+00  0.00000000000E+00  0.74505805969E-08  0.10566000000E+00  0.10566000000E+00 0. -1.
     999900   -1    0    0    0    0 -0.00000000000E+00 -0.00000000000E+00 -0.74505805969E-08  0.93827000000E+00  0.93827000000E+00 0.  1.
     999902    2    1    2    0    0 -0.20006664229E-01 -0.10994562907E-02  0.11614020673E-01  0.10207705334E+01  0.10205077760E+01 0.  0.
     999903    2    3    3    0    0 -0.15202227938E-01 -0.11617543926E+00  0.57528913887E-01  0.13207838090E+00  0.20181237511E-01 0.  0.
         14    1    1    2    0    0  0.20006664229E-01  0.10994562907E-02 -0.11614020673E-01  0.23159466615E-01  0.00000000000E+00 0. -1.
     999901    1    3    3    0    0 -0.48044362911E-02  0.11507598297E+00 -0.45914893214E-01  0.88869215248E+00  0.88000000000E+00 0. -1.
        -11    1    4    4    0    0 -0.14788341817E-01 -0.87408837416E-01  0.34145315539E-01  0.95000861082E-01  0.51100000000E-03 0. -1.
         11    1    4    4    0    0 -0.41388612073E-03 -0.28766601844E-01  0.23383598348E-01  0.37077519821E-01  0.51100000000E-03 0.  1.
</event>
<event>
 8    1  0.1064884E+005  0.1043930E+01  0.7957747E-01            NaN
         13   -1    0    0    0    0  0.00000000000E+00  0.00000000000E+00  0.74505805969E-08  0.10566000000E+00  0.10566000000E+00 0. -1.
     999900   -1    0    0    0    0 -0.00000000000E+00 -0.00000000000E+00 -0.74505805969E-08  0.93827000000E+00  0.93827000000E+00 0.  1.
     999902    2    1    2    0    0 -0.10290395308E-01 -0.23177474735E-01  0.64974299153E-02  0.10177516852E+01  0.10174149540E+01 0.  0.
     999903    2    3    3    0    0  0.50763680302E-01  0.10556082926E+00 -0.40140743830E-01  0.12507242011E+00  0.17657605810E-01 0.  0.
         14    1    1    2    0    0  0.10290395308E-01  0.23177474735E-01 -0.64974299153E-02  0.26178314808E-01  0.00000000000E+00 0.  1.
     999901    1    3    3    0    0 -0.61054075609E-01 -0.12873830400E+00  0.46638173745E-01  0.89267926509E+00  0.88000000000E+00 0. -1.
        -11    1    4    4    0    0  0.23515877593E-01  0.33077268804E-01 -0.18913561269E-01  0.44778188121E-01  0.51100000000E-03 0.  1.
         11    1    4    4    0    0  0.27247802709E-01  0.72483560460E-01 -0.21227182561E-01  0.80294231984E-01  0.51100000000E-03 0. -1.
</event>
<event>
 8    1  0.1064884E+005  0.1043930E+01  0.7957747E-01            NaN
         13   -1    0    0    0    0  0.00000000000E+00  0.00000000000E+00  0.74505805969E-08  0.10566000000E+00  0.10566000000E+00 0. -1.
     999900   -1    0    0    0    0 -0.00000000000E+00 -0.00000000000E+00 -0.74505805969E-08  0.93827000000E+00  0.93827000000E+00 0. -1.
     999902    2    1    2    0    0 -0.17547226811E-01  0.12545563724E-01 -0.98320187127E-02  0.10202242005E+01  0.10199487508E+01 0.  0.
     999903    2    3    3    0    0  0.66864338146E-01  0.90640670128E-01  0.61357577909E-01  0.12989161286E+00  0.20506289972E-01 0.  0.
         14    1    1    2    0    0  0.17547226811E-01 -0.12545563724E-01  0.98320187127E-02  0.23705799499E-01  0.00000000000E+00 0. -1.
     999901    1    3    3    0    0 -0.84411564956E-01 -0.78095106404E-01 -0.71189596622E-01  0.89033258764E+00  0.88000000000E+00 0.  1.
        -11    1    4    4    0    0  0.34759075598E-01  0.39089284674E-01  0.18203268656E-01  0.55387594491E-01  0.51100000000E-03 0.  1.
         11    1    4    4    0    0  0.32105262548E-01  0.51551385455E-01  0.43154309253E-01  0.74504018373E-01  0.51100000000E-03 0. -1.
</event>
<event>
 8    1  0.1064884E+005  0.1043930E+01  0.7957747E-01            NaN
         13   -1    0    0    0    0  0.00000000000E+00  0.00000000000E+00  0.74505805969E-08  0.10566000000E+00  0.10566000000E+00 0.  1.
     999900   -1    0    0    0    0 -0.00000000000E+00 -0.00000000000E+00 -0.74505805969E-08  0.93827000000E+00  0.93827000000E+00 0. -1.
     999902    2    1    2    0    0  0.13184326971E-01 -0.58610491215E-02 -0.17149622087E-01  0.10215182193E+01  0.10212723361E+01 0.  0.
     999903    2    3    3    0    0  0.10424040246E+00  0.42624614165E-01 -0.69692390817E-01  0.13393565362E+00  0.19970246239E-01 0.  0.
         14    1    1    2    0    0 -0.13184326971E-01  0.58610491215E-02  0.17149622087E-01  0.22411780657E-01  0.00000000000E+00 0.  1.
     999901    1    3    3    0    0 -0.91056075491E-01 -0.48485663287E-01  0.52542768730E-01  0.88758256572E+00  0.88000000000E+00 0.  1.
        -11    1    4    4    0    0  0.18498259161E-01  0.43186935315E-02 -0.42513273908E-02  0.19472329378E-01  0.51100000000E-03 0. -1.
         11    1    4    4    0    0  0.85742143302E-01  0.38305920634E-01 -0.65441063426E-01  0.11446332424E+00  0.51100000000E-03 0.  1.
</event>
<event>
 8    1  0.1064884E+005  0.1043930E+01  0.7957747E-01            NaN
         13   -1    0    0    0    0  0.00000000000E+00  0.00000000000E+00  0.74505805969E-08  0.10566000000E+00  0.10566000000E+00 0.  1.
     999900   -1    0    0    0    0 -0.00000000000E+00 -0.00000000000E+00 -0.74505805969E-08  0.93827000000E+00  0.93827000000E+00 0.  1.
     999902    2    1    2    0    0 -0.17269934708E-01 -0.15873538471E-01 -0.94935149306E-02  0.10186249275E+01  0.10183105598E+01 0.  0.
     999903    2    3    3    0    0 -0.64877502767E-01 -0.83198433121E-01 -0.77183149986E-01  0.13218203105E+00  0.19590330569E-01 0.  0.
         14    1    1    2    0    0  0.17269934708E-01  0.15873538471E-01  0.94935149306E-02  0.25305072498E-01  0.00000000000E+00 0. -1.
     999901    1    3    3    0    0  0.47607568059E-01  0.67324894651E-01  0.67689635055E-01  0.88644289645E+00  0.88000000000E+00 0.  1.
        -11    1    4    4    0    0 -0.38381116711E-01 -0.60610569682E-01 -0.44487056984E-01  0.84416293671E-01  0.51100000000E-03 0.  1.
         11    1    4    4    0    0 -0.26496386056E-01 -0.22587863440E-01 -0.32696093002E-01  0.47765737379E-01  0.51100000000E-03 0. -1.
</event>
<event>
 8    1  0.1064884E+005  0.1043930E+01  0.7957747E-01            NaN
         13   -1    0    0    0    0  0.00000000000E+00  0.00000000000E+00  0.74505805969E-08  0.10566000000E+00  0.10566000000E+00 0. -1.
     999900   -1    0    0    0    0 -0.00000000000E+00 -0.00000000000E+00 -0.74505805969E-08  0.93827000000E+00  0.93827000000E+00 0. -1.
     999902    2    1    2    0    0  0.60014165972E-02 -0.67059759133E-02 -0.21488460697E-01  0.10206331964E+01  0.10203672773E+01 0.  0.
     999903    2    3    3    0    0 -0.12361915909E-01  0.48414566118E-01  0.11544745354E+00  0.12814962192E+00  0.24442256284E-01 0.  0.
         14    1    1    2    0    0 -0.60014165972E-02  0.67059759133E-02  0.21488460697E-01  0.23296803584E-01  0.00000000000E+00 0. -1.
     999901    1    3    3    0    0  0.18363332506E-01 -0.55120542031E-01 -0.13693591424E+00  0.89248357449E+00  0.88000000000E+00 0. -1.
        -11    1    4    4    0    0  0.24721002648E-03  0.25064228866E-01  0.32420063416E-01  0.40982902708E-01  0.51100000000E-03 0.  1.
         11    1    4    4    0    0 -0.12609125935E-01  0.23350337253E-01  0.83027390124E-01  0.87166719214E-01  0.51100000000E-03 0. -1.
</event>
<event>
 8    1  0.1064884E+005  0.1043930E+01  0.7957747E-01            NaN
         13   -1    0    0    0    0  0.00000000000E+00  0.00000000000E+00  0.74505805969E-08  0.10566000000E+00  0.10566000000E+00 0. -1.
     999900   -1    0    0    0    0 -0.00000000000E+00 -0.00000000000E+00 -0.74505805969E-08  0.93827000000E+00  0.93827000000E+00 0. -1.
     999902    2    1    2    0    0 -0.33536110044E-02 -0.13196593875E-01 -0.17382733459E-01  0.10218493248E+01  0.10216107313E+01 0.  0.
     999903    2    3    3    0    0  0.86869544370E-01 -0.95606888911E-01  0.22020042745E-01  0.13253259082E+00  0.19824489903E-01 0.  0.
         14    1    1    2    0    0  0.33536110044E-02  0.13196593875E-01  0.17382733459E-01  0.22080675243E-01  0.00000000000E+00 0. -1.
     999901    1    3    3    0    0 -0.90223155374E-01  0.82410295036E-01 -0.39402776203E-01  0.88931673394E+00  0.88000000000E+00 0. -1.
        -11    1    4    4    0    0  0.26241145899E-01 -0.39404502019E-01  0.14513357750E-01  0.49519806054E-01  0.51100000000E-03 0. -1.
         11    1    4    4    0    0  0.60628398471E-01 -0.56202386893E-01  0.75066849948E-02  0.83012784763E-01  0.51100000000E-03 0.  1.
</event>
<event>
 8    1  0.1064884E+005  0.1043930E+01  0.7957747E-01            NaN
         13   -1    0    0    0    0  0.00000000000E+00  0.00000000000E+00  0.74505805969E-08  0.10566000000E+00  0.10566000000E+00 0. -1.
     999900   -1    0    0    0    0 -0.00000000000E+00 -0.00000000000E+00 -0.74505805969E-08  0.93827000000E+00  0.93827000000E+00 0.  1.
     999902    2    1    2    0    0  0.49773920223E-02  0.19954469950E-01  0.11800682712E-01  0.10202190022E+01  0.10199434304E+01 0.  0.
     999903    2    3    3    0    0  0.28595425289E-01 -0.98011613494E-01 -0.74485392845E-01  0.12785187198E+00  0.19340441916E-01 0.  0.
         14    1    1    2    0    0 -0.49773920223E-02 -0.19954469950E-01 -0.11800682712E-01  0.23710997760E-01  0.00000000000E+00 0.  1.
     999901    1    3    3    0    0 -0.23618033267E-01  0.11796608344E+00  0.86286075557E-01  0.89236713026E+00  0.88000000000E+00 0. -1.
        -11    1    4    4    0    0  0.30071671245E-01 -0.94036904237E-01 -0.67274462266E-01  0.11947116457E+00  0.51100000000E-03 0. -1.
         11    1    4    4    0    0 -0.14762459553E-02 -0.39747092577E-02 -0.72109305791E-02  0.83807074057E-02  0.51100000000E-03 0.  1.
</event>
<event>
 8    1  0.1064884E+005  0.1043930E+01  0.7957747E-01            NaN
         13   -1    0    0    0    0  0.00000000000E+00  0.00000000000E+00  0.74505805969E-08  0.10566000000E+00  0.10566000000E+00 0.  1.
     999900   -1    0    0    0    0 -0.00000000000E+00 -0.00000000000E+00 -0.74505805969E-08  0.93827000000E+00  0.93827000000E+00 0.  1.
     999902    2    1    2    0    0 -0.17511642914E-01  0.11890065420E-01  0.56407472898E-02  0.10220245367E+01  0.10217897554E+01 0.  0.
     999903    2    3    3    0    0 -0.10205051562E+00 -0.13300065665E-01 -0.82330997253E-01  0.13324987933E+00  0.19645298375E-01 0.  0.
         14    1    1    2    0    0  0.17511642914E-01 -0.11890065420E-01 -0.56407472898E-02  0.21905463319E-01  0.00000000000E+00 0. -1.
     999901    1    3    3    0    0  0.84538872710E-01  0.25190131085E-01  0.87971744543E-01  0.88877465735E+00  0.88000000000E+00 0. -1.
        -11    1    4    4    0    0 -0.83969589078E-01 -0.32276670709E-02 -0.64664101999E-01  0.10603309357E+00  0.51100000000E-03 0.  1.
         11    1    4    4    0    0 -0.18080926545E-01 -0.10072398594E-01 -0.17666895254E-01  0.27216785760E-01  0.51100000000E-03 0. -1.
</event>
<event>
 8    1  0.1064884E+005  0.1043930E+01  0.7957747E-01            NaN
         13   -1    0    0    0    0  0.00000000000E+00  0.00000000000E+00  0.74505805969E-08  0.10566000000E+00  0.10566000000E+00 0. -1.
     999900   -1    0    0    0    0 -0.00000000000E+00 -0.00000000000E+00 -0.74505805969E-08  0.93827000000E+00  0.93827000000E+00 0.  1.
     999902    2    1    2    0    0  0.61299892568E-02 -0.24947659778E-01  0.23394624321E-02  0.10181339619E+01  0.10178071177E+01 0.  0.
     999903    2    3    3    0    0 -0.12406190853E+00 -0.87725310141E-02  0.23224997320E-01  0.12816330475E+00  0.20447927417E-01 0.  0.
         14    1    1    2    0    0 -0.61299892568E-02  0.24947659778E-01 -0.23394624321E-02  0.25796038091E-01  0.00000000000E+00 0. -1.
     999901    1    3    3    0    0  0.13019189778E+00 -0.16175128764E-01 -0.20885534888E-01  0.88997065716E+00  0.88000000000E+00 0.  1.
        -11    1    4    4    0    0 -0.11063149575E+00 -0.13677972784E-01  0.23161803077E-01  0.11385580809E+00  0.51100000000E-03 0. -1.
         11    1    4    4    0    0 -0.13430412775E-01  0.49054417697E-02  0.63194242984E-04  0.14307496664E-01  0.51100000000E-03 0.  1.
</event>
<event>
 8    1  0.1064884E+005  0.1043930E+01  0.7957747E-01            NaN
         13   -1    0    0    0    0  0.00000000000E+00  0.00000000000E+00  0.74505805969E-08  0.10566000000E+00  0.10566000000E+00 0. -1.
     999900   -1    0    0    0    0 -0.00000000000E+00 -0.00000000000E+00 -0.74505805969E-08  0.93827000000E+00  0.93827000000E+00 0. -1.
     999902    2    1    2    0    0  0.16558713336E-01  0.16516712346E-01 -0.10949835248E-02  0.10205165047E+01  0.10202478839E+01 0.  0.
     999903    2    3    3    0    0 -0.80697083016E-01  0.23372991574E-01  0.96423558427E-01  0.12977773012E+00  0.22055400071E-01 0.  0.
         14    1    1    2    0    0 -0.16558713336E-01 -0.16516712346E-01  0.10949835248E-02  0.23413495318E-01  0.00000000000E+00 0. -1.
     999901    1    3    3    0    0  0.97255796352E-01 -0.68562792273E-02 -0.97518541952E-01  0.89073877456E+00  0.88000000000E+00 0. -1.
        -11    1    4    4    0    0 -0.80136846922E-01  0.22085786300E-01  0.87349362721E-01  0.12058137700E+00  0.51100000000E-03 0.  1.
         11    1    4    4    0    0 -0.56023609409E-03  0.12872052732E-02  0.90741957066E-02  0.91963531151E-02  0.51100000000E-03 0. -1.
</event>
<event>
 8    1  0.1064884E+005  0.1043930E+01  0.7957747E-01            NaN
         13   -1    0    0    0    0  0.00000000000E+00  0.00000000000E+00  0.74505805969E-08  0.10566000000E+00  0.10566000000E+00 0.  1.
     999900   -1    0    0    0    0 -0.00000000000E+00 -0.00000000000E+00 -0.74505805969E-08  0.93827000000E+00  0.93827000000E+00 0. -1.
     999902    2    1    2    0    0  0.11357022093E-01 -0.26257708237E-02  0.23776752058E-01  0.10174496193E+01  0.10171049687E+01 0.  0.
     999903    2    3    3    0    0 -0.15049181808E-01  0.58149092569E-01  0.11404121224E+00  0.13035405264E+00  0.19467565648E-01 0.  0.
         14    1    1    2    0    0 -0.11357022093E-01  0.26257708237E-02 -0.23776752058E-01  0.26480380693E-01  0.00000000000E+00 0. -1.
     999901    1    3    3    0    0  0.26406203901E-01 -0.60774863393E-01 -0.90264460178E-01  0.88709556666E+00  0.88000000000E+00 0. -1.
        -11    1    4    4    0    0  0.10991764484E-02  0.17276498447E-01  0.19400628999E-01  0.26006366797E-01  0.51100000000E-03 0.  1.
         11    1    4    4    0    0 -0.16148358256E-01  0.40872594122E-01  0.94640583237E-01  0.10434768584E+00  0.51100000000E-03 0. -1.
</event>
<event>
 7    1  0.1064884E+005  0.1043930E+01  0.7957747E-01            NaN
         13   -1    0    0    0    0  0.00000000000E+00  0.00000000000E+00  0.74505805969E-08  0.10566000000E+00  0.10566000000E+00 0. -1.
     999900   -1    0    0    0    0 -0.00000000000E+00 -0.00000000000E+00 -0.74505805969E-08  0.93827000000E+00  0.93827000000E+00 0.  1.
     999903    2    1    2    0    0 -0.10684693632E+00  0.10670488102E-01  0.39741414805E-01  0.11626065008E+00  0.20175023918E-01 0.  0.
         14    1    1    2    0    0 -0.10259563200E-01  0.30878977691E-01 -0.21029354800E-01  0.38742788537E-01  0.00000000000E+00 0.  1.
     999901    1    1    2    0    0  0.11710649952E+00 -0.41549465793E-01 -0.18712060005E-01  0.88892656138E+00  0.88000000000E+00 0.  1.
        -11    1    3    3    0    0 -0.79031829156E-01  0.11154960795E-01  0.20424715610E-01  0.82388672152E-01  0.51100000000E-03 0. -1.
         11    1    3    3    0    0 -0.27815107162E-01 -0.48447269306E-03  0.19316699194E-01  0.33871977931E-01  0.51100000000E-03 0.  1.
</event>
<event>
 8    1  0.1064884E+005  0.1043930E+01  0.7957747E-01            NaN
         13   -1    0    0    0    0  0.00000000000E+00  0.00000000000E+00  0.74505805969E-08  0.10566000000E+00  0.10566000000E+00 0. -1.
     999900   -1    0    0    0    0 -0.00000000000E+00 -0.00000000000E+00 -0.74505805969E-08  0.93827000000E+00  0.93827000000E+00 0. -1.
     999902    2    1    2    0    0 -0.19084892368E-01 -0.10134432475E-01 -0.98044569292E-02  0.10202009626E+01  0.10199249663E+01 0.  0.
     999903    2    3    3    0    0  0.12234324655E+00 -0.26395379041E-01 -0.20963349896E-01  0.12869052650E+00  0.21382318839E-01 0.  0.
         14    1    1    2    0    0  0.19084892368E-01  0.10134432475E-01  0.98044569292E-02  0.23729037358E-01  0.00000000000E+00 0.  1.
     999901    1    3    3    0    0 -0.14142813892E+00  0.16260946567E-01  0.11158892966E-01  0.89151043614E+00  0.88000000000E+00 0. -1.
        -11    1    4    4    0    0  0.56254116269E-01 -0.80546882731E-02 -0.19511906504E-01  0.60086431220E-01  0.51100000000E-03 0. -1.
         11    1    4    4    0    0  0.66089130286E-01 -0.18340690768E-01 -0.14514433915E-02  0.68604095276E-01  0.51100000000E-03 0.  1.
</event>
<event>
 8    1  0.1064884E+005  0.1043930E+01  0.7957747E-01            NaN
         13   -1    0    0    0    0  0.00000000000E+00  0.00000000000E+00  0.74505805969E-08  0.10566000000E+00  0.10566000000E+00 0. -1.
     999900   -1    0    0    0    0 -0.00000000000E+00 -0.00000000000E+00 -0.74505805969E-08  0.93827000000E+00  0.93827000000E+00 0.  1.
     999902    2    1    2    0    0  0.20923661729E-01  0.80154003234E-02 -0.79004089814E-02  0.10201715757E+01  0.10198948873E+01 0.  0.
     999903    2    3    3    0    0  0.11133900937E+00  0.69553802939E-01  0.99454624055E-02  0.13322152909E+00  0.20370495313E-01 0.  0.
         14    1    1    2    0    0 -0.20923661729E-01 -0.80154003234E-02  0.79004089814E-02  0.23758424286E-01  0.00000000000E+00 0. -1.
     999901    1    3    3    0    0 -0.90415347640E-01 -0.61538402616E-01 -0.17845871387E-01  0.88695004663E+00  0.88000000000E+00 0.  1.
        -11    1    4    4    0    0  0.89030723998E-01  0.52586214557E-01 -0.22071130552E-03  0.10340256095E+00  0.51100000000E-03 0.  1.
         11    1    4    4    0    0  0.22308285371E-01  0.16967588382E-01  0.10166173711E-01  0.29818968134E-01  0.51100000000E-03 0. -1.
</event>
<event>
 8    1  0.1064884E+005  0.1043930E+01  0.7957747E-01            NaN
         13   -1    0    0    0    0  0.00000000000E+00  0.00000000000E+00  0.74505805969E-08  0.10566000000E+00  0.10566000000E+00 0.  1.
     999900   -1    0    0    0    0 -0.00000000000E+00 -0.00000000000E+00 -0.74505805969E-08  0.93827000000E+00  0.93827000000E+00 0. -1.
     999902    2    1    2    0    0 -0.25045187054E-02 -0.21026143946E-01  0.10485752938E-01  0.10203011541E+01  0.10200275108E+01 0.  0.
     999903    2    3    3    0    0 -0.12390437368E+00 -0.26780297132E-01  0.29251588856E-01  0.13174997851E+00  0.20806807948E-01 0.  0.
         14    1    1    2    0    0  0.25045187054E-02  0.21026143946E-01 -0.10485752938E-01  0.23628845885E-01  0.00000000000E+00 0.  1.
     999901    1    3    3    0    0  0.12139985497E+00  0.57541531863E-02 -0.18765835918E-01  0.88855117560E+00  0.88000000000E+00 0.  1.
        -11    1    4    4    0    0 -0.88995810761E-01 -0.11318883842E-01  0.26118913194E-01  0.93438911658E-01  0.51100000000E-03 0.  1.
         11    1    4    4    0    0 -0.34908562915E-01 -0.15461413291E-01  0.31326756623E-02  0.38311066855E-01  0.51100000000E-03 0. -1.
</event>
<event>
 8    1  0.1657233E+005  0.1043930E+01  0.7957747E-01            NaN
         13   -1    0    0    0    0  0.00000000000E+00  0.00000000000E+00  0.74505805969E-08  0.10566000000E+00  0.10566000000E+00 0.  1.
     999900   -1    0    0    0    0 -0.00000000000E+00 -0.00000000000E+00 -0.74505805969E-08  0.93827000000E+00  0.93827000000E+00 0.  1.
     999902    2    1    2    0    0  0.45583777549E-02 -0.22537659695E-01  0.59636191869E-02  0.10201752180E+01  0.10198986155E+01 0.  0.
     999903    2    3    3    0    0  0.72239172343E-03  0.11789060527E+00 -0.42544986154E-01  0.12771351175E+00  0.24534640349E-01 0.  0.
         14    1    1    2    0    0 -0.45583777549E-02  0.22537659695E-01 -0.59636191869E-02  0.23754781963E-01  0.00000000000E+00 0. -1.
     999901    1    3    3    0    0  0.38359860315E-02 -0.14042826496E+00  0.48508605341E-01  0.89246170628E+00  0.88000000000E+00 0. -1.
        -11    1    4    4    0    0 -0.11248570242E-01  0.44502292083E-01 -0.13115495609E-01  0.47741613705E-01  0.51100000000E-03 0. -1.
         11    1    4    4    0    0  0.11970961965E-01  0.73388313186E-01 -0.29429490545E-01  0.79971898049E-01  0.51100000000E-03 0.  1.
</event>
<event>
 8    1  0.1064884E+005  0.1043930E+01  0.7957747E-01            NaN
         13   -1    0    0    0    0  0.00000000000E+00  0.00000000000E+00  0.74505805969E-08  0.10566000000E+00  0.10566000000E+00 0. -1.
     999900   -1    0    0    0    0 -0.00000000000E+00 -0.00000000000E+00 -0.74505805969E-08  0.93827000000E+00  0.93827000000E+00 0.  1.
     999902    2    1    2    0    0  0.20460548157E-01  0.87382757093E-02  0.81266589758E-02  0.10202438420E+01  0.10199688540E+01 0.  0.
     999903    2    3    3    0    0 -0.57732723331E-01 -0.11126266047E+00  0.20638552906E-01  0.12857632559E+00  0.19836196144E-01 0.  0.
         14    1    1    2    0    0 -0.20460548157E-01 -0.87382757093E-02 -0.81266589758E-02  0.23686157970E-01  0.00000000000E+00 0. -1.
     999901    1    3    3    0    0  0.78193271488E-01  0.12000093618E+00 -0.12511893931E-01  0.89166751644E+00  0.88000000000E+00 0. -1.
        -11    1    4    4    0    0 -0.51317138878E-01 -0.85187659235E-01  0.11073241150E-01  0.10006629712E+00  0.51100000000E-03 0.  1.
         11    1    4    4    0    0 -0.64155844530E-02 -0.26075001234E-01  0.95653117567E-02  0.28510028468E-01  0.51100000000E-03 0. -1.
</event>
<event>
 8    1  0.1064884E+005  0.1043930E+01  0.7957747E-01            NaN
         13   -1    0    0    0    0  0.00000000000E+00  0.00000000000E+00  0.74505805969E-08  0.10566000000E+00  0.10566000000E+00 0.  1.
     999900   -1    0    0    0    0 -0.00000000000E+00 -0.00000000000E+00 -0.74505805969E-08  0.93827000000E+00  0.93827000000E+00 0. -1.
     999902    2    1    2    0    0 -0.19820968973E-01 -0.12487810214E-01  0.79166924940E-03  0.10204898004E+01  0.10202205594E+01 0.  0.
     999903    2    3    3    0    0  0.48356951871E-01  0.11551322753E+00 -0.20129876241E-01  0.12837422182E+00  0.19824943417E-01 0.  0.
         14    1    1    2    0    0  0.19820968973E-01  0.12487810214E-01 -0.79166924940E-03  0.23440199555E-01  0.00000000000E+00 0.  1.
     999901    1    3    3    0    0 -0.68177920844E-01 -0.12800103775E+00  0.20921545491E-01  0.89211557862E+00  0.88000000000E+00 0. -1.
        -11    1    4    4    0    0  0.35721529589E-01  0.60231017820E-01 -0.12859947128E-01  0.71200017872E-01  0.51100000000E-03 0.  1.
         11    1    4    4    0    0  0.12635422282E-01  0.55282209714E-01 -0.72699291136E-02  0.57174203951E-01  0.51100000000E-03 0. -1.
</event>
<event>
 8    1  0.1064884E+005  0.1043930E+01  0.7957747E-01            NaN
         13   -1    0    0    0    0  0.00000000000E+00  0.00000000000E+00  0.74505805969E-08  0.10566000000E+00  0.10566000000E+00 0. -1.
     999900   -1    0    0    0    0 -0.00000000000E+00 -0.00000000000E+00 -0.74505805969E-08  0.93827000000E+00  0.93827000000E+00 0.  1.
     999902    2    1    2    0    0 -0.23316029459E-01 -0.20213342629E-02  0.39447450797E-02  0.10201963944E+01  0.10199202905E+01 0.  0.
     999903    2    3    3    0    0 -0.11644760901E+00  0.28646916084E-01 -0.53376805840E-01  0.13289723801E+00  0.20782228591E-01 0.  0.
         14    1    1    2    0    0  0.23316029459E-01  0.20213342629E-02 -0.39447450797E-02  0.23733605619E-01  0.00000000000E+00 0.  1.
     999901    1    3    3    0    0  0.93131579550E-01 -0.30668250346E-01  0.57321550919E-01  0.88729915637E+00  0.88000000000E+00 0. -1.
        -11    1    4    4    0    0 -0.41342337920E-01  0.12734773578E-01 -0.29988625292E-01  0.52639739083E-01  0.51100000000E-03 0.  1.
         11    1    4    4    0    0 -0.75105271089E-01  0.15912142506E-01 -0.23388180547E-01  0.80257498932E-01  0.51100000000E-03 0. -1.
</event>
<event>
 8    1  0.1064884E+005  0.1043930E+01  0.7957747E-01            NaN
         13   -1    0    0    0    0  0.00000000000E+00  0.00000000000E+00  0.74505805969E-08  0.10566000000E+00  0.10566000000E+00 0.  1.
     999900   -1    0    0    0    0 -0.00000000000E+00 -0.00000000000E+00 -0.74505805969E-08  0.93827000000E+00  0.93827000000E+00 0.  1.
     999902    2    1    2    0    0  0.19274406728E-01 -0.61811625764E-02  0.13282509592E-01  0.10197197834E+01  0.10194323431E+01 0.  0.
     999903    2    3    3    0    0 -0.10209505528E-01 -0.61748192562E-01 -0.11071352755E+00  0.12880339390E+00  0.20390090930E-01 0.  0.
         14    1    1    2    0    0 -0.19274406728E-01  0.61811625764E-02 -0.13282509592E-01  0.24210216574E-01  0.00000000000E+00 0. -1.
     999901    1    3    3    0    0  0.29483912256E-01  0.55567029986E-01  0.12399603715E+00  0.89091638953E+00  0.88000000000E+00 0.  1.
        -11    1    4    4    0    0 -0.88422421140E-02 -0.11240172856E-01 -0.16086350458E-01  0.21530409274E-01  0.51100000000E-03 0.  1.
         11    1    4    4    0    0 -0.13672634140E-02 -0.50508019707E-01 -0.94627177095E-01  0.10727298462E+00  0.51100000000E-03 0. -1.
</event>
<event>
 8    1  0.1064884E+005  0.1043930E+01  0.7957747E-01            NaN
         13   -1    0    0    0    0  0.00000000000E+00  0.00000000000E+00  0.74505805969E-08  0.10566000000E+00  0.10566000000E+00 0.  1.
     999900   -1    0    0    0    0 -0.00000000000E+00 -0.00000000000E+00 -0.74505805969E-08  0.93827000000E+00  0.93827000000E+00 0.  1.
     999902    2    1    2    0    0 -0.58175349813E-02  0.20969726904E-01 -0.80343900035E-02  0.10207324876E+01  0.10204688563E+01 0.  0.
     999903    2    3    3    0    0 -0.11732809525E+00 -0.51116628613E-01 -0.15102363756E-01  0.13074315958E+00  0.22065827215E-01 0.  0.
         14    1    1    2    0    0  0.58175349813E-02 -0.20969726904E-01  0.80343900035E-02  0.23197512419E-01  0.00000000000E+00 0.  1.
     999901    1    3    3    0    0  0.11151056027E+00  0.72086355517E-01  0.70679737529E-02  0.88998932800E+00  0.88000000000E+00 0. -1.
        -11    1    4    4    0    0 -0.95337391206E-01 -0.38276910535E-01 -0.20366927839E-01  0.10473496509E+00  0.51100000000E-03 0.  1.
         11    1    4    4    0    0 -0.21990704042E-01 -0.12839718078E-01  0.52645640828E-02  0.26008194489E-01  0.51100000000E-03 0. -1.
</event>
<event>
 8    1  0.1064884E+005  0.1043930E+01  0.7957747E-01            NaN
         13   -1    0    0    0    0  0.00000000000E+00  0.00000000000E+00  0.74505805969E-08  0.10566000000E+00  0.10566000000E+00 0. -1.
     999900   -1    0    0    0    0 -0.00000000000E+00 -0.00000000000E+00 -0.74505805969E-08  0.93827000000E+00  0.93827000000E+00 0. -1.
     999902    2    1    2    0    0  0.21535283135E-01  0.63436340661E-02 -0.78078494220E-02  0.10201608472E+01  0.10198839059E+01 0.  0.
     999903    2    3    3    0    0 -0.94951608893E-01  0.82921168865E-01  0.17192768730E-01  0.12883691855E+00  0.20288716263E-01 0.  0.
         14    1    1    2    0    0 -0.21535283135E-01 -0.63436340661E-02  0.78078494220E-02  0.23769152814E-01  0.00000000000E+00 0.  1.
     999901    1    3    3    0    0  0.11648689203E+00 -0.76577534799E-01 -0.25000618152E-01  0.89132392864E+00  0.88000000000E+00 0.  1.
        -11    1    4    4    0    0 -0.66822143025E-01  0.47095742515E-01  0.62634091570E-02  0.81992067768E-01  0.51100000000E-03 0. -1.
         11    1    4    4    0    0 -0.28129465868E-01  0.35825426351E-01  0.10929359573E-01  0.46844850783E-01  0.51100000000E-03 0.  1.
</event>
<event>
 8    1  0.1064884E+005  0.1043930E+01  0.7957747E-01            NaN
         13   -1    0    0    0    0  0.00000000000E+00  0.00000000000E+00  0.74505805969E-08  0.10566000000E+00  0.10566000000E+00 0. -1.
     999900   -1    0    0    0    0 -0.00000000000E+00 -0.00000000000E+00 -0.74505805969E-08  0.93827000000E+00  0.93827000000E+00 0.  1.
     999902    2    1    2    0    0 -0.34145544636E-02 -0.10314439052E-01  0.20957641693E-01  0.10203234420E+01  0.10200503207E+01 0.  0.
     999903    2    3    3    0    0  0.67000187808E-01 -0.71103835789E-01  0.87602546306E-01  0.13291421848E+00  0.21147168234E-01 0.  0.
         14    1    1    2    0    0  0.34145544636E-02  0.10314439052E-01 -0.20957641693E-01  0.23606557997E-01  0.00000000000E+00 0.  1.
     999901    1    3    3    0    0 -0.70414742272E-01  0.60789396737E-01 -0.66644904614E-01  0.88740922352E+00  0.88000000000E+00 0.  1.
        -11    1    4    4    0    0  0.25415507745E-02 -0.12476577211E-01  0.13038063912E-01  0.18231201025E-01  0.51100000000E-03 0. -1.
         11    1    4    4    0    0  0.64458637034E-01 -0.58627258578E-01  0.74564482394E-01  0.11468301745E+00  0.51100000000E-03 0.  1.
</event>
<event>
 8    1  0.1064884E+005  0.1043930E+01  0.7957747E-01            NaN
         13   -1    0    0    0    0  0.00000000000E+00  0.00000000000E+00  0.74505805969E-08  0.10566000000E+00  0.10566000000E+00 0.  1.
     999900   -1    0    0    0    0 -0.00000000000E+00 -0.00000000000E+00 -0.74505805969E-08  0.93827000000E+00  0.93827000000E+00 0.  1.
     999902    2    1    2    0    0 -0.68387928982E-03 -0.16422492676E-01  0.15333126040E-01  0.10214517725E+01  0.10212044129E+01 0.  0.
     999903    2    3    3    0    0  0.10590070154E+00 -0.81457622415E-02  0.77229406635E-01  0.13282365756E+00  0.19910568299E-01 0.  0.
         14    1    1    2    0    0  0.68387928982E-03  0.16422492676E-01 -0.15333126040E-01  0.22478227483E-01  0.00000000000E+00 0. -1.
     999901    1    3    3    0    0 -0.10658458083E+00 -0.82767304349E-02 -0.61896280595E-01  0.88862811496E+00  0.88000000000E+00 0. -1.
        -11    1    4    4    0    0  0.45200042431E-01  0.45791643612E-02  0.39667100398E-01  0.60313784138E-01  0.51100000000E-03 0. -1.
         11    1    4    4    0    0  0.60700659108E-01 -0.12724926603E-01  0.37562306237E-01  0.72509873424E-01  0.51100000000E-03 0.  1.
</event>
<event>
 8    1  0.1064884E+005  0.1043930E+01  0.7957747E-01            NaN
         13   -1    0    0    0    0  0.00000000000E+00  0.00000000000E+00  0.74505805969E-08  0.10566000000E+00  0.10566000000E+00 0.  1.
     999900   -1    0    0    0    0 -0.00000000000E+00 -0.00000000000E+00 -0.74505805969E-08  0.93827000000E+00  0.93827000000E+00 0.  1.
     999902    2    1    2    0    0 -0.38175686366E-02 -0.18183574008E-01  0.63379394710E-03  0.10253391988E+01  0.10251706466E+01 0.  0.
     999903    2    3    3    0    0  0.57865779752E-01 -0.99600858320E-02 -0.12068169085E+00  0.13483939080E+00  0.13036066384E-01 0.  0.
         14    1    1    2    0    0  0.38175686366E-02  0.18183574008E-01 -0.63379394710E-03  0.18590801186E-01  0.00000000000E+00 0.  1.
     999901    1    3    3    0    0 -0.61683348389E-01 -0.82234881755E-02  0.12131548480E+00  0.89049980802E+00  0.88000000000E+00 0.  1.
        -11    1    4    4    0    0  0.40421148343E-01 -0.11975293647E-01 -0.77605325231E-01  0.88318313597E-01  0.51100000000E-03 0.  1.
         11    1    4    4    0    0  0.17444631409E-01  0.20152078146E-02 -0.43076365623E-01  0.46521077200E-01  0.51100000000E-03 0. -1.
</event>
<event>
 8    1  0.1064884E+005  0.1043930E+01  0.7957747E-01            NaN
         13   -1    0    0    0    0  0.00000000000E+00  0.00000000000E+00  0.74505805969E-08  0.10566000000E+00  0.10566000000E+00 0. -1.
     999900   -1    0    0    0    0 -0.00000000000E+00 -0.00000000000E+00 -0.74505805969E-08  0.93827000000E+00  0.93827000000E+00 0. -1.
     999902    2    1    2    0    0  0.60732112015E-02  0.10049440023E-01  0.19895740521E-01  0.10208277138E+01  0.10205662671E+01 0.  0.
     999903    2    3    3    0    0 -0.99091389267E-01  0.83226665723E-01  0.12395924178E-01  0.13151857358E+00  0.19942290363E-01 0.  0.
         14    1    1    2    0    0 -0.60732112015E-02 -0.10049440023E-01 -0.19895740521E-01  0.23102286249E-01  0.00000000000E+00 0.  1.
     999901    1    3    3    0    0  0.10516460047E+00 -0.73177225701E-01  0.74998163433E-02  0.88930914017E+00  0.88000000000E+00 0. -1.
        -11    1    4    4    0    0 -0.12997373398E-01  0.84424565957E-02 -0.47014336484E-02  0.16204054677E-01  0.51100000000E-03 0.  1.
         11    1    4    4    0    0 -0.86094015869E-01  0.74784209128E-01  0.17097357826E-01  0.11531451890E+00  0.51100000000E-03 0. -1.
</event>
<event>
 8    1  0.1064884E+005  0.1043930E+01  0.7957747E-01            NaN
         13   -1    0    0    0    0  0.00000000000E+00  0.00000000000E+00  0.74505805969E-08  0.10566000000E+00  0.10566000000E+00 0.  1.
     999900   -1    0    0    0    0 -0.00000000000E+00 -0.00000000000E+00 -0.74505805969E-08  0.93827000000E+00  0.93827000000E+00 0. -1.
     999902    2    1    2    0    0 -0.20051285114E-01 -0.56429224573E-02 -0.10903454587E-01  0.10204186851E+01  0.10201477887E+01 0.  0.
     999903    2    3    3    0    0 -0.64810863763E-01 -0.11301652662E+00  0.13334163912E-01  0.13243221393E+00  0.19680142455E-01 0.  0.
         14    1    1    2    0    0  0.20051285114E-01  0.56429224573E-02  0.10903454587E-01  0.23511314946E-01  0.00000000000E+00 0.  1.
     999901    1    3    3    0    0  0.44759578649E-01  0.10737360417E+00 -0.24237618498E-01  0.88798647113E+00  0.88000000000E+00 0.  1.
        -11    1    4    4    0    0 -0.27893548819E-01 -0.36962249949E-01 -0.26804782219E-02  0.46386464313E-01  0.51100000000E-03 0. -1.
         11    1    4    4    0    0 -0.36917314944E-01 -0.76054276674E-01  0.16014642134E-01  0.86045749615E-01  0.51100000000E-03 0.  1.
</event>
<event>
 8    1  0.1064884E+005  0.1043930E+01  0.7957747E-01            NaN
         13   -1    0    0    0    0  0.00000000000E+00  0.00000000000E+00  0.74505805969E-08  0.10566000000E+00  0.10566000000E+00 0.  1.
     999900   -1    0    0    0    0 -0.00000000000E+00 -0.00000000000E+00 -0.74505805969E-08  0.93827000000E+00  0.93827000000E+00 0. -1.
     999902    2    1    2    0    0 -0.75054018822E-02  0.92796361215E-02 -0.20249126781E-01  0.10204253230E+01  0.10201545814E+01 0.  0.
     999903    2    3    3    0    0  0.75248702151E-01  0.78815740603E-01  0.67214465647E-01  0.12950815990E+00  0.19501049886E-01 0.  0.
         14    1    1    2    0    0  0.75054018822E-02 -0.92796361215E-02  0.20249126781E-01  0.23504676968E-01  0.00000000000E+00 0.  1.
     999901    1    3    3    0    0 -0.82754104033E-01 -0.69536104481E-01 -0.87463592429E-01  0.89091716313E+00  0.88000000000E+00 0.  1.
        -11    1    4    4    0    0  0.31821975402E-01  0.46383872257E-01  0.29925634802E-01  0.63717395296E-01  0.51100000000E-03 0. -1.
         11    1    4    4    0    0  0.43426726749E-01  0.32431868346E-01  0.37288830846E-01  0.65790764605E-01  0.51100000000E-03 0.  1.
</event>
<event>
 8    1  0.1064884E+005  0.1043930E+01  0.7957747E-01            NaN
         13   -1    0    0    0    0  0.00000000000E+00  0.00000000000E+00  0.74505805969E-08  0.10566000000E+00  0.10566000000E+00 0.  1.
     999900   -1    0    0    0    0 -0.00000000000E+00 -0.00000000000E+00 -0.74505805969E-08  0.93827000000E+00  0.93827000000E+00 0.  1.
     999902    2    1    2    0    0 -0.15483264507E-01  0.13833713614E-01 -0.13380581632E-01  0.10192289256E+01  0.10189295656E+01 0.  0.
     999903    2    3    3    0    0 -0.37895668343E-01  0.77449876952E-01 -0.98547219544E-01  0.13254821175E+00  0.20564747491E-01 0.  0.
         14    1    1    2    0    0  0.15483264507E-01 -0.13833713614E-01  0.13380581632E-01  0.24701074409E-01  0.00000000000E+00 0.  1.
     999901    1    3    3    0    0  0.22412403836E-01 -0.63616163339E-01  0.85166637912E-01  0.88668071384E+00  0.88000000000E+00 0.  1.
        -11    1    4    4    0    0 -0.29446567311E-01  0.55872199470E-01 -0.57519015675E-01  0.85425413580E-01  0.51100000000E-03 0.  1.
         11    1    4    4    0    0 -0.84491010325E-02  0.21577677482E-01 -0.41028203868E-01  0.47122798171E-01  0.51100000000E-03 0. -1.
</event>
<event>
 8    1  0.1064884E+005  0.1043930E+01  0.7957747E-01            NaN
         13   -1    0    0    0    0  0.00000000000E+00  0.00000000000E+00  0.74505805969E-08  0.10566000000E+00  0.10566000000E+00 0.  1.
     999900   -1    0    0    0    0 -0.00000000000E+00 -0.00000000000E+00 -0.74505805969E-08  0.93827000000E+00  0.93827000000E+00 0. -1.
     999902    2    1    2    0    0  0.23448791869E-01  0.69164461170E-02  0.21035353819E-02  0.10193921124E+01  0.10190967427E+01 0.  0.
     999903    2    3    3    0    0  0.71329205919E-01 -0.99320901413E-01 -0.40776800846E-01  0.13067526700E+00  0.21465806367E-01 0.  0.
         14    1    1    2    0    0 -0.23448791869E-01 -0.69164461170E-02 -0.21035353819E-02  0.24537887605E-01  0.00000000000E+00 0.  1.
     999901    1    3    3    0    0 -0.47880414049E-01  0.10623734753E+00  0.42880336227E-01  0.88871684540E+00  0.88000000000E+00 0.  1.
        -11    1    4    4    0    0  0.54109998310E-01 -0.57704874836E-01 -0.25620691187E-01  0.83153024207E-01  0.51100000000E-03 0. -1.
         11    1    4    4    0    0  0.17219207609E-01 -0.41616026577E-01 -0.15156109658E-01  0.47522242789E-01  0.51100000000E-03 0.  1.
</event>
<event>
 8    1  0.1064884E+005  0.1043930E+01  0.7957747E-01            NaN
         13   -1    0    0    0    0  0.00000000000E+00  0.00000000000E+00  0.74505805969E-08  0.10566000000E+00  0.10566000000E+00 0. -1.
     999900   -1    0    0    0    0 -0.00000000000E+00 -0.00000000000E+00 -0.74505805969E-08  0.93827000000E+00  0.93827000000E+00 0.  1.
     999902    2    1    2    0    0  0.66698552676E-02  0.12947962897E-01 -0.18221029439E-01  0.10206031351E+01  0.10203365213E+01 0.  0.
     999903    2    3    3    0    0 -0.24592568058E-02  0.13041745742E+00 -0.15133363425E-01  0.13274506282E+00  0.19428635263E-01 0.  0.
         14    1    1    2    0    0 -0.66698552676E-02 -0.12947962897E-01  0.18221029439E-01  0.23326864904E-01  0.00000000000E+00 0. -1.
     999901    1    3    3    0    0  0.91291120734E-02 -0.11746949453E+00 -0.30876660136E-02  0.88785807228E+00  0.88000000000E+00 0. -1.
        -11    1    4    4    0    0 -0.63769478260E-03  0.11837958781E-01  0.41948261065E-02  0.12585770131E-01  0.51100000000E-03 0.  1.
         11    1    4    4    0    0 -0.18215620232E-02  0.11857949864E+00 -0.19328189532E-01  0.12015929268E+00  0.51100000000E-03 0. -1.
</event>
<event>
 8    1  0.1064884E+005  0.1043930E+01  0.7957747E-01            NaN
         13   -1    0    0    0    0  0.00000000000E+00  0.00000000000E+00  0.74505805969E-08  0.10566000000E+00  0.10566000000E+00 0.  1.
     999900   -1    0    0    0    0 -0.00000000000E+00 -0.00000000000E+00 -0.74505805969E-08  0.93827000000E+00  0.93827000000E+00 0. -1.
     999902    2    1    2    0    0 -0.76284218413E-02 -0.20355049856E-01  0.10134728244E-01  0.10199459722E+01  0.10196639410E+01 0.  0.
     999903    2    3    3    0    0  0.36901555036E-01 -0.11709058280E+00  0.46474933288E-01  0.13278122271E+00  0.19975092900E-01 0.  0.
         14    1    1    2    0    0  0.76284218413E-02  0.20355049856E-01 -0.10134728244E-01  0.23984027831E-01  0.00000000000E+00 0.  1.
     999901    1    3    3    0    0 -0.44529976877E-01  0.96735532945E-01 -0.36340205044E-01  0.88716474946E+00  0.88000000000E+00 0.  1.
        -11    1    4    4    0    0  0.20568115990E-01 -0.60690606054E-01  0.34763148158E-01  0.72904969991E-01  0.51100000000E-03 0.  1.
         11    1    4    4    0    0  0.16333439046E-01 -0.56399976746E-01  0.11711785131E-01  0.59876252722E-01  0.51100000000E-03 0. -1.
</event>
<event>
 8    1  0.1064884E+005  0.1043930E+01  0.7957747E-01            NaN
         13   -1    0    0    0    0  0.00000000000E+00  0.00000000000E+00  0.74505805969E-08  0.10566000000E+00  0.10566000000E+00 0. -1.
     999900   -1    0    0    0    0 -0.00000000000E+00 -0.00000000000E+00 -0.74505805969E-08  0.93827000000E+00  0.93827000000E+00 0.  1.
     999902    2    1    2    0    0  0.14661174035E-01 -0.55167020265E-02  0.17671395521E-01  0.10203151266E+01  0.10200418106E+01 0.  0.
     999903    2    3    3    0    0 -0.52078363033E-01 -0.93780912045E-01  0.73461840274E-01  0.13163221899E+00  0.20576290714E-01 0.  0.
         14    1    1    2    0    0 -0.14661174035E-01  0.55167020265E-02 -0.17671395521E-01  0.23614873385E-01  0.00000000000E+00 0.  1.
     999901    1    3    3    0    0  0.66739537068E-01  0.88264210019E-01 -0.55790444753E-01  0.88868290762E+00  0.88000000000E+00 0.  1.
        -11    1    4    4    0    0 -0.34846192315E-01 -0.42707587738E-01  0.33161937894E-01  0.64328612725E-01  0.51100000000E-03 0.  1.
         11    1    4    4    0    0 -0.17232170719E-01 -0.51073324307E-01  0.40299902380E-01  0.67303606265E-01  0.51100000000E-03 0. -1.
</event>
<event>
 8    1  0.1064884E+005  0.1043930E+01  0.7957747E-01            NaN
         13   -1    0    0    0    0  0.00000000000E+00  0.00000000000E+00  0.74505805969E-08  0.10566000000E+00  0.10566000000E+00 0.  1.
     999900   -1    0    0    0    0 -0.00000000000E+00 -0.00000000000E+00 -0.74505805969E-08  0.93827000000E+00  0.93827000000E+00 0. -1.
     999902    2    1    2    0    0  0.21475223284E-01  0.78469723060E-02  0.69646106270E-02  0.10200288287E+01  0.10197487658E+01 0.  0.
     999903    2    3    3    0    0 -0.61725134325E-01 -0.70949549515E-01 -0.84466716261E-01  0.12790166347E+00  0.19503296626E-01 0.  0.
         14    1    1    2    0    0 -0.21475223284E-01 -0.78469723060E-02 -0.69646106270E-02  0.23901171324E-01  0.00000000000E+00 0.  1.
     999901    1    3    3    0    0  0.83200357609E-01  0.78796521821E-01  0.91431326888E-01  0.89212716520E+00  0.88000000000E+00 0.  1.
        -11    1    4    4    0    0 -0.15957676363E-01 -0.21058284471E-01 -0.12982400941E-01  0.29443210337E-01  0.51100000000E-03 0. -1.
         11    1    4    4    0    0 -0.45767457963E-01 -0.49891265044E-01 -0.71484315321E-01  0.98458453136E-01  0.51100000000E-03 0.  1.
</event>
<event>
 8    1  0.1064884E+005  0.1043930E+01  0.7957747E-01            NaN
         13   -1    0    0    0    0  0.00000000000E+00  0.00000000000E+00  0.74505805969E-08  0.10566000000E+00  0.10566000000E+00 0.  1.
     999900   -1    0    0    0    0 -0.00000000000E+00 -0.00000000000E+00 -0.74505805969E-08  0.93827000000E+00  0.93827000000E+00 0. -1.
     999902    2    1    2    0    0  0.16911955798E-01 -0.86884339083E-03 -0.28943065073E-01  0.10103968798E+01  0.10098402767E+01 0.  0.
     999903    2    3    3    0    0 -0.70527252929E-01 -0.44780951422E-01  0.81072498081E-01  0.11816523237E+00  0.20269316215E-01 0.  0.
         14    1    1    2    0    0 -0.16911955798E-01  0.86884339083E-03  0.28943065073E-01  0.33533120248E-01  0.00000000000E+00 0.  1.
     999901    1    3    3    0    0  0.87439208726E-01  0.43912108032E-01 -0.11001556315E+00  0.89223164738E+00  0.88000000000E+00 0. -1.
        -11    1    4    4    0    0 -0.56159744547E-02 -0.30599973645E-02  0.15954759220E-01  0.17196459395E-01  0.51100000000E-03 0. -1.
         11    1    4    4    0    0 -0.64911278474E-01 -0.41720954058E-01  0.65117738861E-01  0.10096877297E+00  0.51100000000E-03 0.  1.
</event>
<event>
 8    1  0.1064884E+005  0.1043930E+01  0.7957747E-01            NaN
         13   -1    0    0    0    0  0.00000000000E+00  0.00000000000E+00  0.74505805969E-08  0.10566000000E+00  0.10566000000E+00 0.  1.
     999900   -1    0    0    0    0 -0.00000000000E+00 -0.00000000000E+00 -0.74505805969E-08  0.93827000000E+00  0.93827000000E+00 0. -1.
     999902    2    1    2    0    0  0.50323752805E-02  0.11985601284E-01 -0.19266303761E-01  0.10206884446E+01  0.10204237997E+01 0.  0.
     999903    2    3    3    0    0 -0.70661985702E-02  0.81196748595E-01  0.99375147947E-01  0.12995147301E+00  0.19212552254E-01 0.  0.
         14    1    1    2    0    0 -0.50323752805E-02 -0.11985601284E-01  0.19266303761E-01  0.23241555449E-01  0.00000000000E+00 0.  1.
     999901    1    3    3    0    0  0.12098573851E-01 -0.69211147311E-01 -0.11864145171E+00  0.89073697154E+00  0.88000000000E+00 0. -1.
        -11    1    4    4    0    0  0.26374613404E-02  0.60902301232E-01  0.77109056546E-01  0.98296053940E-01  0.51100000000E-03 0.  1.
         11    1    4    4    0    0 -0.97036599105E-02  0.20294447363E-01  0.22266091400E-01  0.31655419073E-01  0.51100000000E-03 0. -1.
</event>
<event>
 8    1  0.1326359E+005  0.1043930E+01  0.7957747E-01            NaN
         13   -1    0    0    0    0  0.00000000000E+00  0.00000000000E+00  0.74505805969E-08  0.10566000000E+00  0.10566000000E+00 0.  1.
     999900   -1    0    0    0    0 -0.00000000000E+00 -0.00000000000E+00 -0.74505805969E-08  0.93827000000E+00  0.93827000000E+00 0.  1.
     999902    2    1    2    0    0  0.15388390858E-01 -0.12643181358E-01 -0.87009934898E-02  0.10221961578E+01  0.10219650802E+01 0.  0.
     999903    2    3    3    0    0  0.11945728449E+00  0.56234553556E-02  0.55645095628E-01  0.13354300624E+00  0.20873231146E-01 0.  0.
         14    1    1    2    0    0 -0.15388390858E-01  0.12643181358E-01  0.87009934898E-02  0.21733842176E-01  0.00000000000E+00 0.  1.
     999901    1    3    3    0    0 -0.10406889364E+00 -0.18266636713E-01 -0.64346089118E-01  0.88865315159E+00  0.88000000000E+00 0.  1.
        -11    1    4    4    0    0  0.51020417556E-01  0.11598997489E-01  0.29267988952E-01  0.59954116194E-01  0.51100000000E-03 0. -1.
         11    1    4    4    0    0  0.68436866939E-01 -0.59755421335E-02  0.26377106676E-01  0.73588890043E-01  0.51100000000E-03 0.  1.
</event>
<event>
 8    1  0.1064884E+005  0.1043930E+01  0.7957747E-01            NaN
         13   -1    0    0    0    0  0.00000000000E+00  0.00000000000E+00  0.74505805969E-08  0.10566000000E+00  0.10566000000E+00 0. -1.
     999900   -1    0    0    0    0 -0.00000000000E+00 -0.00000000000E+00 -0.74505805969E-08  0.93827000000E+00  0.93827000000E+00 0.  1.
     999902    2    1    2    0    0 -0.14091521590E-01 -0.14811324856E-01 -0.13132514392E-01  0.10196316614E+01  0.10193420994E+01 0.  0.
     999903    2    3    3    0    0 -0.88472446153E-01  0.72044226105E-01  0.57564075931E-01  0.12942133987E+00  0.20457666824E-01 0.  0.
         14    1    1    2    0    0  0.14091521590E-01  0.14811324856E-01  0.13132514392E-01  0.24298338605E-01  0.00000000000E+00 0. -1.
     999901    1    3    3    0    0  0.74380924563E-01 -0.86855550960E-01 -0.70696590323E-01  0.89021032153E+00  0.88000000000E+00 0.  1.
        -11    1    4    4    0    0 -0.32088467607E-01  0.36363850029E-01  0.17332229835E-01  0.51504045029E-01  0.51100000000E-03 0.  1.
         11    1    4    4    0    0 -0.56383978546E-01  0.35680376076E-01  0.40231846096E-01  0.77917294838E-01  0.51100000000E-03 0. -1.
</event>
<event>
 8    1  0.1064884E+005  0.1043930E+01  0.7957747E-01            NaN
         13   -1    0    0    0    0  0.00000000000E+00  0.00000000000E+00  0.74505805969E-08  0.10566000000E+00  0.10566000000E+00 0. -1.
     999900   -1    0    0    0    0 -0.00000000000E+00 -0.00000000000E+00 -0.74505805969E-08  0.93827000000E+00  0.93827000000E+00 0. -1.
     999902    2    1    2    0    0  0.80688155707E-02 -0.24543980095E-01 -0.51563119774E-02  0.10175842167E+01  0.10172431065E+01 0.  0.
     999903    2    3    3    0    0  0.80115571282E-01  0.49446734300E-01 -0.84457929035E-01  0.12800335626E+00  0.19703632706E-01 0.  0.
         14    1    1    2    0    0 -0.80688155707E-02  0.24543980095E-01  0.51563119774E-02  0.26345783283E-01  0.00000000000E+00 0. -1.
     999901    1    3    3    0    0 -0.72046755712E-01 -0.73990714395E-01  0.79301617057E-01  0.88958086046E+00  0.88000000000E+00 0. -1.
        -11    1    4    4    0    0  0.54027729332E-01  0.38638373380E-01 -0.48329438611E-01  0.82145694907E-01  0.51100000000E-03 0.  1.
         11    1    4    4    0    0  0.26087841950E-01  0.10808360921E-01 -0.36128490424E-01  0.45857661352E-01  0.51100000000E-03 0. -1.
</event>
<event>
 8    1  0.1064884E+005  0.1043930E+01  0.7957747E-01            NaN
         13   -1    0    0    0    0  0.00000000000E+00  0.00000000000E+00  0.74505805969E-08  0.10566000000E+00  0.10566000000E+00 0.  1.
     999900   -1    0    0    0    0 -0.00000000000E+00 -0.00000000000E+00 -0.74505805969E-08  0.93827000000E+00  0.93827000000E+00 0. -1.
     999902    2    1    2    0    0  0.17039247549E-01  0.18206487997E-01 -0.43750663931E-02  0.10186129431E+01  0.10182982739E+01 0.  0.
     999903    2    3    3    0    0  0.12579790476E+00  0.29010937789E-02  0.30978428875E-01  0.13108121399E+00  0.19725425683E-01 0.  0.
         14    1    1    2    0    0 -0.17039247549E-01 -0.18206487997E-01  0.43750663931E-02  0.25317056862E-01  0.00000000000E+00 0. -1.
     999901    1    3    3    0    0 -0.10875865721E+00  0.15305394218E-01 -0.35353495268E-01  0.88753172914E+00  0.88000000000E+00 0.  1.
        -11    1    4    4    0    0  0.73994770835E-01 -0.90589471033E-03  0.85274930320E-02  0.74491784880E-01  0.51100000000E-03 0. -1.
         11    1    4    4    0    0  0.51803133928E-01  0.38069884892E-02  0.22450935843E-01  0.56589429113E-01  0.51100000000E-03 0.  1.
</event>
<event>
 8    1  0.1064884E+005  0.1043930E+01  0.7957747E-01            NaN
         13   -1    0    0    0    0  0.00000000000E+00  0.00000000000E+00  0.74505805969E-08  0.10566000000E+00  0.10566000000E+00 0. -1.
     999900   -1    0    0    0    0 -0.00000000000E+00 -0.00000000000E+00 -0.74505805969E-08  0.93827000000E+00  0.93827000000E+00 0. -1.
     999902    2    1    2    0    0 -0.16267279364E-01  0.67241905090E-02  0.14277723701E-01  0.10212652143E+01  0.10210136853E+01 0.  0.
     999903    2    3    3    0    0  0.33752595518E-01  0.12551553633E+00  0.82373495924E-02  0.13185537749E+00  0.20605802127E-01 0.  0.
         14    1    1    2    0    0  0.16267279364E-01 -0.67241905090E-02 -0.14277723701E-01  0.22664785681E-01  0.00000000000E+00 0.  1.
     999901    1    3    3    0    0 -0.50019874882E-01 -0.11879134582E+00  0.60403741081E-02  0.88940983683E+00  0.88000000000E+00 0. -1.
        -11    1    4    4    0    0  0.28050039501E-01  0.84879212522E-01  0.13758319591E-01  0.90447984573E-01  0.51100000000E-03 0. -1.
         11    1    4    4    0    0  0.57025560170E-02  0.40636323806E-01 -0.55209699991E-02  0.41407392919E-01  0.51100000000E-03 0.  1.
</event>
<event>
 8    1  0.1064884E+005  0.1043930E+01  0.7957747E-01            NaN
         13   -1    0    0    0    0  0.00000000000E+00  0.00000000000E+00  0.74505805969E-08  0.10566000000E+00  0.10566000000E+00 0.  1.
     999900   -1    0    0    0    0 -0.00000000000E+00 -0.00000000000E+00 -0.74505805969E-08  0.93827000000E+00  0.93827000000E+00 0. -1.
     999902    2    1    2    0    0  0.50893020993E-02  0.85362480544E-03 -0.21738280938E-01  0.10215876069E+01  0.10213432606E+01 0.  0.
     999903    2    3    3    0    0 -0.37556698108E-01 -0.96982230579E-02 -0.12681292311E+00  0.13424849289E+00  0.20894479494E-01 0.  0.
         14    1    1    2    0    0 -0.50893020993E-02 -0.85362480544E-03  0.21738280938E-01  0.22342393097E-01  0.00000000000E+00 0. -1.
     999901    1    3    3    0    0  0.42646000207E-01  0.10551847863E-01  0.10507464217E+00  0.88733911401E+00  0.88000000000E+00 0. -1.
        -11    1    4    4    0    0 -0.13733464958E-01 -0.13734795599E-01 -0.66281499031E-01  0.69070622588E-01  0.51100000000E-03 0. -1.
         11    1    4    4    0    0 -0.23823233149E-01  0.40365725409E-02 -0.60531424077E-01  0.65177870304E-01  0.51100000000E-03 0.  1.
</event>
<event>
 8    1  0.1064884E+005  0.1043930E+01  0.7957747E-01            NaN
         13   -1    0    0    0    0  0.00000000000E+00  0.00000000000E+00  0.74505805969E-08  0.10566000000E+00  0.10566000000E+00 0.  1.
     999900   -1    0    0    0    0 -0.00000000000E+00 -0.00000000000E+00 -0.74505805969E-08  0.93827000000E+00  0.93827000000E+00 0. -1.
     999902    2    1    2    0    0 -0.12035348442E-01 -0.13092805525E-01  0.15792326453E-01  0.10201462084E+01  0.10198689218E+01 0.  0.
     999903    2    3    3    0    0 -0.12174472450E+00 -0.73854634812E-02  0.48264228167E-01  0.13272120009E+00  0.20227659778E-01 0.  0.
         14    1    1    2    0    0  0.12035348442E-01  0.13092805525E-01 -0.15792326453E-01  0.23783791612E-01  0.00000000000E+00 0. -1.
     999901    1    3    3    0    0  0.10970937605E+00 -0.57073420440E-02 -0.32471901714E-01  0.88742500830E+00  0.88000000000E+00 0. -1.
        -11    1    4    4    0    0 -0.50422917633E-01 -0.12537546713E-01  0.23697650019E-01  0.57109547693E-01  0.51100000000E-03 0. -1.
         11    1    4    4    0    0 -0.71321806863E-01  0.51520832317E-02  0.24566578148E-01  0.75611652400E-01  0.51100000000E-03 0.  1.
</event>
<event>
 8    1  0.1064884E+005  0.1043930E+01  0.7957747E-01            NaN
         13   -1    0    0    0    0  0.00000000000E+00  0.00000000000E+00  0.74505805969E-08  0.10566000000E+00  0.10566000000E+00 0.  1.
     999900   -1    0    0    0    0 -0.00000000000E+00 -0.00000000000E+00 -0.74505805969E-08  0.93827000000E+00  0.93827000000E+00 0.  1.
     999902    2    1    2    0    0  0.15793332739E-01 -0.83996282334E-02 -0.15049741694E-01  0.10205531345E+01  0.10202853633E+01 0.  0.
     999903    2    3    3    0    0 -0.20414806728E-01  0.65141506710E-01 -0.11078217894E+00  0.13157392926E+00  0.19463490399E-01 0.  0.
         14    1    1    2    0    0 -0.15793332739E-01  0.83996282334E-02  0.15049741694E-01  0.23376865455E-01  0.00000000000E+00 0.  1.
     999901    1    3    3    0    0  0.36208139467E-01 -0.73541134944E-01  0.95732437250E-01  0.88897920529E+00  0.88000000000E+00 0. -1.
        -11    1    4    4    0    0 -0.15022571799E-01  0.61233068233E-01 -0.10608736361E+00  0.12340970848E+00  0.51100000000E-03 0. -1.
         11    1    4    4    0    0 -0.53922349291E-02  0.39084384776E-02 -0.46948153323E-02  0.81642207753E-02  0.51100000000E-03 0.  1.
</event>
<event>
 8    1  0.1064884E+005  0.1043930E+01  0.7957747E-01            NaN
         13   -1    0    0    0    0  0.00000000000E+00  0.00000000000E+00  0.74505805969E-08  0.10566000000E+00  0.10566000000E+00 0. -1.
     999900   -1    0    0    0    0 -0.00000000000E+00 -0.00000000000E+00 -0.74505805969E-08  0.93827000000E+00  0.93827000000E+00 0. -1.
     999902    2    1    2    0    0 -0.10637757116E-01  0.20619320775E-01 -0.48964728877E-02  0.10202172669E+01  0.10199416542E+01 0.  0.
     999903    2    3    3    0    0  0.43790597049E-01  0.97182984969E-01  0.74876519508E-01  0.13162952741E+00  0.18912703517E-01 0.  0.
         14    1    1    2    0    0  0.10637757116E-01 -0.20619320775E-01  0.48964728877E-02  0.23712733128E-01  0.00000000000E+00 0.  1.
     999901    1    3    3    0    0 -0.54428354165E-01 -0.76563664195E-01 -0.79772992395E-01  0.88858773947E+00  0.88000000000E+00 0. -1.
        -11    1    4    4    0    0  0.15300192148E-01  0.56719510692E-01  0.39407665237E-01  0.70741953418E-01  0.51100000000E-03 0.  1.
         11    1    4    4    0    0  0.28490404901E-01  0.40463474277E-01  0.35468854270E-01  0.60887573989E-01  0.51100000000E-03 0. -1.
</event>
<event>
 8    1  0.1064884E+005  0.1043930E+01  0.7957747E-01            NaN
         13   -1    0    0    0    0  0.00000000000E+00  0.00000000000E+00  0.74505805969E-08  0.10566000000E+00  0.10566000000E+00 0. -1.
     999900   -1    0    0    0    0 -0.00000000000E+00 -0.00000000000E+00 -0.74505805969E-08  0.93827000000E+00  0.93827000000E+00 0. -1.
     999902    2    1    2    0    0  0.94720399799E-02 -0.22362642488E-01 -0.30368325324E-02  0.10194549173E+01  0.10191610760E+01 0.  0.
     999903    2    3    3    0    0  0.67697527701E-01 -0.98584252348E-01 -0.54066410281E-01  0.13277348691E+00  0.20095074945E-01 0.  0.
         14    1    1    2    0    0 -0.94720399799E-02  0.22362642488E-01  0.30368325324E-02  0.24475082681E-01  0.00000000000E+00 0. -1.
     999901    1    3    3    0    0 -0.58225487722E-01  0.76221609861E-01  0.51029577749E-01  0.88668143041E+00  0.88000000000E+00 0. -1.
        -11    1    4    4    0    0  0.31736641960E-01 -0.62509007029E-01 -0.27343372350E-01  0.75249661362E-01  0.51100000000E-03 0. -1.
         11    1    4    4    0    0  0.35960885742E-01 -0.36075245319E-01 -0.26723037931E-01  0.57523825546E-01  0.51100000000E-03 0.  1.
</event>
<event>
 8    1  0.1064884E+005  0.1043930E+01  0.7957747E-01            NaN
         13   -1    0    0    0    0  0.00000000000E+00  0.00000000000E+00  0.74505805969E-08  0.10566000000E+00  0.10566000000E+00 0.  1.
     999900   -1    0    0    0    0 -0.00000000000E+00 -0.00000000000E+00 -0.74505805969E-08  0.93827000000E+00  0.93827000000E+00 0. -1.
     999902    2    1    2    0    0 -0.27404775458E-01 -0.20499842533E-03  0.70300804039E-02  0.10156371427E+01  0.10152429856E+01 0.  0.
     999903    2    3    3    0    0 -0.85734941260E-01  0.33845974217E-02 -0.92987602907E-01  0.12804555285E+00  0.19673171022E-01 0.  0.
         14    1    1    2    0    0  0.27404775458E-01  0.20499842533E-03 -0.70300804039E-02  0.28292857275E-01  0.00000000000E+00 0.  1.
     999901    1    3    3    0    0  0.58330165802E-01 -0.35895958470E-02  0.10001768331E+00  0.88759158987E+00  0.88000000000E+00 0. -1.
        -11    1    4    4    0    0 -0.32061990086E-01  0.10183356459E-01 -0.40682353411E-01  0.52791921325E-01  0.51100000000E-03 0. -1.
         11    1    4    4    0    0 -0.53672951173E-01 -0.67987590376E-02 -0.52305249496E-01  0.75253631527E-01  0.51100000000E-03 0.  1.
</event>
<event>
 8    1  0.1064884E+005  0.1043930E+01  0.7957747E-01            NaN
         13   -1    0    0    0    0  0.00000000000E+00  0.00000000000E+00  0.74505805969E-08  0.10566000000E+00  0.10566000000E+00 0. -1.
     999900   -1    0    0    0    0 -0.00000000000E+00 -0.00000000000E+00 -0.74505805969E-08  0.93827000000E+00  0.93827000000E+00 0.  1.
     999902    2    1    2    0    0 -0.58027046268E-02  0.99184934672E-02  0.21438839534E-01  0.10196056966E+01  0.10193155080E+01 0.  0.
     999903    2    3    3    0    0  0.10864199873E+00 -0.65648768162E-01  0.96763205150E-02  0.12890577073E+00  0.20253935416E-01 0.  0.
         14    1    1    2    0    0  0.58027046268E-02 -0.99184934672E-02 -0.21438839534E-01  0.24324303365E-01  0.00000000000E+00 0.  1.
     999901    1    3    3    0    0 -0.11444470335E+00  0.75567261629E-01  0.11762519019E-01  0.89069992591E+00  0.88000000000E+00 0. -1.
        -11    1    4    4    0    0  0.61081649114E-01 -0.31608702399E-01  0.14249815618E-01  0.70238139867E-01  0.51100000000E-03 0.  1.
         11    1    4    4    0    0  0.47560349613E-01 -0.34040065763E-01 -0.45734951029E-02  0.58667630861E-01  0.51100000000E-03 0. -1.
</event>
<event>
 8    1  0.1064884E+005  0.1043930E+01  0.7957747E-01            NaN
         13   -1    0    0    0    0  0.00000000000E+00  0.00000000000E+00  0.74505805969E-08  0.10566000000E+00  0.10566000000E+00 0.  1.
     999900   -1    0    0    0    0 -0.00000000000E+00 -0.00000000000E+00 -0.74505805969E-08  0.93827000000E+00  0.93827000000E+00 0. -1.
     999902    2    1    2    0    0 -0.17082566882E-01 -0.16302939684E-01  0.33620412112E-02  0.10200783071E+01  0.10197994162E+01 0.  0.
     999903    2    3    3    0    0 -0.14280037113E-01 -0.79931183081E-01 -0.10160728387E+00  0.13155426873E+00  0.19737578313E-01 0.  0.
         14    1    1    2    0    0  0.17082566882E-01  0.16302939684E-01 -0.33620412112E-02  0.23851692911E-01  0.00000000000E+00 0. -1.
     999901    1    3    3    0    0 -0.28025297687E-02  0.63628243397E-01  0.10496932508E+00  0.88852403836E+00  0.88000000000E+00 0.  1.
        -11    1    4    4    0    0 -0.95465078669E-02 -0.51174187365E-01 -0.79247327093E-01  0.94817367804E-01  0.51100000000E-03 0.  1.
         11    1    4    4    0    0 -0.47335292464E-02 -0.28756995716E-01 -0.22359956775E-01  0.36736900927E-01  0.51100000000E-03 0. -1.
</event>
<event>
 8    1  0.1064884E+005  0.1043930E+01  0.7957747E-01            NaN
         13   -1    0    0    0    0  0.00000000000E+00  0.00000000000E+00  0.74505805969E-08  0.10566000000E+00  0.10566000000E+00 0.  1.
     999900   -1    0    0    0    0 -0.00000000000E+00 -0.00000000000E+00 -0.74505805969E-08  0.93827000000E+00  0.93827000000E+00 0.  1.
     999902    2    1    2    0    0  0.17913973944E-01  0.13825355684E-01 -0.17838724209E-02  0.10212312528E+01  0.10209789609E+01 0.  0.
     999903    2    3    3    0    0  0.10106623703E+00  0.87439905683E-01  0.75861641003E-02  0.13420182919E+00  0.96155966281E-02 0.  0.
         14    1    1    2    0    0 -0.17913973944E-01 -0.13825355684E-01  0.17838724209E-02  0.22698747169E-01  0.00000000000E+00 0.  1.
     999901    1    3    3    0    0 -0.83152263083E-01 -0.73614549999E-01 -0.93700365213E-02  0.88702942364E+00  0.88000000000E+00 0. -1.
        -11    1    4    4    0    0  0.52045271500E-01  0.44285307717E-01  0.86323459463E-02  0.68881617886E-01  0.51100000000E-03 0. -1.
         11    1    4    4    0    0  0.49020965527E-01  0.43154597966E-01 -0.10461818460E-02  0.65320211300E-01  0.51100000000E-03 0.  1.
</event>
<event>
 8    1  0.1064884E+005  0.1043930E+01  0.7957747E-01            NaN
         13   -1    0    0    0    0  0.00000000000E+00  0.00000000000E+00  0.74505805969E-08  0.10566000000E+00  0.10566000000E+00 0. -1.
     999900   -1    0    0    0    0 -0.00000000000E+00 -0.00000000000E+00 -0.74505805969E-08  0.93827000000E+00  0.93827000000E+00 0. -1.
     999902    2    1    2    0    0  0.14210389537E-01 -0.15423562317E-01 -0.95405695101E-02  0.10208899498E+01  0.10206299260E+01 0.  0.
     999903    2    3    3    0    0 -0.72281732121E-01 -0.15065861539E-01  0.10428482182E+00  0.12935350370E+00  0.20133948325E-01 0.  0.
         14    1    1    2    0    0 -0.14210389537E-01  0.15423562317E-01  0.95405695101E-02  0.23040050172E-01  0.00000000000E+00 0. -1.
     999901    1    3    3    0    0  0.86492121658E-01 -0.35770077819E-03 -0.11382539133E+00  0.89153644613E+00  0.88000000000E+00 0. -1.
        -11    1    4    4    0    0 -0.22672909664E-01 -0.13857179955E-01  0.30803922342E-01  0.40684456757E-01  0.51100000000E-03 0.  1.
         11    1    4    4    0    0 -0.49608822457E-01 -0.12086815837E-02  0.73480899481E-01  0.88669046946E-01  0.51100000000E-03 0. -1.
</event>
<event>
 8    1  0.1064884E+005  0.1043930E+01  0.7957747E-01            NaN
         13   -1    0    0    0    0  0.00000000000E+00  0.00000000000E+00  0.74505805969E-08  0.10566000000E+00  0.10566000000E+00 0. -1.
     999900   -1    0    0    0    0 -0.00000000000E+00 -0.00000000000E+00 -0.74505805969E-08  0.93827000000E+00  0.93827000000E+00 0. -1.
     999902    2    1    2    0    0  0.13038403205E-02  0.10752335929E-01 -0.21229248506E-01  0.10200973812E+01  0.10198189415E+01 0.  0.
     999903    2    3    3    0    0 -0.11696048346E+00  0.35077062382E-01  0.39199701740E-01  0.12979979014E+00  0.20030324657E-01 0.  0.
         14    1    1    2    0    0 -0.13038403205E-02 -0.10752335929E-01  0.21229248506E-01  0.23832618816E-01  0.00000000000E+00 0. -1.
     999901    1    3    3    0    0  0.11826432378E+00 -0.24324726453E-01 -0.60428950246E-01  0.89029759105E+00  0.88000000000E+00 0. -1.
        -11    1    4    4    0    0 -0.17980647147E-01  0.68935234003E-02 -0.10533912127E-02  0.19292358351E-01  0.51100000000E-03 0. -1.
         11    1    4    4    0    0 -0.98979836315E-01  0.28183538982E-01  0.40253092953E-01  0.11050743179E+00  0.51100000000E-03 0.  1.
</event>
<event>
 8    1  0.1064884E+005  0.1043930E+01  0.7957747E-01            NaN
         13   -1    0    0    0    0  0.00000000000E+00  0.00000000000E+00  0.74505805969E-08  0.10566000000E+00  0.10566000000E+00 0. -1.
     999900   -1    0    0    0    0 -0.00000000000E+00 -0.00000000000E+00 -0.74505805969E-08  0.93827000000E+00  0.93827000000E+00 0.  1.
     999902    2    1    2    0    0 -0.16361730209E-02  0.10565704889E-01  0.21886463362E-01  0.10195716655E+01  0.10192806545E+01 0.  0.
     999903    2    3    3    0    0  0.29452537700E-01 -0.12105549888E+00 -0.23798920427E-01  0.12806855079E+00  0.17699697805E-01 0.  0.
         14    1    1    2    0    0  0.16361730209E-02 -0.10565704889E-01 -0.21886463362E-01  0.24358334517E-01  0.00000000000E+00 0.  1.
     999901    1    3    3    0    0 -0.31088710721E-01  0.13162120377E+00  0.45685383789E-01  0.89150311469E+00  0.88000000000E+00 0.  1.
        -11    1    4    4    0    0  0.12517696765E-01 -0.70036601542E-01 -0.21232147171E-01  0.74248794484E-01  0.51100000000E-03 0.  1.
         11    1    4    4    0    0  0.16934840934E-01 -0.51018897336E-01 -0.25667732552E-02  0.53819756305E-01  0.51100000000E-03 0. -1.
</event>
<event>
 8    1  0.1064884E+005  0.1043930E+01  0.7957747E-01            NaN
         13   -1    0    0    0    0  0.00000000000E+00  0.00000000000E+00  0.74505805969E-08  0.10566000000E+00  0.10566000000E+00 0. -1.
     999900   -1    0    0    0    0 -0.00000000000E+00 -0.00000000000E+00 -0.74505805969E-08  0.93827000000E+00  0.93827000000E+00 0.  1.
     999902    2    1    2    0    0 -0.37151046620E-02  0.21126260598E-01  0.62808091880E-02  0.10215789496E+01  0.10213344119E+01 0.  0.
     999903    2    3    3    0    0 -0.22317815889E-01  0.65792124060E-01 -0.11136146292E+00  0.13243283990E+00  0.17617978510E-01 0.  0.
         14    1    1    2    0    0  0.37151046620E-02 -0.21126260598E-01 -0.62808091880E-02  0.22351050391E-01  0.00000000000E+00 0.  1.
     999901    1    3    3    0    0  0.18602711227E-01 -0.44665863462E-01  0.11764227210E+00  0.88914610971E+00  0.88000000000E+00 0. -1.
        -11    1    4    4    0    0 -0.91003639978E-02  0.29990579786E-01 -0.66606644032E-01  0.73613569747E-01  0.51100000000E-03 0.  1.
         11    1    4    4    0    0 -0.13217451891E-01  0.35801544275E-01 -0.44754818885E-01  0.58819270153E-01  0.51100000000E-03 0. -1.
</event>
<event>
 8    1  0.1064884E+005  0.1043930E+01  0.7957747E-01            NaN
         13   -1    0    0    0    0  0.00000000000E+00  0.00000000000E+00  0.74505805969E-08  0.10566000000E+00  0.10566000000E+00 0.  1.
     999900   -1    0    0    0    0 -0.00000000000E+00 -0.00000000000E+00 -0.74505805969E-08  0.93827000000E+00  0.93827000000E+00 0. -1.
     999902    2    1    2    0    0  0.12220411236E-01 -0.13174477383E-01 -0.14484415007E-01  0.10208496277E+01  0.10205886825E+01 0.  0.
     999903    2    3    3    0    0 -0.69319486658E-01  0.67641212832E-01  0.81557965379E-01  0.12821080406E+00  0.20144072488E-01 0.  0.
         14    1    1    2    0    0 -0.12220411236E-01  0.13174477383E-01  0.14484415007E-01  0.23080372250E-01  0.00000000000E+00 0.  1.
     999901    1    3    3    0    0  0.81539897894E-01 -0.80815690214E-01 -0.96042380386E-01  0.89263882369E+00  0.88000000000E+00 0.  1.
        -11    1    4    4    0    0 -0.12673407855E-01  0.24207022115E-01  0.18886101351E-01  0.33219589576E-01  0.51100000000E-03 0.  1.
         11    1    4    4    0    0 -0.56646078802E-01  0.43434190716E-01  0.62671864028E-01  0.94991214481E-01  0.51100000000E-03 0. -1.
</event>
<event>
 8    1  0.1064884E+005  0.1043930E+01  0.7957747E-01            NaN
         13   -1    0    0    0    0  0.00000000000E+00  0.00000000000E+00  0.74505805969E-08  0.10566000000E+00  0.10566000000E+00 0. -1.
     999900   -1    0    0    0    0 -0.00000000000E+00 -0.00000000000E+00 -0.74505805969E-08  0.93827000000E+00  0.93827000000E+00 0. -1.
     999902    2    1    2    0    0  0.10255906111E-02  0.16315805413E-01  0.15473764323E-01  0.10214201194E+01  0.10211720548E+01 0.  0.
     999903    2    3    3    0    0  0.12478215432E+00  0.17759313417E-01  0.35449846777E-01  0.13253496672E+00  0.20563232188E-01 0.  0.
         14    1    1    2    0    0 -0.10255906111E-02 -0.16315805413E-01 -0.15473764323E-01  0.22509880601E-01  0.00000000000E+00 0.  1.
     999901    1    3    3    0    0 -0.12375656371E+00 -0.14435080043E-02 -0.19976082454E-01  0.88888515268E+00  0.88000000000E+00 0. -1.
        -11    1    4    4    0    0  0.92134608832E-01  0.20740337264E-01  0.21238512414E-01  0.96800223476E-01  0.51100000000E-03 0. -1.
         11    1    4    4    0    0  0.32647545488E-01 -0.29810238470E-02  0.14211334363E-01  0.35734743247E-01  0.51100000000E-03 0.  1.
</event>
<event>
 8    1  0.1064884E+005  0.1043930E+01  0.7957747E-01            NaN
         13   -1    0    0    0    0  0.00000000000E+00  0.00000000000E+00  0.74505805969E-08  0.10566000000E+00  0.10566000000E+00 0. -1.
     999900   -1    0    0    0    0 -0.00000000000E+00 -0.00000000000E+00 -0.74505805969E-08  0.93827000000E+00  0.93827000000E+00 0. -1.
     999902    2    1    2    0    0 -0.16877022790E-01 -0.48128519640E-02 -0.16838220165E-01  0.10196087521E+01  0.10193186372E+01 0.  0.
     999903    2    3    3    0    0 -0.29459951963E-02  0.23643585748E-01  0.12415710988E+00  0.12782204805E+00  0.18862396426E-01 0.  0.
         14    1    1    2    0    0  0.16877022790E-01  0.48128519640E-02  0.16838220165E-01  0.24321247924E-01  0.00000000000E+00 0. -1.
     999901    1    3    3    0    0 -0.13931027593E-01 -0.28456437712E-01 -0.14099533005E+00  0.89178670402E+00  0.88000000000E+00 0. -1.
        -11    1    4    4    0    0 -0.95922558831E-02  0.19451031456E-01  0.10268363356E+00  0.10495019638E+00  0.51100000000E-03 0. -1.
         11    1    4    4    0    0  0.66462606869E-02  0.41925542914E-02  0.21473476326E-01  0.22871851677E-01  0.51100000000E-03 0.  1.
</event>
<event>
 8    1  0.1064884E+005  0.1043930E+01  0.7957747E-01            NaN
         13   -1    0    0    0    0  0.00000000000E+00  0.00000000000E+00  0.74505805969E-08  0.10566000000E+00  0.10566000000E+00 0. -1.
     999900   -1    0    0    0    0 -0.00000000000E+00 -0.00000000000E+00 -0.74505805969E-08  0.93827000000E+00  0.93827000000E+00 0.  1.
     999902    2    1    2    0    0 -0.80939119189E-02 -0.71889729607E-02 -0.21226099927E-01  0.10201027035E+01  0.10198243896E+01 0.  0.
     999903    2    3    3    0    0 -0.91282779819E-01  0.25581281517E-01 -0.90354532672E-01  0.13287498887E+00  0.22469384436E-01 0.  0.
         14    1    1    2    0    0  0.80939119189E-02  0.71889729607E-02  0.21226099927E-01  0.23827296542E-01  0.00000000000E+00 0. -1.
     999901    1    3    3    0    0  0.83188867901E-01 -0.32770254478E-01  0.69128432745E-01  0.88722771459E+00  0.88000000000E+00 0. -1.
        -11    1    4    4    0    0 -0.34754851521E-01  0.72530167485E-02 -0.19897160979E-01  0.40702138669E-01  0.51100000000E-03 0.  1.
         11    1    4    4    0    0 -0.56527928298E-01  0.18328264768E-01 -0.70457371693E-01  0.92172850200E-01  0.51100000000E-03 0. -1.
</event>
<event>
 8    1  0.1064884E+005  0.1043930E+01  0.7957747E-01            NaN
         13   -1    0    0    0    0  0.00000000000E+00  0.00000000000E+00  0.74505805969E-08  0.10566000000E+00  0.10566000000E+00 0. -1.
     999900   -1    0    0    0    0 -0.00000000000E+00 -0.00000000000E+00 -0.74505805969E-08  0.93827000000E+00  0.93827000000E+00 0. -1.
     999902    2    1    2    0    0 -0.53177912474E-02  0.72245243168E-02  0.15642800369E-01  0.10258975332E+01  0.10257390403E+01 0.  0.
     999903    2    3    3    0    0 -0.56168854800E-01  0.15832448165E-01 -0.11902956879E+00  0.13415958177E+00  0.20619128727E-01 0.  0.
         14    1    1    2    0    0  0.53177912474E-02 -0.72245243168E-02 -0.15642800369E-01  0.18032466796E-01  0.00000000000E+00 0.  1.
     999901    1    3    3    0    0  0.50851063552E-01 -0.86079238482E-02  0.13467236916E+00  0.89173795144E+00  0.88000000000E+00 0.  1.
        -11    1    4    4    0    0 -0.22690568976E-01  0.26319340265E-02 -0.67838790423E-01  0.71583179618E-01  0.51100000000E-03 0.  1.
         11    1    4    4    0    0 -0.33478285824E-01  0.13200514138E-01 -0.51190778366E-01  0.62576402149E-01  0.51100000000E-03 0. -1.
</event>
<event>
 8    1  0.1064884E+005  0.1043930E+01  0.7957747E-01            NaN
         13   -1    0    0    0    0  0.00000000000E+00  0.00000000000E+00  0.74505805969E-08  0.10566000000E+00  0.10566000000E+00 0.  1.
     999900   -1    0    0    0    0 -0.00000000000E+00 -0.00000000000E+00 -0.74505805969E-08  0.93827000000E+00  0.93827000000E+00 0. -1.
     999902    2    1    2    0    0  0.14748817272E-01  0.15377069796E-01 -0.10358730240E-01  0.10202385421E+01  0.10199634295E+01 0.  0.
     999903    2    3    3    0    0 -0.70745786905E-01  0.92373154852E-01 -0.57930242601E-01  0.13147492151E+00  0.19798380626E-01 0.  0.
         14    1    1    2    0    0 -0.14748817272E-01 -0.15377069796E-01  0.10358730240E-01  0.23691457925E-01  0.00000000000E+00 0.  1.
     999901    1    3    3    0    0  0.85494604176E-01 -0.76996085056E-01  0.47571512361E-01  0.88876362057E+00  0.88000000000E+00 0.  1.
        -11    1    4    4    0    0 -0.10780881744E-01  0.13614281976E-01 -0.12785669791E-02  0.17420446016E-01  0.51100000000E-03 0. -1.
         11    1    4    4    0    0 -0.59964905161E-01  0.78758872876E-01 -0.56651675622E-01  0.11405447549E+00  0.51100000000E-03 0.  1.
</event>
<event>
 8    1  0.1064884E+005  0.1043930E+01  0.7957747E-01            NaN
         13   -1    0    0    0    0  0.00000000000E+00  0.00000000000E+00  0.74505805969E-08  0.10566000000E+00  0.10566000000E+00 0. -1.
     999900   -1    0    0    0    0 -0.00000000000E+00 -0.00000000000E+00 -0.74505805969E-08  0.93827000000E+00  0.93827000000E+00 0.  1.
     999902    2    1    2    0    0 -0.21919068992E-01 -0.70859112076E-03 -0.87785013262E-02  0.10203077695E+01  0.10200342812E+01 0.  0.
     999903    2    3    3    0    0 -0.37013049979E-01  0.72431098683E-02  0.12324638688E+00  0.13029561854E+00  0.19100990060E-01 0.  0.
         14    1    1    2    0    0  0.21919068992E-01  0.70859112076E-03  0.87785013262E-02  0.23622230470E-01  0.00000000000E+00 0. -1.
     999901    1    3    3    0    0  0.15093980987E-01 -0.79517009890E-02 -0.13202488821E+00  0.89001215099E+00  0.88000000000E+00 0.  1.
        -11    1    4    4    0    0 -0.10756049494E-01  0.61056944203E-02  0.67960547448E-01  0.69078717674E-01  0.51100000000E-03 0.  1.
         11    1    4    4    0    0 -0.26257000485E-01  0.11374154480E-02  0.55285839433E-01  0.61216900862E-01  0.51100000000E-03 0. -1.
</event>
<event>
 8    1  0.1064884E+005  0.1043930E+01  0.7957747E-01            NaN
         13   -1    0    0    0    0  0.00000000000E+00  0.00000000000E+00  0.74505805969E-08  0.10566000000E+00  0.10566000000E+00 0.  1.
     999900   -1    0    0    0    0 -0.00000000000E+00 -0.00000000000E+00 -0.74505805969E-08  0.93827000000E+00  0.93827000000E+00 0.  1.
     999902    2    1    2    0    0 -0.16701078889E-01 -0.80852388224E-02  0.19084991826E-01  0.10173116974E+01  0.10169633993E+01 0.  0.
     999903    2    3    3    0    0 -0.90839832474E-01  0.20770426243E-01 -0.84947787333E-01  0.12761960268E+00  0.19681225675E-01 0.  0.
         14    1    1    2    0    0  0.16701078889E-01  0.80852388224E-02 -0.19084991826E-01  0.26618302649E-01  0.00000000000E+00 0. -1.
     999901    1    3    3    0    0  0.74138753585E-01 -0.28855665066E-01  0.10403277916E+00  0.88969209468E+00  0.88000000000E+00 0. -1.
        -11    1    4    4    0    0 -0.69902918041E-01  0.23125644243E-01 -0.71408130598E-01  0.10256995471E+00  0.51100000000E-03 0.  1.
         11    1    4    4    0    0 -0.20936914433E-01 -0.23552179993E-02 -0.13539656735E-01  0.25049647968E-01  0.51100000000E-03 0. -1.
</event>
<event>
 8    1  0.1064884E+005  0.1043930E+01  0.7957747E-01            NaN
         13   -1    0    0    0    0  0.00000000000E+00  0.00000000000E+00  0.74505805969E-08  0.10566000000E+00  0.10566000000E+00 0.  1.
     999900   -1    0    0    0    0 -0.00000000000E+00 -0.00000000000E+00 -0.74505805969E-08  0.93827000000E+00  0.93827000000E+00 0. -1.
     999902    2    1    2    0    0  0.26581826450E-02  0.23178593584E-01 -0.28324931233E-02  0.10204281670E+01  0.10201574917E+01 0.  0.
     999903    2    3    3    0    0 -0.12065423264E+00  0.10586112496E-02 -0.45990319254E-01  0.13050803391E+00  0.18938662504E-01 0.  0.
         14    1    1    2    0    0 -0.26581826450E-02 -0.23178593584E-01  0.28324931233E-02  0.23501832967E-01  0.00000000000E+00 0.  1.
     999901    1    3    3    0    0  0.12331241529E+00  0.22119982335E-01  0.43157826130E-01  0.88992013312E+00  0.88000000000E+00 0. -1.
        -11    1    4    4    0    0 -0.56839456002E-01 -0.55542858539E-02 -0.13937842924E-01  0.58788591039E-01  0.51100000000E-03 0.  1.
         11    1    4    4    0    0 -0.63814776641E-01  0.66128971036E-02 -0.32052476329E-01  0.71719442870E-01  0.51100000000E-03 0. -1.
</event>
<event>
 8    1  0.1064884E+005  0.1043930E+01  0.7957747E-01            NaN
         13   -1    0    0    0    0  0.00000000000E+00  0.00000000000E+00  0.74505805969E-08  0.10566000000E+00  0.10566000000E+00 0. -1.
     999900   -1    0    0    0    0 -0.00000000000E+00 -0.00000000000E+00 -0.74505805969E-08  0.93827000000E+00  0.93827000000E+00 0. -1.
     999902    2    1    2    0    0  0.10997142675E-02 -0.95279289078E-02  0.21817397987E-01  0.10200974664E+01  0.10198190287E+01 0.  0.
     999903    2    3    3    0    0  0.21974359011E-01 -0.74668112594E-01 -0.10108256013E+00  0.12892778898E+00  0.18614277252E-01 0.  0.
         14    1    1    2    0    0 -0.10997142675E-02  0.95279289078E-02 -0.21817397987E-01  0.23832533555E-01  0.00000000000E+00 0.  1.
     999901    1    3    3    0    0 -0.20874644744E-01  0.65140183687E-01  0.12289995811E+00  0.89116967746E+00  0.88000000000E+00 0.  1.
        -11    1    4    4    0    0  0.24211415439E-02 -0.35220592383E-01 -0.36675643899E-01  0.50908899326E-01  0.51100000000E-03 0.  1.
         11    1    4    4    0    0  0.19553217468E-01 -0.39447520211E-01 -0.64406916228E-01  0.78018889656E-01  0.51100000000E-03 0. -1.
</event>
<event>
 8    1  0.1064884E+005  0.1043930E+01  0.7957747E-01            NaN
         13   -1    0    0    0    0  0.00000000000E+00  0.00000000000E+00  0.74505805969E-08  0.10566000000E+00  0.10566000000E+00 0. -1.
     999900   -1    0    0    0    0 -0.00000000000E+00 -0.00000000000E+00 -0.74505805969E-08  0.93827000000E+00  0.93827000000E+00 0. -1.
     999902    2    1    2    0    0 -0.58939202388E-02  0.11032366556E-01  0.20209293072E-01  0.10201630706E+01  0.10198861817E+01 0.  0.
     999903    2    3    3    0    0  0.31587609954E-01 -0.12315708335E+00  0.10506538470E-01  0.12914914419E+00  0.20091535837E-01 0.  0.
         14    1    1    2    0    0  0.58939202388E-02 -0.11032366556E-01 -0.20209293072E-01  0.23766929421E-01  0.00000000000E+00 0. -1.
     999901    1    3    3    0    0 -0.37481530193E-01  0.13418944991E+00  0.97027546020E-02  0.89101392639E+00  0.88000000000E+00 0.  1.
        -11    1    4    4    0    0  0.16869995778E-01 -0.41536966966E-01 -0.37626421162E-02  0.44992610270E-01  0.51100000000E-03 0. -1.
         11    1    4    4    0    0  0.14717614176E-01 -0.81620116385E-01  0.14269180586E-01  0.84156533920E-01  0.51100000000E-03 0.  1.
</event>
<event>
 8    1  0.1064884E+005  0.1043930E+01  0.7957747E-01            NaN
         13   -1    0    0    0    0  0.00000000000E+00  0.00000000000E+00  0.74505805969E-08  0.10566000000E+00  0.10566000000E+00 0. -1.
     999900   -1    0    0    0    0 -0.00000000000E+00 -0.00000000000E+00 -0.74505805969E-08  0.93827000000E+00  0.93827000000E+00 0. -1.
     999902    2    1    2    0    0  0.22803590767E-01 -0.59515238749E-02 -0.14028007864E-03  0.10203621391E+01  0.10200899229E+01 0.  0.
     999903    2    3    3    0    0 -0.67793972075E-01 -0.70302616969E-01  0.82274955855E-01  0.12955281457E+00  0.21823904326E-01 0.  0.
         14    1    1    2    0    0 -0.22803590767E-01  0.59515238749E-02  0.14028007864E-03  0.23567860887E-01  0.00000000000E+00 0. -1.
     999901    1    3    3    0    0  0.90597562842E-01  0.64351093094E-01 -0.82415235934E-01  0.89080932454E+00  0.88000000000E+00 0. -1.
        -11    1    4    4    0    0 -0.33448379529E-02 -0.10874768370E-01  0.16063143425E-01  0.19690968126E-01  0.51100000000E-03 0. -1.
         11    1    4    4    0    0 -0.64449134122E-01 -0.59427848599E-01  0.66211812430E-01  0.10986184645E+00  0.51100000000E-03 0.  1.
</event>
<event>
 8    1  0.1064884E+005  0.1043930E+01  0.7957747E-01            NaN
         13   -1    0    0    0    0  0.00000000000E+00  0.00000000000E+00  0.74505805969E-08  0.10566000000E+00  0.10566000000E+00 0. -1.
     999900   -1    0    0    0    0 -0.00000000000E+00 -0.00000000000E+00 -0.74505805969E-08  0.93827000000E+00  0.93827000000E+00 0. -1.
     999902    2    1    2    0    0  0.11257626809E-02 -0.18931530585E-01  0.14009879002E-01  0.10203514737E+01  0.10200790082E+01 0.  0.
     999903    2    3    3    0    0  0.12722915147E+00  0.11355719925E-01 -0.15556432160E-01  0.13035509790E+00  0.20838416656E-01 0.  0.
         14    1    1    2    0    0 -0.11257626809E-02  0.18931530585E-01 -0.14009879002E-01  0.23578526281E-01  0.00000000000E+00 0.  1.
     999901    1    3    3    0    0 -0.12610338879E+00 -0.30287250510E-01  0.29566311163E-01  0.88999637582E+00  0.88000000000E+00 0. -1.
        -11    1    4    4    0    0  0.44234214646E-01  0.65762921403E-02 -0.15151352125E-01  0.47220101184E-01  0.51100000000E-03 0. -1.
         11    1    4    4    0    0  0.82994936827E-01  0.47794277842E-02 -0.40508003514E-03  0.83134996720E-01  0.51100000000E-03 0.  1.
</event>
<event>
 8    1  0.1064884E+005  0.1043930E+01  0.7957747E-01            NaN
         13   -1    0    0    0    0  0.00000000000E+00  0.00000000000E+00  0.74505805969E-08  0.10566000000E+00  0.10566000000E+00 0.  1.
     999900   -1    0    0    0    0 -0.00000000000E+00 -0.00000000000E+00 -0.74505805969E-08  0.93827000000E+00  0.93827000000E+00 0. -1.
     999902    2    1    2    0    0  0.13105687799E-01 -0.16974057737E-01 -0.11433740952E-01  0.10196275697E+01  0.10193379090E+01 0.  0.
     999903    2    3    3    0    0  0.81550810331E-01 -0.29702557816E-01 -0.98538994471E-01  0.13259088794E+00  0.18374806839E-01 0.  0.
         14    1    1    2    0    0 -0.13105687799E-01  0.16974057737E-01  0.11433740952E-01  0.24302430350E-01  0.00000000000E+00 0.  1.
     999901    1    3    3    0    0 -0.68445122532E-01  0.12728500079E-01  0.87105253519E-01  0.88703668171E+00  0.88000000000E+00 0.  1.
        -11    1    4    4    0    0  0.16768398584E-01 -0.45077732968E-02 -0.31757814968E-01  0.36198330676E-01  0.51100000000E-03 0. -1.
         11    1    4    4    0    0  0.64782411747E-01 -0.25194784519E-01 -0.66781179503E-01  0.96392557262E-01  0.51100000000E-03 0.  1.
</event>
<event>
 8    1  0.1064884E+005  0.1043930E+01  0.7957747E-01            NaN
         13   -1    0    0    0    0  0.00000000000E+00  0.00000000000E+00  0.74505805969E-08  0.10566000000E+00  0.10566000000E+00 0.  1.
     999900   -1    0    0    0    0 -0.00000000000E+00 -0.00000000000E+00 -0.74505805969E-08  0.93827000000E+00  0.93827000000E+00 0. -1.
     999902    2    1    2    0    0 -0.22384542806E-01 -0.57938402334E-02 -0.85796666700E-03  0.10207918832E+01  0.10205296156E+01 0.  0.
     999903    2    3    3    0    0  0.21368698713E-01 -0.89963156692E-01 -0.90814510691E-01  0.13113408396E+00  0.19972024855E-01 0.  0.
         14    1    1    2    0    0  0.22384542806E-01  0.57938402334E-02  0.85796666700E-03  0.23138116779E-01  0.00000000000E+00 0. -1.
     999901    1    3    3    0    0 -0.43753241519E-01  0.84169316459E-01  0.89956544024E-01  0.88965779926E+00  0.88000000000E+00 0.  1.
        -11    1    4    4    0    0  0.17404699649E-01 -0.81460613926E-01 -0.72001283383E-01  0.11010540914E+00  0.51100000000E-03 0. -1.
         11    1    4    4    0    0  0.39639990641E-02 -0.85025427662E-02 -0.18813227307E-01  0.21028674823E-01  0.51100000000E-03 0.  1.
</event>
<event>
 8    1  0.1064884E+005  0.1043930E+01  0.7957747E-01            NaN
         13   -1    0    0    0    0  0.00000000000E+00  0.00000000000E+00  0.74505805969E-08  0.10566000000E+00  0.10566000000E+00 0. -1.
     999900   -1    0    0    0    0 -0.00000000000E+00 -0.00000000000E+00 -0.74505805969E-08  0.93827000000E+00  0.93827000000E+00 0.  1.
     999902    2    1    2    0    0  0.18206866915E-01  0.40533858859E-02  0.13905488136E-01  0.10206645204E+01  0.10203993241E+01 0.  0.
     999903    2    3    3    0    0  0.63901636357E-01 -0.93361228449E-01  0.66869944637E-01  0.13253004147E+00  0.17113862496E-01 0.  0.
         14    1    1    2    0    0 -0.18206866915E-01 -0.40533858859E-02 -0.13905488136E-01  0.23265479585E-01  0.00000000000E+00 0. -1.
     999901    1    3    3    0    0 -0.45694769442E-01  0.97414614335E-01 -0.52964456501E-01  0.88813447895E+00  0.88000000000E+00 0. -1.
        -11    1    4    4    0    0  0.37211031089E-01 -0.52247578514E-01  0.28098560260E-01  0.70030425566E-01  0.51100000000E-03 0.  1.
         11    1    4    4    0    0  0.26690605268E-01 -0.41113649935E-01  0.38771384377E-01  0.62499615903E-01  0.51100000000E-03 0. -1.
</event>
<event>
 8    1  0.1142226E+005  0.1043930E+01  0.7957747E-01            NaN
         13   -1    0    0    0    0  0.00000000000E+00  0.00000000000E+00  0.74505805969E-08  0.10566000000E+00  0.10566000000E+00 0.  1.
     999900   -1    0    0    0    0 -0.00000000000E+00 -0.00000000000E+00 -0.74505805969E-08  0.93827000000E+00  0.93827000000E+00 0.  1.
     999902    2    1    2    0    0  0.18525549378E-01 -0.10514177161E-01 -0.11349011878E-01  0.10197940523E+01  0.10195083938E+01 0.  0.
     999903    2    3    3    0    0 -0.39078693007E-02  0.11056634923E+00 -0.64642514983E-01  0.12962331046E+00  0.19579551710E-01 0.  0.
         14    1    1    2    0    0 -0.18525549378E-01  0.10514177161E-01  0.11349011878E-01  0.24135947708E-01  0.00000000000E+00 0. -1.
     999901    1    3    3    0    0  0.22433418679E-01 -0.12108052640E+00  0.53293503105E-01  0.89017074183E+00  0.88000000000E+00 0. -1.
        -11    1    4    4    0    0 -0.11077576012E-01  0.85974703409E-01 -0.48306866181E-01  0.99237980420E-01  0.51100000000E-03 0.  1.
         11    1    4    4    0    0  0.71697067111E-02  0.24591645825E-01 -0.16335648802E-01  0.30385330037E-01  0.51100000000E-03 0. -1.
</event>
<event>
 8    1  0.1064884E+005  0.1043930E+01  0.7957747E-01            NaN
         13   -1    0    0    0    0  0.00000000000E+00  0.00000000000E+00  0.74505805969E-08  0.10566000000E+00  0.10566000000E+00 0.  1.
     999900   -1    0    0    0    0 -0.00000000000E+00 -0.00000000000E+00 -0.74505805969E-08  0.93827000000E+00  0.93827000000E+00 0. -1.
     999902    2    1    2    0    0  0.15118911704E-01 -0.11382219988E-01  0.13654761768E-01  0.10205935705E+01  0.10203267355E+01 0.  0.
     999903    2    3    3    0    0  0.11868867181E+00 -0.16857308941E-01 -0.51713558447E-01  0.13209501164E+00  0.20090552308E-01 0.  0.
         14    1    1    2    0    0 -0.15118911704E-01  0.11382219988E-01 -0.13654761768E-01  0.23336429502E-01  0.00000000000E+00 0. -1.
     999901    1    3    3    0    0 -0.10356976010E+00  0.54750889525E-02  0.65368320215E-01  0.88849855886E+00  0.88000000000E+00 0.  1.
        -11    1    4    4    0    0  0.10562634110E+00 -0.21070084481E-01 -0.47600569542E-01  0.11775800498E+00  0.51100000000E-03 0.  1.
         11    1    4    4    0    0  0.13062330708E-01  0.42127755406E-02 -0.41129889045E-02  0.14337006661E-01  0.51100000000E-03 0. -1.
</event>
<event>
 8    1  0.1064884E+005  0.1043930E+01  0.7957747E-01            NaN
         13   -1    0    0    0    0  0.00000000000E+00  0.00000000000E+00  0.74505805969E-08  0.10566000000E+00  0.10566000000E+00 0. -1.
     999900   -1    0    0    0    0 -0.00000000000E+00 -0.00000000000E+00 -0.74505805969E-08  0.93827000000E+00  0.93827000000E+00 0.  1.
     999902    2    1    2    0    0  0.21882841862E-01  0.94266740890E-02 -0.50799404401E-02  0.10195675956E+01  0.10192764862E+01 0.  0.
     999903    2    3    3    0    0 -0.74221021384E-01 -0.27464137337E-01  0.98107326851E-01  0.12757852807E+00  0.19702649251E-01 0.  0.
         14    1    1    2    0    0 -0.21882841862E-01 -0.94266740890E-02  0.50799404401E-02  0.24362404380E-01  0.00000000000E+00 0.  1.
     999901    1    3    3    0    0  0.96103863245E-01  0.36890811426E-01 -0.10318726729E+00  0.89198906755E+00  0.88000000000E+00 0.  1.
        -11    1    4    4    0    0 -0.17807195447E-01 -0.12156111237E-03  0.13898815125E-01  0.22595335131E-01  0.51100000000E-03 0. -1.
         11    1    4    4    0    0 -0.56413825937E-01 -0.27342576225E-01  0.84208511726E-01  0.10498319294E+00  0.51100000000E-03 0.  1.
</event>
<event>
 8    1  0.1064884E+005  0.1043930E+01  0.7957747E-01            NaN
         13   -1    0    0    0    0  0.00000000000E+00  0.00000000000E+00  0.74505805969E-08  0.10566000000E+00  0.10566000000E+00 0. -1.
     999900   -1    0    0    0    0 -0.00000000000E+00 -0.00000000000E+00 -0.74505805969E-08  0.93827000000E+00  0.93827000000E+00 0.  1.
     999902    2    1    2    0    0  0.10650281007E-01 -0.20931577703E-01 -0.32624718517E-02  0.10202191765E+01  0.10199436087E+01 0.  0.
     999903    2    3    3    0    0 -0.86175150041E-01  0.16756854104E-01 -0.93255214963E-01  0.12954848770E+00  0.19476316491E-01 0.  0.
         14    1    1    2    0    0 -0.10650281007E-01  0.20931577703E-01  0.32624718517E-02  0.23710823546E-01  0.00000000000E+00 0. -1.
     999901    1    3    3    0    0  0.96825431047E-01 -0.37688431807E-01  0.89992743111E-01  0.89067068875E+00  0.88000000000E+00 0. -1.
        -11    1    4    4    0    0 -0.93749423512E-02  0.65110659635E-02 -0.61751611226E-02  0.12987580990E-01  0.51100000000E-03 0. -1.
         11    1    4    4    0    0 -0.76800207690E-01  0.10245788140E-01 -0.87080053840E-01  0.11656090671E+00  0.51100000000E-03 0.  1.
</event>
<event>
 8    1  0.1064884E+005  0.1043930E+01  0.7957747E-01            NaN
         13   -1    0    0    0    0  0.00000000000E+00  0.00000000000E+00  0.74505805969E-08  0.10566000000E+00  0.10566000000E+00 0. -1.
     999900   -1    0    0    0    0 -0.00000000000E+00 -0.00000000000E+00 -0.74505805969E-08  0.93827000000E+00  0.93827000000E+00 0. -1.
     999902    2    1    2    0    0  0.73263260766E-02  0.11932501318E-01  0.18337193891E-01  0.10208581054E+01  0.10205973540E+01 0.  0.
     999903    2    3    3    0    0 -0.17865507092E-01  0.49867228308E-01 -0.11639662210E+00  0.12943964408E+00  0.20013271121E-01 0.  0.
         14    1    1    2    0    0 -0.73263260766E-02 -0.11932501318E-01 -0.18337193891E-01  0.23071894618E-01  0.00000000000E+00 0.  1.
     999901    1    3    3    0    0  0.25191833169E-01 -0.37934726990E-01  0.13473381599E+00  0.89141846130E+00  0.88000000000E+00 0.  1.
        -11    1    4    4    0    0 -0.17058645132E-01  0.29009002924E-01 -0.53879270815E-01  0.63527604779E-01  0.51100000000E-03 0. -1.
         11    1    4    4    0    0 -0.80686196053E-03  0.20858225385E-01 -0.62517351287E-01  0.65912039305E-01  0.51100000000E-03 0.  1.
</event>
<event>
 8    1  0.1064884E+005  0.1043930E+01  0.7957747E-01            NaN
         13   -1    0    0    0    0  0.00000000000E+00  0.00000000000E+00  0.74505805969E-08  0.10566000000E+00  0.10566000000E+00 0.  1.
     999900   -1    0    0    0    0 -0.00000000000E+00 -0.00000000000E+00 -0.74505805969E-08  0.93827000000E+00  0.93827000000E+00 0.  1.
     999902    2    1    2    0    0  0.16221914762E-01 -0.87828253710E-02  0.14432280034E-01  0.10205082313E+01  0.10202394185E+01 0.  0.
     999903    2    3    3    0    0 -0.95589574168E-01 -0.85953765221E-01  0.64596378722E-02  0.13004726867E+00  0.18578178682E-01 0.  0.
         14    1    1    2    0    0 -0.16221914762E-01  0.87828253710E-02 -0.14432280034E-01  0.23421768657E-01  0.00000000000E+00 0. -1.
     999901    1    3    3    0    0  0.11181148893E+00  0.77170939850E-01  0.79726421615E-02  0.89046096267E+00  0.88000000000E+00 0.  1.
        -11    1    4    4    0    0 -0.57558400907E-01 -0.62581009463E-01  0.65732271443E-03  0.85029673965E-01  0.51100000000E-03 0.  1.
         11    1    4    4    0    0 -0.38031173260E-01 -0.23372755757E-01  0.58023151577E-02  0.45017594710E-01  0.51100000000E-03 0. -1.
</event>
<event>
 8    1  0.1064884E+005  0.1043930E+01  0.7957747E-01            NaN
         13   -1    0    0    0    0  0.00000000000E+00  0.00000000000E+00  0.74505805969E-08  0.10566000000E+00  0.10566000000E+00 0.  1.
     999900   -1    0    0    0    0 -0.00000000000E+00 -0.00000000000E+00 -0.74505805969E-08  0.93827000000E+00  0.93827000000E+00 0. -1.
     999902    2    1    2    0    0 -0.78901180967E-02  0.21317385641E-01  0.60678209697E-02  0.10204033482E+01  0.10201320942E+01 0.  0.
     999903    2    3    3    0    0 -0.82028139432E-01 -0.96290819001E-01 -0.17247299405E-01  0.12918410982E+00  0.19761766357E-01 0.  0.
         14    1    1    2    0    0  0.78901180967E-02 -0.21317385641E-01 -0.60678209697E-02  0.23526651812E-01  0.00000000000E+00 0.  1.
     999901    1    3    3    0    0  0.74138021335E-01  0.11760820464E+00  0.23315120375E-01  0.89121923837E+00  0.88000000000E+00 0.  1.
        -11    1    4    4    0    0 -0.25518157621E-01 -0.41724456131E-01 -0.12502342818E-01  0.50484416455E-01  0.51100000000E-03 0. -1.
         11    1    4    4    0    0 -0.56509981811E-01 -0.54566362870E-01 -0.47449565866E-02  0.78699693361E-01  0.51100000000E-03 0.  1.
</event>
<event>
 8    1  0.1064884E+005  0.1043930E+01  0.7957747E-01            NaN
         13   -1    0    0    0    0  0.00000000000E+00  0.00000000000E+00  0.74505805969E-08  0.10566000000E+00  0.10566000000E+00 0.  1.
     999900   -1    0    0    0    0 -0.00000000000E+00 -0.00000000000E+00 -0.74505805969E-08  0.93827000000E+00  0.93827000000E+00 0. -1.
     999902    2    1    2    0    0  0.49352650134E-02  0.52428286258E-03 -0.23927477492E-01  0.10194932266E+01  0.10192003156E+01 0.  0.
     999903    2    3    3    0    0  0.60387832316E-01  0.47798321604E-01  0.99992565785E-01  0.12782849195E+00  0.20254389694E-01 0.  0.
         14    1    1    2    0    0 -0.49352650134E-02 -0.52428286258E-03  0.23927477492E-01  0.24436773363E-01  0.00000000000E+00 0.  1.
     999901    1    3    3    0    0 -0.55452567302E-01 -0.47274038741E-01 -0.12392004328E+00  0.89166473469E+00  0.88000000000E+00 0. -1.
        -11    1    4    4    0    0  0.55618385630E-01  0.44822889996E-01  0.99025478523E-01  0.12210160853E+00  0.51100000000E-03 0.  1.
         11    1    4    4    0    0  0.47694466853E-02  0.29754316082E-02  0.96708726210E-03  0.57268834205E-02  0.51100000000E-03 0. -1.
</event>
<event>
 8    1  0.1064884E+005  0.1043930E+01  0.7957747E-01            NaN
         13   -1    0    0    0    0  0.00000000000E+00  0.00000000000E+00  0.74505805969E-08  0.10566000000E+00  0.10566000000E+00 0.  1.
     999900   -1    0    0    0    0 -0.00000000000E+00 -0.00000000000E+00 -0.74505805969E-08  0.93827000000E+00  0.93827000000E+00 0. -1.
     999902    2    1    2    0    0  0.23551590854E-01  0.59214087616E-02 -0.16475638234E-03  0.10196448675E+01  0.10193556240E+01 0.  0.
     999903    2    3    3    0    0 -0.98801318031E-01 -0.16886108919E-01 -0.76534871251E-01  0.12761190200E+00  0.19503074031E-01 0.  0.
         14    1    1    2    0    0 -0.23551590854E-01 -0.59214087616E-02  0.16475638234E-03  0.24285132450E-01  0.00000000000E+00 0. -1.
     999901    1    3    3    0    0  0.12235290888E+00  0.22807517681E-01  0.76370114869E-01  0.89203296555E+00  0.88000000000E+00 0. -1.
        -11    1    4    4    0    0 -0.63883093864E-01 -0.40227134819E-02 -0.56316699162E-01  0.85258803832E-01  0.51100000000E-03 0. -1.
         11    1    4    4    0    0 -0.34918224167E-01 -0.12863395437E-01 -0.20218172089E-01  0.42353098172E-01  0.51100000000E-03 0.  1.
</event>
<event>
 8    1  0.1064884E+005  0.1043930E+01  0.7957747E-01            NaN
         13   -1    0    0    0    0  0.00000000000E+00  0.00000000000E+00  0.74505805969E-08  0.10566000000E+00  0.10566000000E+00 0. -1.
     999900   -1    0    0    0    0 -0.00000000000E+00 -0.00000000000E+00 -0.74505805969E-08  0.93827000000E+00  0.93827000000E+00 0.  1.
     999902    2    1    2    0    0 -0.13176890344E-01  0.11649801674E-01  0.15375842084E-01  0.10205683897E+01  0.10203009718E+01 0.  0.
     999903    2    3    3    0    0  0.97875451395E-01  0.13774743060E-01 -0.79759249351E-01  0.12849898450E+00  0.19521875666E-01 0.  0.
         14    1    1    2    0    0  0.13176890344E-01 -0.11649801674E-01 -0.15375842084E-01  0.23361610346E-01  0.00000000000E+00 0.  1.
     999901    1    3    3    0    0 -0.11105234174E+00 -0.21249413853E-02  0.95135091435E-01  0.89206940515E+00  0.88000000000E+00 0. -1.
        -11    1    4    4    0    0  0.76370202101E-01  0.25240389189E-02 -0.62402467737E-01  0.98656513430E-01  0.51100000000E-03 0.  1.
         11    1    4    4    0    0  0.21505249294E-01  0.11250704141E-01 -0.17356781614E-01  0.29842471075E-01  0.51100000000E-03 0. -1.
</event>
<event>
 8    1  0.1064884E+005  0.1043930E+01  0.7957747E-01            NaN
         13   -1    0    0    0    0  0.00000000000E+00  0.00000000000E+00  0.74505805969E-08  0.10566000000E+00  0.10566000000E+00 0.  1.
     999900   -1    0    0    0    0 -0.00000000000E+00 -0.00000000000E+00 -0.74505805969E-08  0.93827000000E+00  0.93827000000E+00 0. -1.
     999902    2    1    2    0    0 -0.75173043337E-02  0.65582899290E-02  0.21263971034E-01  0.10204421841E+01  0.10201718353E+01 0.  0.
     999903    2    3    3    0    0 -0.11156656786E+00  0.63628878830E-01 -0.17359599955E-01  0.13163676019E+00  0.23046640455E-01 0.  0.
         14    1    1    2    0    0  0.75173043337E-02 -0.65582899290E-02 -0.21263971034E-01  0.23487815891E-01  0.00000000000E+00 0.  1.
     999901    1    3    3    0    0  0.10404926353E+00 -0.57070588901E-01  0.38623570989E-01  0.88880542392E+00  0.88000000000E+00 0. -1.
        -11    1    4    4    0    0 -0.63050149943E-01  0.32613126451E-01 -0.20731670420E-01  0.73952692339E-01  0.51100000000E-03 0.  1.
         11    1    4    4    0    0 -0.48516417918E-01  0.31015752378E-01  0.33720704642E-02  0.57684067847E-01  0.51100000000E-03 0. -1.
</event>
<event>
 8    1  0.1064884E+005  0.1043930E+01  0.7957747E-01            NaN
         13   -1    0    0    0    0  0.00000000000E+00  0.00000000000E+00  0.74505805969E-08  0.10566000000E+00  0.10566000000E+00 0. -1.
     999900   -1    0    0    0    0 -0.00000000000E+00 -0.00000000000E+00 -0.74505805969E-08  0.93827000000E+00  0.93827000000E+00 0. -1.
     999902    2    1    2    0    0 -0.64034433192E-02 -0.17562792889E-01  0.18280860719E-01  0.10177833817E+01  0.10174474760E+01 0.  0.
     999903    2    3    3    0    0  0.32940109159E-01  0.81648644529E-02 -0.11998719297E+00  0.12574757403E+00  0.16242231803E-01 0.  0.
         14    1    1    2    0    0  0.64034433192E-02  0.17562792889E-01 -0.18280860719E-01  0.26146618310E-01  0.00000000000E+00 0.  1.
     999901    1    3    3    0    0 -0.39343552479E-01 -0.25727657342E-01  0.13826805369E+00  0.89203580766E+00  0.88000000000E+00 0.  1.
        -11    1    4    4    0    0  0.27802260277E-01  0.12825498918E-01 -0.10009374853E+00  0.10467319960E+00  0.51100000000E-03 0. -1.
         11    1    4    4    0    0  0.51378488828E-02 -0.46606344648E-02 -0.19893444441E-01  0.21074374427E-01  0.51100000000E-03 0.  1.
</event>
<event>
 8    1  0.1064884E+005  0.1043930E+01  0.7957747E-01            NaN
         13   -1    0    0    0    0  0.00000000000E+00  0.00000000000E+00  0.74505805969E-08  0.10566000000E+00  0.10566000000E+00 0. -1.
     999900   -1    0    0    0    0 -0.00000000000E+00 -0.00000000000E+00 -0.74505805969E-08  0.93827000000E+00  0.93827000000E+00 0. -1.
     999902    2    1    2    0    0  0.15392921347E-01 -0.17327238178E-01  0.68927974671E-02  0.10197497215E+01  0.10194630001E+01 0.  0.
     999903    2    3    3    0    0 -0.10808593739E+00  0.24030250853E-01 -0.60203825011E-01  0.12764018385E+00  0.20186460037E-01 0.  0.
         14    1    1    2    0    0 -0.15392921347E-01  0.17327238178E-01 -0.68927974671E-02  0.24180278480E-01  0.00000000000E+00 0.  1.
     999901    1    3    3    0    0  0.12347885874E+00 -0.41357489031E-01  0.67096622478E-01  0.89210953767E+00  0.88000000000E+00 0. -1.
        -11    1    4    4    0    0 -0.61484343761E-01  0.18330419600E-01 -0.24596956830E-01  0.68713901190E-01  0.51100000000E-03 0.  1.
         11    1    4    4    0    0 -0.46601593633E-01  0.56998312528E-02 -0.35606868181E-01  0.58926282660E-01  0.51100000000E-03 0. -1.
</event>
<event>
 8    1  0.1064884E+005  0.1043930E+01  0.7957747E-01            NaN
         13   -1    0    0    0    0  0.00000000000E+00  0.00000000000E+00  0.74505805969E-08  0.10566000000E+00  0.10566000000E+00 0.  1.
     999900   -1    0    0    0    0 -0.00000000000E+00 -0.00000000000E+00 -0.74505805969E-08  0.93827000000E+00  0.93827000000E+00 0. -1.
     999902    2    1    2    0    0  0.17236804269E-01  0.32432792318E-03 -0.16488825927E-01  0.10200743091E+01  0.10197953236E+01 0.  0.
     999903    2    3    3    0    0  0.18552622484E-02  0.72429401200E-01  0.10425347801E+00  0.12877501174E+00  0.21558196033E-01 0.  0.
         14    1    1    2    0    0 -0.17236804269E-01 -0.32432792318E-03  0.16488825927E-01  0.23855690945E-01  0.00000000000E+00 0.  1.
     999901    1    3    3    0    0  0.15381542020E-01 -0.72105073277E-01 -0.12074230394E+00  0.89129929731E+00  0.88000000000E+00 0. -1.
        -11    1    4    4    0    0 -0.44675088249E-03  0.29459850384E-01  0.25227299603E-01  0.38791237893E-01  0.51100000000E-03 0. -1.
         11    1    4    4    0    0  0.23020131309E-02  0.42969550816E-01  0.79026178408E-01  0.89983773851E-01  0.51100000000E-03 0.  1.
</event>
<event>
 8    1  0.1064884E+005  0.1043930E+01  0.7957747E-01            NaN
         13   -1    0    0    0    0  0.00000000000E+00  0.00000000000E+00  0.74505805969E-08  0.10566000000E+00  0.10566000000E+00 0. -1.
     999900   -1    0    0    0    0 -0.00000000000E+00 -0.00000000000E+00 -0.74505805969E-08  0.93827000000E+00  0.93827000000E+00 0. -1.
     999902    2    1    2    0    0  0.14347132139E-01  0.10283258698E-01  0.17269662156E-01  0.10192353277E+01  0.10189361248E+01 0.  0.
     999903    2    3    3    0    0  0.21614478137E-01 -0.33932181792E-02  0.12876548735E+00  0.13206500617E+00  0.19542659118E-01 0.  0.
         14    1    1    2    0    0 -0.14347132139E-01 -0.10283258698E-01 -0.17269662156E-01  0.24694672321E-01  0.00000000000E+00 0.  1.
     999901    1    3    3    0    0 -0.72673459976E-02  0.13676476877E-01 -0.11149582520E+00  0.88717032151E+00  0.88000000000E+00 0. -1.
        -11    1    4    4    0    0  0.18247412414E-01 -0.92701623939E-02  0.70734744884E-01  0.73638096291E-01  0.51100000000E-03 0.  1.
         11    1    4    4    0    0  0.33670657222E-02  0.58769442147E-02  0.58030742470E-01  0.58426909874E-01  0.51100000000E-03 0. -1.
</event>
<event>
 8    1  0.1064884E+005  0.1043930E+01  0.7957747E-01            NaN
         13   -1    0    0    0    0  0.00000000000E+00  0.00000000000E+00  0.74505805969E-08  0.10566000000E+00  0.10566000000E+00 0.  1.
     999900   -1    0    0    0    0 -0.00000000000E+00 -0.00000000000E+00 -0.74505805969E-08  0.93827000000E+00  0.93827000000E+00 0.  1.
     999902    2    1    2    0    0 -0.54197521711E-02 -0.22404973410E-01 -0.44946860134E-02  0.10204447121E+01  0.10201744222E+01 0.  0.
     999903    2    3    3    0    0  0.82417688249E-01 -0.74808230639E-01 -0.68558376607E-01  0.13220731488E+00  0.19737689742E-01 0.  0.
         14    1    1    2    0    0  0.54197521711E-02  0.22404973410E-01  0.44946860134E-02  0.23485287937E-01  0.00000000000E+00 0. -1.
     999901    1    3    3    0    0 -0.87837440420E-01  0.52403257229E-01  0.64063690593E-01  0.88823739719E+00  0.88000000000E+00 0. -1.
        -11    1    4    4    0    0  0.60413612386E-01 -0.62936234487E-01 -0.59544440028E-01  0.10562469234E+00  0.51100000000E-03 0.  1.
         11    1    4    4    0    0  0.22004075863E-01 -0.11871996152E-01 -0.90139365784E-02  0.26582622536E-01  0.51100000000E-03 0. -1.
</event>
<event>
 8    1  0.1064884E+005  0.1043930E+01  0.7957747E-01            NaN
         13   -1    0    0    0    0  0.00000000000E+00  0.00000000000E+00  0.74505805969E-08  0.10566000000E+00  0.10566000000E+00 0. -1.
     999900   -1    0    0    0    0 -0.00000000000E+00 -0.00000000000E+00 -0.74505805969E-08  0.93827000000E+00  0.93827000000E+00 0.  1.
     999902    2    1    2    0    0 -0.29088524993E-01  0.21450036184E-01  0.10710043552E-01  0.10062344914E+01  0.10055281698E+01 0.  0.
     999903    2    3    3    0    0 -0.49003464773E-01  0.74223351510E-01  0.80465142244E-01  0.12167392168E+00  0.20480689255E-01 0.  0.
         14    1    1    2    0    0  0.29088524993E-01 -0.21450036184E-01 -0.10710043552E-01  0.37695508638E-01  0.00000000000E+00 0. -1.
     999901    1    3    3    0    0  0.19914939780E-01 -0.52773315326E-01 -0.69755098692E-01  0.88456056968E+00  0.88000000000E+00 0.  1.
        -11    1    4    4    0    0 -0.26287665352E-01  0.35033713829E-01  0.52760660453E-01  0.68573689318E-01  0.51100000000E-03 0.  1.
         11    1    4    4    0    0 -0.22715799421E-01  0.39189637681E-01  0.27704481791E-01  0.53100232365E-01  0.51100000000E-03 0. -1.
</event>
<event>
 8    1  0.1064884E+005  0.1043930E+01  0.7957747E-01            NaN
         13   -1    0    0    0    0  0.00000000000E+00  0.00000000000E+00  0.74505805969E-08  0.10566000000E+00  0.10566000000E+00 0.  1.
     999900   -1    0    0    0    0 -0.00000000000E+00 -0.00000000000E+00 -0.74505805969E-08  0.93827000000E+00  0.93827000000E+00 0. -1.
     999902    2    1    2    0    0 -0.20599098545E-01  0.60000905922E-02  0.10799524108E-01  0.10199101401E+01  0.10196272555E+01 0.  0.
     999903    2    3    3    0    0  0.99395590168E-02  0.12750330498E+00 -0.17579355138E-01  0.13058398987E+00  0.19678848277E-01 0.  0.
         14    1    1    2    0    0  0.20599098545E-01 -0.60000905922E-02 -0.10799524108E-01  0.24019859886E-01  0.00000000000E+00 0. -1.
     999901    1    3    3    0    0 -0.30538657562E-01 -0.12150321439E+00  0.28378879246E-01  0.88932615024E+00  0.88000000000E+00 0. -1.
        -11    1    4    4    0    0  0.12285817811E-01  0.98518474420E-01 -0.20421301140E-01  0.10136134264E+00  0.51100000000E-03 0. -1.
         11    1    4    4    0    0 -0.23462587943E-02  0.28984830562E-01  0.28419460022E-02  0.29222647230E-01  0.51100000000E-03 0.  1.
</event>
<event>
 8    1  0.1064884E+005  0.1043930E+01  0.7957747E-01            NaN
         13   -1    0    0    0    0  0.00000000000E+00  0.00000000000E+00  0.74505805969E-08  0.10566000000E+00  0.10566000000E+00 0.  1.
     999900   -1    0    0    0    0 -0.00000000000E+00 -0.00000000000E+00 -0.74505805969E-08  0.93827000000E+00  0.93827000000E+00 0. -1.
     999902    2    1    2    0    0  0.20556661687E-01 -0.96572148036E-02  0.56206791510E-02  0.10205327743E+01  0.10202645310E+01 0.  0.
     999903    2    3    3    0    0  0.87146859345E-01 -0.78269507791E-01  0.61136184120E-01  0.13361458613E+00  0.19862871747E-01 0.  0.
         14    1    1    2    0    0 -0.20556661687E-01  0.96572148036E-02 -0.56206791510E-02  0.23397225724E-01  0.00000000000E+00 0.  1.
     999901    1    3    3    0    0 -0.66590197658E-01  0.68612292988E-01 -0.55515504969E-01  0.88691818815E+00  0.88000000000E+00 0. -1.
        -11    1    4    4    0    0  0.14129679528E-01 -0.12423012036E-01  0.18675577565E-01  0.26514475103E-01  0.51100000000E-03 0. -1.
         11    1    4    4    0    0  0.73017179817E-01 -0.65846495756E-01  0.42460606555E-01  0.10710011103E+00  0.51100000000E-03 0.  1.
</event>
<event>
 8    1  0.1064884E+005  0.1043930E+01  0.7957747E-01            NaN
         13   -1    0    0    0    0  0.00000000000E+00  0.00000000000E+00  0.74505805969E-08  0.10566000000E+00  0.10566000000E+00 0. -1.
     999900   -1    0    0    0    0 -0.00000000000E+00 -0.00000000000E+00 -0.74505805969E-08  0.93827000000E+00  0.93827000000E+00 0. -1.
     999902    2    1    2    0    0  0.52274025998E-02 -0.66784765930E-02  0.24275099602E-01  0.10182160301E+01  0.10178912887E+01 0.  0.
     999903    2    3    3    0    0 -0.11244163896E+00  0.16588973663E-02  0.61282635317E-01  0.12957376639E+00  0.19695822686E-01 0.  0.
         14    1    1    2    0    0 -0.52274025998E-02  0.66784765930E-02 -0.24275099602E-01  0.25713969904E-01  0.00000000000E+00 0. -1.
     999901    1    3    3    0    0  0.11766904156E+00 -0.83373739593E-02 -0.37007535715E-01  0.88864226371E+00  0.88000000000E+00 0. -1.
        -11    1    4    4    0    0 -0.50683352801E-01  0.80517621396E-02  0.20370557712E-01  0.55216427512E-01  0.51100000000E-03 0. -1.
         11    1    4    4    0    0 -0.61758286163E-01 -0.63928647734E-02  0.40912077605E-01  0.74357338876E-01  0.51100000000E-03 0.  1.
</event>
<event>
 8    1  0.1064884E+005  0.1043930E+01  0.7957747E-01            NaN
         13   -1    0    0    0    0  0.00000000000E+00  0.00000000000E+00  0.74505805969E-08  0.10566000000E+00  0.10566000000E+00 0. -1.
     999900   -1    0    0    0    0 -0.00000000000E+00 -0.00000000000E+00 -0.74505805969E-08  0.93827000000E+00  0.93827000000E+00 0.  1.
     999902    2    1    2    0    0  0.16575559646E-01  0.75778703588E-02 -0.98848421903E-02  0.10231963703E+01  0.10229862798E+01 0.  0.
     999903    2    3    3    0    0 -0.35470018473E-01  0.10258248035E+00  0.73882490648E-01  0.13260578859E+00  0.18557619919E-01 0.  0.
         14    1    1    2    0    0 -0.16575559646E-01 -0.75778703588E-02  0.98848421903E-02  0.20733629732E-01  0.00000000000E+00 0. -1.
     999901    1    3    3    0    0  0.52045578119E-01 -0.95004609996E-01 -0.83767332838E-01  0.89059058168E+00  0.88000000000E+00 0.  1.
        -11    1    4    4    0    0  0.53105688411E-03  0.13086498013E-01  0.13408886208E-01  0.18750941363E-01  0.51100000000E-03 0.  1.
         11    1    4    4    0    0 -0.36001075357E-01  0.89495982342E-01  0.60473604440E-01  0.11385484723E+00  0.51100000000E-03 0. -1.
</event>
<event>
 8    1  0.1164122E+005  0.1043930E+01  0.7957747E-01            NaN
         13   -1    0    0    0    0  0.00000000000E+00  0.00000000000E+00  0.74505805969E-08  0.10566000000E+00  0.10566000000E+00 0. -1.
     999900   -1    0    0    0    0 -0.00000000000E+00 -0.00000000000E+00 -0.74505805969E-08  0.93827000000E+00  0.93827000000E+00 0. -1.
     999902    2    1    2    0    0 -0.31146993192E-02  0.23513253366E-01 -0.56404383391E-02  0.10195499061E+01  0.10192583686E+01 0.  0.
     999903    2    3    3    0    0 -0.21042794248E-01 -0.11009167637E+00 -0.58103953680E-01  0.12774044532E+00  0.19457017793E-01 0.  0.
         14    1    1    2    0    0  0.31146993192E-02 -0.23513253366E-01  0.56404383391E-02  0.24380093937E-01  0.00000000000E+00 0.  1.
     999901    1    3    3    0    0  0.17928094929E-01  0.13360492973E+00  0.52463515341E-01  0.89180946075E+00  0.88000000000E+00 0.  1.
        -11    1    4    4    0    0 -0.12619916152E-01 -0.58226128483E-01 -0.20059057189E-01  0.62866296360E-01  0.51100000000E-03 0. -1.
         11    1    4    4    0    0 -0.84228780958E-02 -0.51865547883E-01 -0.38044896492E-01  0.64874148956E-01  0.51100000000E-03 0.  1.
</event>
<event>
 8    1  0.1064884E+005  0.1043930E+01  0.7957747E-01            NaN
         13   -1    0    0    0    0  0.00000000000E+00  0.00000000000E+00  0.74505805969E-08  0.10566000000E+00  0.10566000000E+00 0. -1.
     999900   -1    0    0    0    0 -0.00000000000E+00 -0.00000000000E+00 -0.74505805969E-08  0.93827000000E+00  0.93827000000E+00 0.  1.
     999902    2    1    2    0    0  0.21214901276E-01  0.70104097102E-02 -0.73942699325E-02  0.10203950662E+01  0.10201236190E+01 0.  0.
     999903    2    3    3    0    0  0.65797703676E-01 -0.67634594089E-01  0.88423214754E-01  0.13093427830E+00  0.20526670466E-01 0.  0.
         14    1    1    2    0    0 -0.21214901276E-01 -0.70104097102E-02  0.73942699325E-02  0.23534933785E-01  0.00000000000E+00 0. -1.
     999901    1    3    3    0    0 -0.44582802401E-01  0.74645003799E-01 -0.95817484687E-01  0.88946078791E+00  0.88000000000E+00 0.  1.
        -11    1    4    4    0    0  0.27666913014E-01 -0.34041581701E-01  0.28280695679E-01  0.52195270183E-01  0.51100000000E-03 0.  1.
         11    1    4    4    0    0  0.38130790662E-01 -0.33593012388E-01  0.60142519075E-01  0.78739008119E-01  0.51100000000E-03 0. -1.
</event>
<event>
 8    1  0.1064884E+005  0.1043930E+01  0.7957747E-01            NaN
         13   -1    0    0    0    0  0.00000000000E+00  0.00000000000E+00  0.74505805969E-08  0.10566000000E+00  0.10566000000E+00 0. -1.
     999900   -1    0    0    0    0 -0.00000000000E+00 -0.00000000000E+00 -0.74505805969E-08  0.93827000000E+00  0.93827000000E+00 0.  1.
     999902    2    1    2    0    0  0.13727874149E-01 -0.32213918626E-02 -0.18711041906E-01  0.10205006384E+01  0.10202316492E+01 0.  0.
     999903    2    3    3    0    0 -0.40491506599E-01  0.81952704038E-01 -0.92839421071E-01  0.13163091544E+00  0.18754519145E-01 0.  0.
         14    1    1    2    0    0 -0.13727874149E-01  0.32213918626E-02  0.18711041906E-01  0.23429361566E-01  0.00000000000E+00 0. -1.
     999901    1    3    3    0    0  0.54219380747E-01 -0.85174095901E-01  0.74128379165E-01  0.88886972300E+00  0.88000000000E+00 0.  1.
        -11    1    4    4    0    0 -0.38840231131E-01  0.73399614361E-01 -0.89988386084E-01  0.12245096036E+00  0.51100000000E-03 0.  1.
         11    1    4    4    0    0 -0.16512754673E-02  0.85530896770E-02 -0.28510349880E-02  0.91799550758E-02  0.51100000000E-03 0. -1.
</event>
<event>
 8    1  0.1064884E+005  0.1043930E+01  0.7957747E-01            NaN
         13   -1    0    0    0    0  0.00000000000E+00  0.00000000000E+00  0.74505805969E-08  0.10566000000E+00  0.10566000000E+00 0. -1.
     999900   -1    0    0    0    0 -0.00000000000E+00 -0.00000000000E+00 -0.74505805969E-08  0.93827000000E+00  0.93827000000E+00 0. -1.
     999902    2    1    2    0    0  0.22439583676E-01  0.17350469275E-02  0.79988908962E-02  0.10200442813E+01  0.10197645847E+01 0.  0.
     999903    2    3    3    0    0 -0.52366442787E-01  0.33583238536E-01 -0.11049203471E+00  0.12838832276E+00  0.20124448961E-01 0.  0.
         14    1    1    2    0    0 -0.22439583676E-01 -0.17350469275E-02 -0.79988908962E-02  0.23885718724E-01  0.00000000000E+00 0.  1.
     999901    1    3    3    0    0  0.74806026464E-01 -0.31848191608E-01  0.11849092561E+00  0.89165595851E+00  0.88000000000E+00 0.  1.
        -11    1    4    4    0    0 -0.29773878981E-01  0.87455709000E-02 -0.62927278139E-01  0.70164608849E-01  0.51100000000E-03 0.  1.
         11    1    4    4    0    0 -0.22592563806E-01  0.24837667636E-01 -0.47564756572E-01  0.58223713912E-01  0.51100000000E-03 0. -1.
</event>
<event>
 8    1  0.1064884E+005  0.1043930E+01  0.7957747E-01            NaN
         13   -1    0    0    0    0  0.00000000000E+00  0.00000000000E+00  0.74505805969E-08  0.10566000000E+00  0.10566000000E+00 0. -1.
     999900   -1    0    0    0    0 -0.00000000000E+00 -0.00000000000E+00 -0.74505805969E-08  0.93827000000E+00  0.93827000000E+00 0. -1.
     999902    2    1    2    0    0 -0.61262539071E-02  0.73257018469E-02 -0.21503286989E-01  0.10204015439E+01  0.10201302478E+01 0.  0.
     999903    2    3    3    0    0 -0.11584599112E+00  0.20093419671E-02 -0.60274237817E-01  0.13272487359E+00  0.23634238115E-01 0.  0.
         14    1    1    2    0    0  0.61262539071E-02 -0.73257018469E-02  0.21503286989E-01  0.23528456086E-01  0.00000000000E+00 0. -1.
     999901    1    3    3    0    0  0.10971973721E+00  0.53163598798E-02  0.38770950828E-01  0.88767667033E+00  0.88000000000E+00 0. -1.
        -11    1    4    4    0    0 -0.80945671437E-01  0.11143623779E-01 -0.47111443625E-01  0.94319305112E-01  0.51100000000E-03 0. -1.
         11    1    4    4    0    0 -0.34900319679E-01 -0.91342818117E-02 -0.13162794191E-01  0.38405568474E-01  0.51100000000E-03 0.  1.
</event>
<event>
 8    1  0.1064884E+005  0.1043930E+01  0.7957747E-01            NaN
         13   -1    0    0    0    0  0.00000000000E+00  0.00000000000E+00  0.74505805969E-08  0.10566000000E+00  0.10566000000E+00 0.  1.
     999900   -1    0    0    0    0 -0.00000000000E+00 -0.00000000000E+00 -0.74505805969E-08  0.93827000000E+00  0.93827000000E+00 0.  1.
     999902    2    1    2    0    0  0.72670614444E-02  0.43133416869E-02  0.26970993323E-01  0.10156660728E+01  0.10152727328E+01 0.  0.
     999903    2    3    3    0    0  0.40299907065E-01  0.53363312767E-01  0.10894777199E+00  0.12987983406E+00  0.22965814023E-01 0.  0.
         14    1    1    2    0    0 -0.72670614444E-02 -0.43133416869E-02 -0.26970993323E-01  0.28263927175E-01  0.00000000000E+00 0. -1.
     999901    1    3    3    0    0 -0.33032845621E-01 -0.49049971080E-01 -0.81976778668E-01  0.88578623877E+00  0.88000000000E+00 0.  1.
        -11    1    4    4    0    0  0.14047284176E-01  0.83720100713E-02  0.41847378310E-01  0.44931958980E-01  0.51100000000E-03 0. -1.
         11    1    4    4    0    0  0.26252622889E-01  0.44991302696E-01  0.67100393680E-01  0.84947875075E-01  0.51100000000E-03 0.  1.
</event>
<event>
 8    1  0.1064884E+005  0.1043930E+01  0.7957747E-01            NaN
         13   -1    0    0    0    0  0.00000000000E+00  0.00000000000E+00  0.74505805969E-08  0.10566000000E+00  0.10566000000E+00 0.  1.
     999900   -1    0    0    0    0 -0.00000000000E+00 -0.00000000000E+00 -0.74505805969E-08  0.93827000000E+00  0.93827000000E+00 0.  1.
     999902    2    1    2    0    0  0.18718115017E-01 -0.11942496903E-01  0.85639332263E-02  0.10201322687E+01  0.10198546532E+01 0.  0.
     999903    2    3    3    0    0 -0.11989657804E+00  0.21075491152E-02  0.41865527303E-01  0.12854916373E+00  0.19812469071E-01 0.  0.
         14    1    1    2    0    0 -0.18718115017E-01  0.11942496903E-01 -0.85639332263E-02  0.23797731286E-01  0.00000000000E+00 0. -1.
     999901    1    3    3    0    0  0.13861469306E+00 -0.14050046019E-01 -0.33301594077E-01  0.89158310498E+00  0.88000000000E+00 0.  1.
        -11    1    4    4    0    0 -0.25349547761E-01  0.41560548582E-03  0.17768249929E-01  0.30963593560E-01  0.51100000000E-03 0. -1.
         11    1    4    4    0    0 -0.94547030278E-01  0.16919436294E-02  0.24097277374E-01  0.97585570171E-01  0.51100000000E-03 0.  1.
</event>
<event>
 8    1  0.1064884E+005  0.1043930E+01  0.7957747E-01            NaN
         13   -1    0    0    0    0  0.00000000000E+00  0.00000000000E+00  0.74505805969E-08  0.10566000000E+00  0.10566000000E+00 0. -1.
     999900   -1    0    0    0    0 -0.00000000000E+00 -0.00000000000E+00 -0.74505805969E-08  0.93827000000E+00  0.93827000000E+00 0. -1.
     999902    2    1    2    0    0  0.59899284630E-02 -0.10709659469E-01  0.20247026348E-01  0.10202547360E+01  0.10199800038E+01 0.  0.
     999903    2    3    3    0    0 -0.92305337547E-01  0.39194938975E-01  0.82112464411E-01  0.13122168787E+00  0.20497706568E-01 0.  0.
         14    1    1    2    0    0 -0.59899284630E-02  0.10709659469E-01 -0.20247026348E-01  0.23675263987E-01  0.00000000000E+00 0.  1.
     999901    1    3    3    0    0  0.98295266010E-01 -0.49904598444E-01 -0.61865438063E-01  0.88903304814E+00  0.88000000000E+00 0. -1.
        -11    1    4    4    0    0 -0.50880619119E-02  0.72881031295E-02  0.35753202170E-02  0.95942095505E-02  0.51100000000E-03 0. -1.
         11    1    4    4    0    0 -0.87217275635E-01  0.31906835846E-01  0.78537144194E-01  0.12162747832E+00  0.51100000000E-03 0.  1.
</event>
<event>
 8    1  0.1064884E+005  0.1043930E+01  0.7957747E-01            NaN
         13   -1    0    0    0    0  0.00000000000E+00  0.00000000000E+00  0.74505805969E-08  0.10566000000E+00  0.10566000000E+00 0.  1.
     999900   -1    0    0    0    0 -0.00000000000E+00 -0.00000000000E+00 -0.74505805969E-08  0.93827000000E+00  0.93827000000E+00 0.  1.
     999902    2    1    2    0    0 -0.18442673271E-01 -0.12762312944E-01  0.65667164980E-02  0.10205605628E+01  0.10202929637E+01 0.  0.
     999903    2    3    3    0    0 -0.83698990646E-01 -0.53297812581E-01  0.87134517405E-01  0.13354721216E+00  0.19906177205E-01 0.  0.
         14    1    1    2    0    0  0.18442673271E-01  0.12762312944E-01 -0.65667164980E-02  0.23369437191E-01  0.00000000000E+00 0. -1.
     999901    1    3    3    0    0  0.65256317375E-01  0.40535499637E-01 -0.80567800907E-01  0.88701335065E+00  0.88000000000E+00 0.  1.
        -11    1    4    4    0    0 -0.36256052274E-01 -0.22450871402E-01  0.24709299084E-01  0.49288472642E-01  0.51100000000E-03 0. -1.
         11    1    4    4    0    0 -0.47442938372E-01 -0.30846941179E-01  0.62425218322E-01  0.84258739517E-01  0.51100000000E-03 0.  1.
</event>
<event>
 8    1  0.1064884E+005  0.1043930E+01  0.7957747E-01            NaN
         13   -1    0    0    0    0  0.00000000000E+00  0.00000000000E+00  0.74505805969E-08  0.10566000000E+00  0.10566000000E+00 0.  1.
     999900   -1    0    0    0    0 -0.00000000000E+00 -0.00000000000E+00 -0.74505805969E-08  0.93827000000E+00  0.93827000000E+00 0.  1.
     999902    2    1    2    0    0 -0.85871398116E-02 -0.22906743077E-01  0.63854545942E-02  0.10186469646E+01  0.10183331511E+01 0.  0.
     999903    2    3    3    0    0 -0.44188562264E-01  0.21577246782E-01 -0.11683458769E+00  0.12823724686E+00  0.19397525262E-01 0.  0.
         14    1    1    2    0    0  0.85871398116E-02  0.22906743077E-01 -0.63854545942E-02  0.25283035397E-01  0.00000000000E+00 0. -1.
     999901    1    3    3    0    0  0.35601422453E-01 -0.44483989859E-01  0.12322004229E+00  0.89040971775E+00  0.88000000000E+00 0. -1.
        -11    1    4    4    0    0 -0.30122164114E-01  0.18443798296E-01 -0.60225967478E-01  0.69820818860E-01  0.51100000000E-03 0.  1.
         11    1    4    4    0    0 -0.14066398150E-01  0.31334484857E-02 -0.56608620215E-01  0.58416427997E-01  0.51100000000E-03 0. -1.
</event>
<event>
 8    1  0.1064884E+005  0.1043930E+01  0.7957747E-01            NaN
         13   -1    0    0    0    0  0.00000000000E+00  0.00000000000E+00  0.74505805969E-08  0.10566000000E+00  0.10566000000E+00 0. -1.
     999900   -1    0    0    0    0 -0.00000000000E+00 -0.00000000000E+00 -0.74505805969E-08  0.93827000000E+00  0.93827000000E+00 0. -1.
     999902    2    1    2    0    0  0.21914476059E-01 -0.88795496268E-02 -0.21425929686E-02  0.10201880252E+01  0.10199117243E+01 0.  0.
     999903    2    3    3    0    0  0.17420073244E-01  0.12648499562E+00 -0.11014540154E-01  0.12978223501E+00  0.20498667276E-01 0.  0.
         14    1    1    2    0    0 -0.21914476059E-01  0.88795496268E-02  0.21425929686E-02  0.23741974794E-01  0.00000000000E+00 0. -1.
     999901    1    3    3    0    0  0.44944028147E-02 -0.13536454525E+00  0.88719471853E-02  0.89040579020E+00  0.88000000000E+00 0.  1.
        -11    1    4    4    0    0  0.19616143759E-01  0.10290699371E+00 -0.30920001257E-02  0.10480679384E+00  0.51100000000E-03 0. -1.
         11    1    4    4    0    0 -0.21960705152E-02  0.23578001914E-01 -0.79225400282E-02  0.24975441167E-01  0.51100000000E-03 0.  1.
</event>
<event>
 8    1  0.1064884E+005  0.1043930E+01  0.7957747E-01            NaN
         13   -1    0    0    0    0  0.00000000000E+00  0.00000000000E+00  0.74505805969E-08  0.10566000000E+00  0.10566000000E+00 0.  1.
     999900   -1    0    0    0    0 -0.00000000000E+00 -0.00000000000E+00 -0.74505805969E-08  0.93827000000E+00  0.93827000000E+00 0.  1.
     999902    2    1    2    0    0  0.19688462918E-02  0.43885370545E-02 -0.23057666293E-01  0.10203759857E+01  0.10201040931E+01 0.  0.
     999903    2    3    3    0    0  0.82961009694E-01  0.95884712958E-01 -0.30460219068E-01  0.13190196894E+00  0.19846842435E-01 0.  0.
         14    1    1    2    0    0 -0.19688462918E-02 -0.43885370545E-02  0.23057666293E-01  0.23554014267E-01  0.00000000000E+00 0.  1.
     999901    1    3    3    0    0 -0.80992163403E-01 -0.91496175904E-01  0.74025527748E-02  0.88847401680E+00  0.88000000000E+00 0.  1.
        -11    1    4    4    0    0  0.45477041092E-01  0.51653774579E-01 -0.63707563009E-02  0.69116722662E-01  0.51100000000E-03 0.  1.
         11    1    4    4    0    0  0.37483968602E-01  0.44230938380E-01 -0.24089462767E-01  0.62785246273E-01  0.51100000000E-03 0. -1.
</event>
<event>
 8    1  0.1064884E+005  0.1043930E+01  0.7957747E-01            NaN
         13   -1    0    0    0    0  0.00000000000E+00  0.00000000000E+00  0.74505805969E-08  0.10566000000E+00  0.10566000000E+00 0.  1.
     999900   -1    0    0    0    0 -0.00000000000E+00 -0.00000000000E+00 -0.74505805969E-08  0.93827000000E+00  0.93827000000E+00 0.  1.
     999902    2    1    2    0    0  0.12571744924E-01  0.91125468380E-02 -0.18825683604E-01  0.10195272616E+01  0.10192351757E+01 0.  0.
     999903    2    3    3    0    0  0.10863413450E+00 -0.65586286799E-01  0.20882981831E-01  0.13026651434E+00  0.20744387988E-01 0.  0.
         14    1    1    2    0    0 -0.12571744924E-01 -0.91125468380E-02  0.18825683604E-01  0.24402738442E-01  0.00000000000E+00 0.  1.
     999901    1    3    3    0    0 -0.96062389575E-01  0.74698833637E-01 -0.39708665434E-01  0.88926074722E+00  0.88000000000E+00 0.  1.
        -11    1    4    4    0    0  0.89389638847E-01 -0.55204802136E-01  0.91889983109E-02  0.10546457473E+00  0.51100000000E-03 0. -1.
         11    1    4    4    0    0  0.19244495653E-01 -0.10381484662E-01  0.11693983520E-01  0.24801939607E-01  0.51100000000E-03 0.  1.
</event>
<event>
 7    1  0.1064884E+005  0.1043930E+01  0.7957747E-01            NaN
         13   -1    0    0    0    0  0.00000000000E+00  0.00000000000E+00  0.74505805969E-08  0.10566000000E+00  0.10566000000E+00 0. -1.
     999900   -1    0    0    0    0 -0.00000000000E+00 -0.00000000000E+00 -0.74505805969E-08  0.93827000000E+00  0.93827000000E+00 0. -1.
     999902    2    1    2    0    0  0.32734294915E-02 -0.23155613732E-01  0.36698370486E-03  0.10205412748E+01  0.10202732287E+01 0.  0.
         14    1    1    2    0    0 -0.32734294915E-02  0.23155613732E-01 -0.36698370486E-03  0.23388725168E-01  0.00000000000E+00 0. -1.
     999901    1    3    3    0    0  0.11799091679E+00 -0.61648771756E-01 -0.31130496681E-01  0.89055686810E+00  0.88000000000E+00 0. -1.
        -11    1    3    3    0    0 -0.59637435055E-01  0.36396977641E-01  0.26155559828E-01  0.74603874378E-01  0.51100000000E-03 0.  1.
         11    1    3    3    0    0 -0.55080052241E-01  0.20961803830E-02  0.53419205580E-02  0.55380532350E-01  0.51100000000E-03 0. -1.
</event>
<event>
 8    1  0.1064884E+005  0.1043930E+01  0.7957747E-01            NaN
         13   -1    0    0    0    0  0.00000000000E+00  0.00000000000E+00  0.74505805969E-08  0.10566000000E+00  0.10566000000E+00 0.  1.
     999900   -1    0    0    0    0 -0.00000000000E+00 -0.00000000000E+00 -0.74505805969E-08  0.93827000000E+00  0.93827000000E+00 0.  1.
     999902    2    1    2    0    0 -0.24752354166E-01  0.95058996672E-02  0.32860994853E-02  0.10172122229E+01  0.10168612820E+01 0.  0.
     999903    2    3    3    0    0  0.12301930124E+00  0.64127607026E-02 -0.42831170456E-02  0.12485393009E+00  0.19881820542E-01 0.  0.
         14    1    1    2    0    0  0.24752354166E-01 -0.95058996672E-02 -0.32860994853E-02  0.26717777135E-01  0.00000000000E+00 0. -1.
     999901    1    3    3    0    0 -0.14777165541E+00  0.30931389645E-02  0.75692165308E-02  0.89235829278E+00  0.88000000000E+00 0. -1.
        -11    1    4    4    0    0  0.45249444094E-01 -0.65164887268E-02  0.20176656729E-02  0.45763619961E-01  0.51100000000E-03 0.  1.
         11    1    4    4    0    0  0.77769857150E-01  0.12929249429E-01 -0.63007827185E-02  0.79090310126E-01  0.51100000000E-03 0. -1.
</event>
<event>
 8    1  0.1064884E+005  0.1043930E+01  0.7957747E-01            NaN
         13   -1    0    0    0    0  0.00000000000E+00  0.00000000000E+00  0.74505805969E-08  0.10566000000E+00  0.10566000000E+00 0.  1.
     999900   -1    0    0    0    0 -0.00000000000E+00 -0.00000000000E+00 -0.74505805969E-08  0.93827000000E+00  0.93827000000E+00 0. -1.
     999902    2    1    2    0    0 -0.46778558728E-02 -0.18539668310E-01  0.10356963814E-01  0.10221844640E+01  0.10219531350E+01 0.  0.
     999903    2    3    3    0    0 -0.27959093276E-01  0.12542871601E+00 -0.30853893800E-02  0.13008042939E+00  0.19933007459E-01 0.  0.
         14    1    1    2    0    0  0.46778558728E-02  0.18539668310E-01 -0.10356963814E-01  0.21745536003E-01  0.00000000000E+00 0. -1.
     999901    1    3    3    0    0  0.23281237403E-01 -0.14396838432E+00  0.13442353194E-01  0.89210403460E+00  0.88000000000E+00 0. -1.
        -11    1    4    4    0    0 -0.15570239184E-01  0.53603045484E-01 -0.10556746423E-01  0.56810429055E-01  0.51100000000E-03 0. -1.
         11    1    4    4    0    0 -0.12388854093E-01  0.71825670527E-01  0.74713570434E-02  0.73270000337E-01  0.51100000000E-03 0.  1.
</event>
<event>
 8    1  0.1064884E+005  0.1043930E+01  0.7957747E-01            NaN
         13   -1    0    0    0    0  0.00000000000E+00  0.00000000000E+00  0.74505805969E-08  0.10566000000E+00  0.10566000000E+00 0.  1.
     999900   -1    0    0    0    0 -0.00000000000E+00 -0.00000000000E+00 -0.74505805969E-08  0.93827000000E+00  0.93827000000E+00 0.  1.
     999902    2    1    2    0    0  0.19966174184E-01 -0.10650362279E-01 -0.69286457378E-02  0.10202638964E+01  0.10199893793E+01 0.  0.
     999903    2    3    3    0    0 -0.12270298557E+00 -0.21927497173E-01 -0.24335282915E-01  0.12853262861E+00  0.19788704464E-01 0.  0.
         14    1    1    2    0    0 -0.19966174184E-01  0.10650362279E-01  0.69286457378E-02  0.23666103608E-01  0.00000000000E+00 0.  1.
     999901    1    3    3    0    0  0.14266915975E+00  0.11277134893E-01  0.17406637177E-01  0.89173126778E+00  0.88000000000E+00 0.  1.
        -11    1    4    4    0    0 -0.65621771275E-01 -0.28106499351E-02 -0.17295979960E-01  0.67922961229E-01  0.51100000000E-03 0.  1.
         11    1    4    4    0    0 -0.57081214292E-01 -0.19116847237E-01 -0.70393029548E-02  0.60609667385E-01  0.51100000000E-03 0. -1.
</event>
<event>
 8    1  0.1064884E+005  0.1043930E+01  0.7957747E-01            NaN
         13   -1    0    0    0    0  0.00000000000E+00  0.00000000000E+00  0.74505805969E-08  0.10566000000E+00  0.10566000000E+00 0. -1.
     999900   -1    0    0    0    0 -0.00000000000E+00 -0.00000000000E+00 -0.74505805969E-08  0.93827000000E+00  0.93827000000E+00 0.  1.
     999902    2    1    2    0    0 -0.13134042068E-01  0.16651392495E-01  0.10062338210E-01  0.10204561298E+01  0.10201861057E+01 0.  0.
     999903    2    3    3    0    0 -0.54528904018E-01 -0.89807086313E-01  0.75190047839E-01  0.13068730538E+00  0.19670138992E-01 0.  0.
         14    1    1    2    0    0  0.13134042068E-01 -0.16651392495E-01 -0.10062338210E-01  0.23473870224E-01  0.00000000000E+00 0. -1.
     999901    1    3    3    0    0  0.41394861950E-01  0.10645847881E+00 -0.65127709629E-01  0.88976882440E+00  0.88000000000E+00 0.  1.
        -11    1    4    4    0    0 -0.20521551392E-01 -0.30209810974E-01  0.37714535262E-01  0.52501562278E-01  0.51100000000E-03 0. -1.
         11    1    4    4    0    0 -0.34007352626E-01 -0.59597275339E-01  0.37475512578E-01  0.78185743102E-01  0.51100000000E-03 0.  1.
</event>
<event>
 8    1  0.1064884E+005  0.1043930E+01  0.7957747E-01            NaN
         13   -1    0    0    0    0  0.00000000000E+00  0.00000000000E+00  0.74505805969E-08  0.10566000000E+00  0.10566000000E+00 0.  1.
     999900   -1    0    0    0    0 -0.00000000000E+00 -0.00000000000E+00 -0.74505805969E-08  0.93827000000E+00  0.93827000000E+00 0. -1.
     999902    2    1    2    0    0  0.13992500050E-01  0.18757489648E-01 -0.17656827215E-03  0.10205277640E+01  0.10202594044E+01 0.  0.
     999903    2    3    3    0    0  0.13103436780E-01  0.60315452857E-01  0.11524660143E+00  0.13201757108E+00  0.18363170303E-01 0.  0.
         14    1    1    2    0    0 -0.13992500050E-01 -0.18757489648E-01  0.17656827215E-03  0.23402236045E-01  0.00000000000E+00 0. -1.
     999901    1    3    3    0    0  0.88906326946E-03 -0.41557963209E-01 -0.11542316970E+00  0.88851019288E+00  0.88000000000E+00 0. -1.
        -11    1    4    4    0    0  0.14263481351E-01  0.41614746371E-01  0.93327686975E-01  0.10317728574E+00  0.51100000000E-03 0. -1.
         11    1    4    4    0    0 -0.11600445712E-02  0.18700706486E-01  0.21918914456E-01  0.28840285339E-01  0.51100000000E-03 0.  1.
</event>
<event>
 8    1  0.1064884E+005  0.1043930E+01  0.7957747E-01            NaN
         13   -1    0    0    0    0  0.00000000000E+00  0.00000000000E+00  0.74505805969E-08  0.10566000000E+00  0.10566000000E+00 0. -1.
     999900   -1    0    0    0    0 -0.00000000000E+00 -0.00000000000E+00 -0.74505805969E-08  0.93827000000E+00  0.93827000000E+00 0.  1.
     999902    2    1    2    0    0 -0.14429488464E-01  0.15528383106E-01 -0.99499248576E-02  0.10205133003E+01  0.10202446051E+01 0.  0.
     999903    2    3    3    0    0 -0.68133273626E-01  0.98467899426E-01 -0.56811709308E-01  0.13374439765E+00  0.17942223802E-01 0.  0.
         14    1    1    2    0    0  0.14429488464E-01 -0.15528383106E-01  0.99499248576E-02  0.23416699680E-01  0.00000000000E+00 0. -1.
     999901    1    3    3    0    0  0.53703785162E-01 -0.82939516320E-01  0.46861784450E-01  0.88676890267E+00  0.88000000000E+00 0.  1.
        -11    1    4    4    0    0 -0.64428723523E-01  0.94493561196E-01 -0.49502757243E-01  0.12462294178E+00  0.51100000000E-03 0.  1.
         11    1    4    4    0    0 -0.37045501028E-02  0.39743382299E-02 -0.73089520649E-02  0.91214558661E-02  0.51100000000E-03 0. -1.
</event>
<event>
 8    1  0.1064884E+005  0.1043930E+01  0.7957747E-01            NaN
         13   -1    0    0    0    0  0.00000000000E+00  0.00000000000E+00  0.74505805969E-08  0.10566000000E+00  0.10566000000E+00 0.  1.
     999900   -1    0    0    0    0 -0.00000000000E+00 -0.00000000000E+00 -0.74505805969E-08  0.93827000000E+00  0.93827000000E+00 0. -1.
     999902    2    1    2    0    0 -0.91835460226E-03  0.14453547296E-01 -0.18587906404E-01  0.10203660727E+01  0.10200939485E+01 0.  0.
     999903    2    3    3    0    0 -0.20252024837E-01 -0.12412331732E+00  0.18271330100E-01  0.12854998095E+00  0.19352356122E-01 0.  0.
         14    1    1    2    0    0  0.91835460226E-03 -0.14453547296E-01  0.18587906404E-01  0.23563927286E-01  0.00000000000E+00 0.  1.
     999901    1    3    3    0    0  0.19333670234E-01  0.13857686461E+00 -0.36859236504E-01  0.89181609176E+00  0.88000000000E+00 0. -1.
        -11    1    4    4    0    0 -0.20843115608E-02 -0.46560742440E-01 -0.87317423643E-03  0.46618350952E-01  0.51100000000E-03 0.  1.
         11    1    4    4    0    0 -0.18167713276E-01 -0.77562574877E-01  0.19144504336E-01  0.81931630000E-01  0.51100000000E-03 0. -1.
</event>
<event>
 8    1  0.1064884E+005  0.1043930E+01  0.7957747E-01            NaN
         13   -1    0    0    0    0  0.00000000000E+00  0.00000000000E+00  0.74505805969E-08  0.10566000000E+00  0.10566000000E+00 0. -1.
     999900   -1    0    0    0    0 -0.00000000000E+00 -0.00000000000E+00 -0.74505805969E-08  0.93827000000E+00  0.93827000000E+00 0.  1.
     999902    2    1    2    0    0 -0.70067600446E-02  0.18819137926E-01  0.11966829170E-01  0.10205535238E+01  0.10202857616E+01 0.  0.
     999903    2    3    3    0    0  0.11389726866E+00 -0.55346024842E-01  0.15279425253E-01  0.12918983327E+00  0.20512969310E-01 0.  0.
         14    1    1    2    0    0  0.70067600446E-02 -0.18819137926E-01 -0.11966829170E-01  0.23376476188E-01  0.00000000000E+00 0.  1.
     999901    1    3    3    0    0 -0.12090402871E+00  0.74165162767E-01 -0.33125960834E-02  0.89136369054E+00  0.88000000000E+00 0. -1.
        -11    1    4    4    0    0  0.89089695471E-01 -0.38026821755E-01  0.18966421002E-01  0.98706632292E-01  0.51100000000E-03 0.  1.
         11    1    4    4    0    0  0.24807573190E-01 -0.17319203087E-01 -0.36869957492E-02  0.30483200977E-01  0.51100000000E-03 0. -1.
</event>
<event>
 8    1  0.1064884E+005  0.1043930E+01  0.7957747E-01            NaN
         13   -1    0    0    0    0  0.00000000000E+00  0.00000000000E+00  0.74505805969E-08  0.10566000000E+00  0.10566000000E+00 0.  1.
     999900   -1    0    0    0    0 -0.00000000000E+00 -0.00000000000E+00 -0.74505805969E-08  0.93827000000E+00  0.93827000000E+00 0.  1.
     999902    2    1    2    0    0  0.21822741192E-01 -0.69428422172E-02 -0.88716952457E-02  0.10193710491E+01  0.10190751659E+01 0.  0.
     999903    2    3    3    0    0  0.70824556797E-01 -0.63005377486E-01 -0.90456804763E-01  0.13246614110E+00  0.19469195481E-01 0.  0.
         14    1    1    2    0    0 -0.21822741192E-01  0.69428422172E-02  0.88716952457E-02  0.24558950868E-01  0.00000000000E+00 0.  1.
     999901    1    3    3    0    0 -0.49001815605E-01  0.56062535269E-01  0.81585109518E-01  0.88690490803E+00  0.88000000000E+00 0. -1.
        -11    1    4    4    0    0  0.52527784165E-01 -0.56053336057E-01 -0.76555382888E-01  0.10845336492E+00  0.51100000000E-03 0.  1.
         11    1    4    4    0    0  0.18296772632E-01 -0.69520414293E-02 -0.13901421876E-01  0.24012776181E-01  0.51100000000E-03 0. -1.
</event>
<event>
 8    1  0.1064884E+005  0.1043930E+01  0.7957747E-01            NaN
         13   -1    0    0    0    0  0.00000000000E+00  0.00000000000E+00  0.74505805969E-08  0.10566000000E+00  0.10566000000E+00 0.  1.
     999900   -1    0    0    0    0 -0.00000000000E+00 -0.00000000000E+00 -0.74505805969E-08  0.93827000000E+00  0.93827000000E+00 0.  1.
     999902    2    1    2    0    0 -0.23166194523E-01  0.61730100905E-02  0.26833638682E-03  0.10199539572E+01  0.10196721161E+01 0.  0.
     999903    2    3    3    0    0  0.10441251367E+00 -0.68264220748E-01  0.16829259409E-01  0.12749023680E+00  0.20212858808E-01 0.  0.
         14    1    1    2    0    0  0.23166194523E-01 -0.61730100905E-02 -0.26833638682E-03  0.23976042765E-01  0.00000000000E+00 0.  1.
     999901    1    3    3    0    0 -0.12757870820E+00  0.74437230838E-01 -0.16560923022E-01  0.89246372043E+00  0.88000000000E+00 0.  1.
        -11    1    4    4    0    0  0.11869781015E-01 -0.15490066037E-01 -0.64583406542E-03  0.19532333957E-01  0.51100000000E-03 0. -1.
         11    1    4    4    0    0  0.92542732659E-01 -0.52774154711E-01  0.17475093474E-01  0.10795790284E+00  0.51100000000E-03 0.  1.
</event>
<event>
 8    1  0.1064884E+005  0.1043930E+01  0.7957747E-01            NaN
         13   -1    0    0    0    0  0.00000000000E+00  0.00000000000E+00  0.74505805969E-08  0.10566000000E+00  0.10566000000E+00 0.  1.
     999900   -1    0    0    0    0 -0.00000000000E+00 -0.00000000000E+00 -0.74505805969E-08  0.93827000000E+00  0.93827000000E+00 0. -1.
     999902    2    1    2    0    0 -0.29070822259E-02 -0.22005601559E-02  0.24732979843E-01  0.10189297223E+01  0.10186229750E+01 0.  0.
     999903    2    3    3    0    0  0.92763209786E-02 -0.91200625866E-01 -0.86050405125E-01  0.12744646090E+00  0.20840438687E-01 0.  0.
         14    1    1    2    0    0  0.29070822259E-02  0.22005601559E-02 -0.24732979843E-01  0.25000277678E-01  0.00000000000E+00 0. -1.
     999901    1    3    3    0    0 -0.12183403205E-01  0.89000065711E-01  0.11078338497E+00  0.89148326142E+00  0.88000000000E+00 0.  1.
        -11    1    4    4    0    0  0.11488432875E-01 -0.31367936582E-01 -0.23426514086E-01  0.40804340683E-01  0.51100000000E-03 0. -1.
         11    1    4    4    0    0 -0.22121118961E-02 -0.59832689284E-01 -0.62623891039E-01  0.86642120218E-01  0.51100000000E-03 0.  1.
</event>
<event>
 8    1  0.1064884E+005  0.1043930E+01  0.7957747E-01            NaN
         13   -1    0    0    0    0  0.00000000000E+00  0.00000000000E+00  0.74505805969E-08  0.10566000000E+00  0.10566000000E+00 0. -1.
     999900   -1    0    0    0    0 -0.00000000000E+00 -0.00000000000E+00 -0.74505805969E-08  0.93827000000E+00  0.93827000000E+00 0.  1.
     999902    2    1    2    0    0 -0.61006892143E-02 -0.22055002744E-01 -0.35366436867E-02  0.10207750998E+01  0.10205124472E+01 0.  0.
     999903    2    3    3    0    0  0.72810496559E-01 -0.70810751522E-01  0.80766283082E-01  0.13189317190E+00  0.23602656003E-01 0.  0.
         14    1    1    2    0    0  0.61006892143E-02  0.22055002744E-01  0.35366436867E-02  0.23154900205E-01  0.00000000000E+00 0.  1.
     999901    1    3    3    0    0 -0.78911185774E-01  0.48755748777E-01 -0.84302926769E-01  0.88888192790E+00  0.88000000000E+00 0.  1.
        -11    1    4    4    0    0  0.40324620309E-01 -0.54784827159E-01  0.53835957054E-01  0.86752658073E-01  0.51100000000E-03 0. -1.
         11    1    4    4    0    0  0.32485876250E-01 -0.16025924362E-01  0.26930326028E-01  0.45140513825E-01  0.51100000000E-03 0.  1.
</event>
<event>
 8    1  0.1064884E+005  0.1043930E+01  0.7957747E-01            NaN
         13   -1    0    0    0    0  0.00000000000E+00  0.00000000000E+00  0.74505805969E-08  0.10566000000E+00  0.10566000000E+00 0. -1.
     999900   -1    0    0    0    0 -0.00000000000E+00 -0.00000000000E+00 -0.74505805969E-08  0.93827000000E+00  0.93827000000E+00 0.  1.
     999902    2    1    2    0    0 -0.17074831562E-01 -0.16022543986E-01  0.26839073689E-02  0.10203614797E+01  0.10200892481E+01 0.  0.
     999903    2    3    3    0    0  0.53339365554E-01 -0.44170492769E-01 -0.10775290519E+00  0.13022286371E+00  0.23477336009E-01 0.  0.
         14    1    1    2    0    0  0.17074831562E-01  0.16022543986E-01 -0.26839073689E-02  0.23568520263E-01  0.00000000000E+00 0. -1.
     999901    1    3    3    0    0 -0.70414197116E-01  0.28147948784E-01  0.11043681256E+00  0.89013861603E+00  0.88000000000E+00 0. -1.
        -11    1    4    4    0    0  0.19582638202E-01 -0.79589837861E-02 -0.18210937270E-01  0.27905635616E-01  0.51100000000E-03 0. -1.
         11    1    4    4    0    0  0.33756727352E-01 -0.36211508983E-01 -0.89541967921E-01  0.10231722809E+00  0.51100000000E-03 0.  1.
</event>
<event>
 8    1  0.1064884E+005  0.1043930E+01  0.7957747E-01            NaN
         13   -1    0    0    0    0  0.00000000000E+00  0.00000000000E+00  0.74505805969E-08  0.10566000000E+00  0.10566000000E+00 0.  1.
     999900   -1    0    0    0    0 -0.00000000000E+00 -0.00000000000E+00 -0.74505805969E-08  0.93827000000E+00  0.93827000000E+00 0.  1.
     999902    2    1    2    0    0  0.18292229630E-01  0.64491738089E-02  0.16992097458E-01  0.10181437850E+01  0.10178171929E+01 0.  0.
     999903    2    3    3    0    0  0.24250898806E-01  0.97402572460E-01 -0.77572887701E-01  0.12839631360E+00  0.19816488688E-01 0.  0.
         14    1    1    2    0    0 -0.18292229630E-01 -0.64491738089E-02 -0.16992097458E-01  0.25786214993E-01  0.00000000000E+00 0. -1.
     999901    1    3    3    0    0 -0.59586691757E-02 -0.90953398651E-01  0.94564985158E-01  0.88974747141E+00  0.88000000000E+00 0. -1.
        -11    1    4    4    0    0  0.22291200079E-01  0.70698786502E-01 -0.47103578611E-01  0.87830656680E-01  0.51100000000E-03 0.  1.
         11    1    4    4    0    0  0.19596987271E-02  0.26703785958E-01 -0.30469309090E-01  0.40565656916E-01  0.51100000000E-03 0. -1.
</event>
<event>
 8    1  0.1064884E+005  0.1043930E+01  0.7957747E-01            NaN
         13   -1    0    0    0    0  0.00000000000E+00  0.00000000000E+00  0.74505805969E-08  0.10566000000E+00  0.10566000000E+00 0. -1.
     999900   -1    0    0    0    0 -0.00000000000E+00 -0.00000000000E+00 -0.74505805969E-08  0.93827000000E+00  0.93827000000E+00 0.  1.
     999902    2    1    2    0    0  0.69290115846E-02  0.22093599632E-01  0.35827775438E-02  0.10204997921E+01  0.10202307832E+01 0.  0.
     999903    2    3    3    0    0  0.11562146900E+00  0.60703933494E-01  0.15109973924E-01  0.13289758142E+00  0.19497799876E-01 0.  0.
         14    1    1    2    0    0 -0.69290115846E-02 -0.22093599632E-01 -0.35827775438E-02  0.23430207877E-01  0.00000000000E+00 0.  1.
     999901    1    3    3    0    0 -0.10869245742E+00 -0.38610333862E-01 -0.11527196381E-01  0.88760221070E+00  0.88000000000E+00 0. -1.
        -11    1    4    4    0    0  0.31345557791E-01  0.85437560820E-02 -0.86972287096E-03  0.32504727350E-01  0.51100000000E-03 0. -1.
         11    1    4    4    0    0  0.84275911213E-01  0.52160177412E-01  0.15979696795E-01  0.10039285407E+00  0.51100000000E-03 0.  1.
</event>
<event>
 8    1  0.1064884E+005  0.1043930E+01  0.7957747E-01            NaN
         13   -1    0    0    0    0  0.00000000000E+00  0.00000000000E+00  0.74505805969E-08  0.10566000000E+00  0.10566000000E+00 0. -1.
     999900   -1    0    0    0    0 -0.00000000000E+00 -0.00000000000E+00 -0.74505805969E-08  0.93827000000E+00  0.93827000000E+00 0. -1.
     999902    2    1    2    0    0 -0.44056622817E-02  0.39666185486E-02  0.23321773957E-01  0.10198665617E+01  0.10195826374E+01 0.  0.
     999903    2    3    3    0    0 -0.30206771927E-01 -0.17733524667E-01  0.12686863525E+00  0.13315435023E+00  0.20186713632E-01 0.  0.
         14    1    1    2    0    0  0.44056622817E-02 -0.39666185486E-02 -0.23321773957E-01  0.24063438311E-01  0.00000000000E+00 0.  1.
     999901    1    3    3    0    0  0.25801109646E-01  0.21700143216E-01 -0.10354686129E+00  0.88671221146E+00  0.88000000000E+00 0. -1.
        -11    1    4    4    0    0 -0.18589859359E-01 -0.20672254499E-01  0.98618695603E-01  0.10246381420E+00  0.51100000000E-03 0. -1.
         11    1    4    4    0    0 -0.11616912569E-01  0.29387298316E-02  0.28249939644E-01  0.30690536026E-01  0.51100000000E-03 0.  1.
</event>
<event>
 8    1  0.1064884E+005  0.1043930E+01  0.7957747E-01            NaN
         13   -1    0    0    0    0  0.00000000000E+00  0.00000000000E+00  0.74505805969E-08  0.10566000000E+00  0.10566000000E+00 0.  1.
     999900   -1    0    0    0    0 -0.00000000000E+00 -0.00000000000E+00 -0.74505805969E-08  0.93827000000E+00  0.93827000000E+00 0.  1.
     999902    2    1    2    0    0  0.12314280024E-01  0.15786771952E-01 -0.12843469150E-01  0.10201430632E+01  0.10198657025E+01 0.  0.
     999903    2    3    3    0    0  0.56041593393E-01  0.11786215350E+00  0.14826124462E-01  0.13273274784E+00  0.19131674339E-01 0.  0.
         14    1    1    2    0    0 -0.12314280024E-01 -0.15786771952E-01  0.12843469150E-01  0.23786936772E-01  0.00000000000E+00 0.  1.
     999901    1    3    3    0    0 -0.43727313368E-01 -0.10207538155E+00 -0.27669593612E-01  0.88741031539E+00  0.88000000000E+00 0. -1.
        -11    1    4    4    0    0  0.28337937656E-01  0.80794189489E-01  0.99160661860E-02  0.86193556925E-01  0.51100000000E-03 0.  1.
         11    1    4    4    0    0  0.27703655737E-01  0.37067964015E-01  0.49100582760E-02  0.46539190912E-01  0.51100000000E-03 0. -1.
</event>
<event>
 8    1  0.1064884E+005  0.1043930E+01  0.7957747E-01            NaN
         13   -1    0    0    0    0  0.00000000000E+00  0.00000000000E+00  0.74505805969E-08  0.10566000000E+00  0.10566000000E+00 0. -1.
     999900   -1    0    0    0    0 -0.00000000000E+00 -0.00000000000E+00 -0.74505805969E-08  0.93827000000E+00  0.93827000000E+00 0. -1.
     999902    2    1    2    0    0 -0.92852673059E-02 -0.30974228516E-02 -0.21190334126E-01  0.10205881818E+01  0.10203212221E+01 0.  0.
     999903    2    3    3    0    0  0.10927445945E+00 -0.21136617031E-01 -0.66818951553E-01  0.13128295181E+00  0.19564689629E-01 0.  0.
         14    1    1    2    0    0  0.92852673059E-02  0.30974228516E-02  0.21190334126E-01  0.23341818216E-01  0.00000000000E+00 0. -1.
     999901    1    3    3    0    0 -0.11855972676E+00  0.18039194179E-01  0.45628617428E-01  0.88930522998E+00  0.88000000000E+00 0.  1.
        -11    1    4    4    0    0  0.39727542635E-01 -0.17240660081E-01 -0.23961311634E-01  0.49496702719E-01  0.51100000000E-03 0.  1.
         11    1    4    4    0    0  0.69546916818E-01 -0.38959569499E-02 -0.42857639919E-01  0.81786249088E-01  0.51100000000E-03 0. -1.
</event>
<event>
 8    1  0.1064884E+005  0.1043930E+01  0.7957747E-01            NaN
         13   -1    0    0    0    0  0.00000000000E+00  0.00000000000E+00  0.74505805969E-08  0.10566000000E+00  0.10566000000E+00 0. -1.
     999900   -1    0    0    0    0 -0.00000000000E+00 -0.00000000000E+00 -0.74505805969E-08  0.93827000000E+00  0.93827000000E+00 0.  1.
     999902    2    1    2    0    0  0.83550013145E-02  0.53626542423E-02  0.21267305907E-01  0.10204595418E+01  0.10201895971E+01 0.  0.
     999903    2    3    3    0    0 -0.61060147225E-01  0.55612586253E-01  0.10150633529E+00  0.13266349521E+00  0.21793703842E-01 0.  0.
         14    1    1    2    0    0 -0.83550013145E-02 -0.53626542423E-02 -0.21267305907E-01  0.23470458198E-01  0.00000000000E+00 0.  1.
     999901    1    3    3    0    0  0.69415148540E-01 -0.50249932011E-01 -0.80239029384E-01  0.88779604660E+00  0.88000000000E+00 0.  1.
        -11    1    4    4    0    0 -0.50207304660E-01  0.50670352835E-01  0.95779610388E-01  0.11942467494E+00  0.51100000000E-03 0. -1.
         11    1    4    4    0    0 -0.10852842566E-01  0.49422334180E-02  0.57267249038E-02  0.13238820266E-01  0.51100000000E-03 0.  1.
</event>
<event>
 8    1  0.1064884E+005  0.1043930E+01  0.7957747E-01            NaN
         13   -1    0    0    0    0  0.00000000000E+00  0.00000000000E+00  0.74505805969E-08  0.10566000000E+00  0.10566000000E+00 0. -1.
     999900   -1    0    0    0    0 -0.00000000000E+00 -0.00000000000E+00 -0.74505805969E-08  0.93827000000E+00  0.93827000000E+00 0.  1.
     999902    2    1    2    0    0  0.89846188912E-02 -0.14889105379E-01 -0.16315587408E-01  0.10200845135E+01  0.10198057694E+01 0.  0.
     999903    2    3    3    0    0  0.36417906039E-02 -0.38017418150E-01  0.12149850487E+00  0.12904232103E+00  0.20771307372E-01 0.  0.
         14    1    1    2    0    0 -0.89846188912E-02  0.14889105379E-01  0.16315587408E-01  0.23845486535E-01  0.00000000000E+00 0. -1.
     999901    1    3    3    0    0  0.53428282873E-02  0.23128312771E-01 -0.13781409228E+00  0.89104219243E+00  0.88000000000E+00 0.  1.
        -11    1    4    4    0    0 -0.41672267564E-02 -0.27257745453E-01  0.58783340683E-01  0.64931446379E-01  0.51100000000E-03 0.  1.
         11    1    4    4    0    0  0.78090173603E-02 -0.10759672696E-01  0.62715164188E-01  0.64110874653E-01  0.51100000000E-03 0. -1.
</event>
<event>
 8    1  0.1064884E+005  0.1043930E+01  0.7957747E-01            NaN
         13   -1    0    0    0    0  0.00000000000E+00  0.00000000000E+00  0.74505805969E-08  0.10566000000E+00  0.10566000000E+00 0. -1.
     999900   -1    0    0    0    0 -0.00000000000E+00 -0.00000000000E+00 -0.74505805969E-08  0.93827000000E+00  0.93827000000E+00 0.  1.
     999902    2    1    2    0    0 -0.18393929906E-01  0.91580993005E-02  0.42335622441E-02  0.10229507128E+01  0.10227355623E+01 0.  0.
     999903    2    3    3    0    0 -0.69345173760E-01  0.33865157446E-01  0.10882174945E+00  0.13495006145E+00  0.20340696177E-01 0.  0.
         14    1    1    2    0    0  0.18393929906E-01 -0.91580993005E-02 -0.42335622441E-02  0.20979287153E-01  0.00000000000E+00 0.  1.
     999901    1    3    3    0    0  0.50951243854E-01 -0.24707058145E-01 -0.10458818720E+00  0.88800065139E+00  0.88000000000E+00 0.  1.
        -11    1    4    4    0    0 -0.35736851585E-01  0.83948994592E-02  0.40525973733E-01  0.54682836120E-01  0.51100000000E-03 0. -1.
         11    1    4    4    0    0 -0.33608322175E-01  0.25470257987E-01  0.68295775715E-01  0.80267225334E-01  0.51100000000E-03 0.  1.
</event>
<event>
 8    1  0.1064884E+005  0.1043930E+01  0.7957747E-01            NaN
         13   -1    0    0    0    0  0.00000000000E+00  0.00000000000E+00  0.74505805969E-08  0.10566000000E+00  0.10566000000E+00 0.  1.
     999900   -1    0    0    0    0 -0.00000000000E+00 -0.00000000000E+00 -0.74505805969E-08  0.93827000000E+00  0.93827000000E+00 0.  1.
     999902    2    1    2    0    0 -0.15751879226E-01  0.16981857428E-01 -0.22718916064E-02  0.10206562665E+01  0.10203908798E+01 0.  0.
     999903    2    3    3    0    0  0.48292896685E-01  0.10511547430E+00 -0.58435162840E-01  0.13216114506E+00  0.25892724804E-01 0.  0.
         14    1    1    2    0    0  0.15751879226E-01 -0.16981857428E-01  0.22718916064E-02  0.23273733528E-01  0.00000000000E+00 0. -1.
     999901    1    3    3    0    0 -0.64044775912E-01 -0.88133616876E-01  0.56163271234E-01  0.88849512142E+00  0.88000000000E+00 0.  1.
        -11    1    4    4    0    0  0.23786734035E-01  0.29180336075E-01 -0.27309566124E-01  0.46512087164E-01  0.51100000000E-03 0. -1.
         11    1    4    4    0    0  0.24506162650E-01  0.75935138229E-01 -0.31125596717E-01  0.85649057891E-01  0.51100000000E-03 0.  1.
</event>
<event>
 8    1  0.1064884E+005  0.1043930E+01  0.7957747E-01            NaN
         13   -1    0    0    0    0  0.00000000000E+00  0.00000000000E+00  0.74505805969E-08  0.10566000000E+00  0.10566000000E+00 0. -1.
     999900   -1    0    0    0    0 -0.00000000000E+00 -0.00000000000E+00 -0.74505805969E-08  0.93827000000E+00  0.93827000000E+00 0. -1.
     999902    2    1    2    0    0 -0.18951624017E-01  0.94057136239E-02  0.97332506595E-02  0.10206412115E+01  0.10203754774E+01 0.  0.
     999903    2    3    3    0    0  0.95385888873E-01  0.80719053820E-01  0.30129591982E-01  0.13014995939E+00  0.20425135723E-01 0.  0.
         14    1    1    2    0    0  0.18951624017E-01 -0.94057136239E-02 -0.97332506595E-02  0.23288788506E-01  0.00000000000E+00 0. -1.
     999901    1    3    3    0    0 -0.11433751289E+00 -0.71313340196E-01 -0.20396341323E-01  0.89049125211E+00  0.88000000000E+00 0. -1.
        -11    1    4    4    0    0  0.20242320257E-01  0.27728321948E-01  0.40492174579E-02  0.34572657556E-01  0.51100000000E-03 0.  1.
         11    1    4    4    0    0  0.75143568617E-01  0.52990731871E-01  0.26080374524E-01  0.95577301829E-01  0.51100000000E-03 0. -1.
</event>
<event>
 8    1  0.1064884E+005  0.1043930E+01  0.7957747E-01            NaN
         13   -1    0    0    0    0  0.00000000000E+00  0.00000000000E+00  0.74505805969E-08  0.10566000000E+00  0.10566000000E+00 0.  1.
     999900   -1    0    0    0    0 -0.00000000000E+00 -0.00000000000E+00 -0.74505805969E-08  0.93827000000E+00  0.93827000000E+00 0. -1.
     999902    2    1    2    0    0  0.93358871042E-02  0.85474013057E-02 -0.19939706372E-01  0.10203120249E+01  0.10200386362E+01 0.  0.
     999903    2    3    3    0    0  0.98111005165E-01  0.51687006957E-01  0.65608483233E-01  0.13067134469E+00  0.21753418762E-01 0.  0.
         14    1    1    2    0    0 -0.93358871042E-02 -0.85474013057E-02  0.19939706372E-01  0.23617975089E-01  0.00000000000E+00 0.  1.
     999901    1    3    3    0    0 -0.88775118060E-01 -0.43139605651E-01 -0.85548189605E-01  0.88964068022E+00  0.88000000000E+00 0. -1.
        -11    1    4    4    0    0  0.44678682531E-01  0.32856924613E-01  0.40640756568E-01  0.68758231385E-01  0.51100000000E-03 0.  1.
         11    1    4    4    0    0  0.53432322633E-01  0.18830082344E-01  0.24967726665E-01  0.61913113303E-01  0.51100000000E-03 0. -1.
</event>
<event>
 8    1  0.1064884E+005  0.1043930E+01  0.7957747E-01            NaN
         13   -1    0    0    0    0  0.00000000000E+00  0.00000000000E+00  0.74505805969E-08  0.10566000000E+00  0.10566000000E+00 0.  1.
     999900   -1    0    0    0    0 -0.00000000000E+00 -0.00000000000E+00 -0.74505805969E-08  0.93827000000E+00  0.93827000000E+00 0. -1.
     999902    2    1    2    0    0  0.57542375036E-02 -0.27811950492E-02  0.21915552479E-01  0.10211015586E+01  0.10208463426E+01 0.  0.
     999903    2    3    3    0    0  0.79970892113E-01  0.10073457157E+00 -0.16518684010E-01  0.13110110003E+00  0.19282998071E-01 0.  0.
         14    1    1    2    0    0 -0.57542375036E-02  0.27811950492E-02 -0.21915552479E-01  0.22828441375E-01  0.00000000000E+00 0. -1.
     999901    1    3    3    0    0 -0.74216654609E-01 -0.10351576662E+00  0.38434236489E-01  0.89000045859E+00  0.88000000000E+00 0.  1.
        -11    1    4    4    0    0  0.53264802798E-01  0.58971658405E-01 -0.21898903460E-02  0.79497499664E-01  0.51100000000E-03 0.  1.
         11    1    4    4    0    0  0.26706089315E-01  0.41762913161E-01 -0.14328793664E-01  0.51603600369E-01  0.51100000000E-03 0. -1.
</event>
<event>
 8    1  0.1064884E+005  0.1043930E+01  0.7957747E-01            NaN
         13   -1    0    0    0    0  0.00000000000E+00  0.00000000000E+00  0.74505805969E-08  0.10566000000E+00  0.10566000000E+00 0.  1.
     999900   -1    0    0    0    0 -0.00000000000E+00 -0.00000000000E+00 -0.74505805969E-08  0.93827000000E+00  0.93827000000E+00 0.  1.
     999902    2    1    2    0    0 -0.76635005906E-02  0.21852285533E-01  0.50371897231E-02  0.10202313734E+01  0.10199560923E+01 0.  0.
     999903    2    3    3    0    0  0.67673565587E-02 -0.53886648686E-01 -0.11482896577E+00  0.12876486752E+00  0.21098144647E-01 0.  0.
         14    1    1    2    0    0  0.76635005906E-02 -0.21852285533E-01 -0.50371897231E-02  0.23698626640E-01  0.00000000000E+00 0. -1.
     999901    1    3    3    0    0 -0.14430857149E-01  0.75738934219E-01  0.11986615549E+00  0.89146650584E+00  0.88000000000E+00 0. -1.
        -11    1    4    4    0    0 -0.87960694586E-03 -0.49173136261E-01 -0.94471984643E-01  0.10650815951E+00  0.51100000000E-03 0. -1.
         11    1    4    4    0    0  0.76469635045E-02 -0.47135124257E-02 -0.20356981125E-01  0.22256708017E-01  0.51100000000E-03 0.  1.
</event>
<event>
 8    1  0.1064884E+005  0.1043930E+01  0.7957747E-01            NaN
         13   -1    0    0    0    0  0.00000000000E+00  0.00000000000E+00  0.74505805969E-08  0.10566000000E+00  0.10566000000E+00 0.  1.
     999900   -1    0    0    0    0 -0.00000000000E+00 -0.00000000000E+00 -0.74505805969E-08  0.93827000000E+00  0.93827000000E+00 0. -1.
     999902    2    1    2    0    0  0.17924984935E-02  0.23283666962E-01  0.23704018150E-02  0.10204574415E+01  0.10201874479E+01 0.  0.
     999903    2    3    3    0    0 -0.82534634284E-01 -0.50489903180E-02 -0.98626258259E-01  0.13022481452E+00  0.19847048593E-01 0.  0.
         14    1    1    2    0    0 -0.17924984935E-02 -0.23283666962E-01 -0.23704018150E-02  0.23472558506E-01  0.00000000000E+00 0. -1.
     999901    1    3    3    0    0  0.84327132777E-01  0.28332657280E-01  0.10099666007E+00  0.89023262698E+00  0.88000000000E+00 0.  1.
        -11    1    4    4    0    0 -0.40140963406E-01 -0.40434583979E-02 -0.33173152175E-01  0.52233759632E-01  0.51100000000E-03 0.  1.
         11    1    4    4    0    0 -0.42393670877E-01 -0.10055319201E-02 -0.65453106084E-01  0.77991054884E-01  0.51100000000E-03 0. -1.
</event>
<event>
 8    1  0.1064884E+005  0.1043930E+01  0.7957747E-01            NaN
         13   -1    0    0    0    0  0.00000000000E+00  0.00000000000E+00  0.74505805969E-08  0.10566000000E+00  0.10566000000E+00 0. -1.
     999900   -1    0    0    0    0 -0.00000000000E+00 -0.00000000000E+00 -0.74505805969E-08  0.93827000000E+00  0.93827000000E+00 0.  1.
     999902    2    1    2    0    0 -0.16272671884E-01  0.14342458103E-01 -0.95963056808E-02  0.10202109141E+01  0.10199351519E+01 0.  0.
     999903    2    3    3    0    0 -0.98998433618E-01  0.20100468964E-01 -0.84227664287E-01  0.13316720261E+00  0.20844320801E-01 0.  0.
         14    1    1    2    0    0  0.16272671884E-01 -0.14342458103E-01  0.95963056808E-02  0.23719085931E-01  0.00000000000E+00 0.  1.
     999901    1    3    3    0    0  0.82725761734E-01 -0.57580108613E-02  0.74631358606E-01  0.88704371145E+00  0.88000000000E+00 0.  1.
        -11    1    4    4    0    0 -0.16715981771E-01  0.78262293839E-02 -0.72936674779E-02  0.19852773590E-01  0.51100000000E-03 0.  1.
         11    1    4    4    0    0 -0.82282451848E-01  0.12274239580E-01 -0.76933996809E-01  0.11331442903E+00  0.51100000000E-03 0. -1.
</event>
<event>
 8    1  0.1064884E+005  0.1043930E+01  0.7957747E-01            NaN
         13   -1    0    0    0    0  0.00000000000E+00  0.00000000000E+00  0.74505805969E-08  0.10566000000E+00  0.10566000000E+00 0. -1.
     999900   -1    0    0    0    0 -0.00000000000E+00 -0.00000000000E+00 -0.74505805969E-08  0.93827000000E+00  0.93827000000E+00 0. -1.
     999902    2    1    2    0    0 -0.86793102898E-02  0.17556404451E-01 -0.13439069304E-01  0.10201778138E+01  0.10199012724E+01 0.  0.
     999903    2    3    3    0    0  0.49420519787E-01  0.28657925959E-01  0.11404822470E+00  0.12902583792E+00  0.19416611358E-01 0.  0.
         14    1    1    2    0    0  0.86793102898E-02 -0.17556404451E-01  0.13439069304E-01  0.23752186175E-01  0.00000000000E+00 0.  1.
     999901    1    3    3    0    0 -0.58099830076E-01 -0.11101521508E-01 -0.12748729400E+00  0.89115197591E+00  0.88000000000E+00 0. -1.
        -11    1    4    4    0    0  0.95886367576E-04 -0.63118427452E-03  0.11442909331E-01  0.11472091472E-01  0.51100000000E-03 0. -1.
         11    1    4    4    0    0  0.49324633419E-01  0.29289110234E-01  0.10260531537E+00  0.11755374644E+00  0.51100000000E-03 0.  1.
</event>
<event>
 8    1  0.1064884E+005  0.1043930E+01  0.7957747E-01            NaN
         13   -1    0    0    0    0  0.00000000000E+00  0.00000000000E+00  0.74505805969E-08  0.10566000000E+00  0.10566000000E+00 0.  1.
     999900   -1    0    0    0    0 -0.00000000000E+00 -0.00000000000E+00 -0.74505805969E-08  0.93827000000E+00  0.93827000000E+00 0. -1.
     999902    2    1    2    0    0  0.21148006798E-01 -0.25060334997E-01 -0.96384897998E-02  0.10097516579E+01  0.10091730533E+01 0.  0.
     999903    2    3    3    0    0 -0.87051524381E-01  0.20023104227E-01 -0.76716766694E-01  0.11944881603E+00  0.20091410108E-01 0.  0.
         14    1    1    2    0    0 -0.21148006798E-01  0.25060334997E-01  0.96384897998E-02  0.34178342079E-01  0.00000000000E+00 0.  1.
     999901    1    3    3    0    0  0.10819953118E+00 -0.45083439223E-01  0.67078276894E-01  0.89030284189E+00  0.88000000000E+00 0.  1.
        -11    1    4    4    0    0 -0.34955510471E-01  0.88773503906E-02 -0.44133700408E-01  0.56997716576E-01  0.51100000000E-03 0. -1.
         11    1    4    4    0    0 -0.52096013911E-01  0.11145753836E-01 -0.32583066286E-01  0.62451099458E-01  0.51100000000E-03 0.  1.
</event>
<event>
 8    1  0.1064884E+005  0.1043930E+01  0.7957747E-01            NaN
         13   -1    0    0    0    0  0.00000000000E+00  0.00000000000E+00  0.74505805969E-08  0.10566000000E+00  0.10566000000E+00 0. -1.
     999900   -1    0    0    0    0 -0.00000000000E+00 -0.00000000000E+00 -0.74505805969E-08  0.93827000000E+00  0.93827000000E+00 0.  1.
     999902    2    1    2    0    0 -0.10016760351E-01 -0.21385057916E-01  0.56262771612E-03  0.10203085534E+01  0.10200350834E+01 0.  0.
     999903    2    3    3    0    0 -0.12205360886E+00 -0.47667513051E-01 -0.76776604314E-02  0.13277775098E+00  0.20042690688E-01 0.  0.
         14    1    1    2    0    0  0.10016760351E-01  0.21385057916E-01 -0.56262771612E-03  0.23621446610E-01  0.00000000000E+00 0. -1.
     999901    1    3    3    0    0  0.11203684851E+00  0.26282455135E-01  0.82402881476E-02  0.88753080241E+00  0.88000000000E+00 0. -1.
        -11    1    4    4    0    0 -0.56187679647E-01 -0.11523833726E-01 -0.53556895434E-02  0.57609015087E-01  0.51100000000E-03 0. -1.
         11    1    4    4    0    0 -0.65865929214E-01 -0.36143679325E-01 -0.23219708880E-02  0.75168735896E-01  0.51100000000E-03 0.  1.
</event>
<event>
 8    1  0.1064884E+005  0.1043930E+01  0.7957747E-01            NaN
         13   -1    0    0    0    0  0.00000000000E+00  0.00000000000E+00  0.74505805969E-08  0.10566000000E+00  0.10566000000E+00 0. -1.
     999900   -1    0    0    0    0 -0.00000000000E+00 -0.00000000000E+00 -0.74505805969E-08  0.93827000000E+00  0.93827000000E+00 0.  1.
     999902    2    1    2    0    0 -0.32790490852E-03 -0.25439514390E-02  0.24714544485E-01  0.10190827080E+01  0.10187797494E+01 0.  0.
     999903    2    3    3    0    0  0.82805061691E-02 -0.12362374711E+00  0.36478649396E-01  0.13067243351E+00  0.19829154936E-01 0.  0.
         14    1    1    2    0    0  0.32790490852E-03  0.25439514390E-02 -0.24714544485E-01  0.24847291998E-01  0.00000000000E+00 0.  1.
     999901    1    3    3    0    0 -0.86084110776E-02  0.12107979567E+00 -0.11764104911E-01  0.88841027449E+00  0.88000000000E+00 0.  1.
        -11    1    4    4    0    0  0.10487745519E-01 -0.61477613784E-01  0.26172018900E-01  0.67636717077E-01  0.51100000000E-03 0.  1.
         11    1    4    4    0    0 -0.22072393499E-02 -0.62146133325E-01  0.10306630495E-01  0.63035716431E-01  0.51100000000E-03 0. -1.
</event>
<event>
 8    1  0.1064884E+005  0.1043930E+01  0.7957747E-01            NaN
         13   -1    0    0    0    0  0.00000000000E+00  0.00000000000E+00  0.74505805969E-08  0.10566000000E+00  0.10566000000E+00 0.  1.
     999900   -1    0    0    0    0 -0.00000000000E+00 -0.00000000000E+00 -0.74505805969E-08  0.93827000000E+00  0.93827000000E+00 0.  1.
     999902    2    1    2    0    0  0.54211630816E-02 -0.17746269485E-01  0.15045980916E-01  0.10200406586E+01  0.10197608762E+01 0.  0.
     999903    2    3    3    0    0  0.38433527521E-01 -0.12450796946E+00  0.23935748232E-02  0.13288342331E+00  0.25940402691E-01 0.  0.
         14    1    1    2    0    0 -0.54211630816E-02  0.17746269485E-01 -0.15045980916E-01  0.23889341379E-01  0.00000000000E+00 0. -1.
     999901    1    3    3    0    0 -0.33012364440E-01  0.10676169998E+00  0.12652406093E-01  0.88715723531E+00  0.88000000000E+00 0. -1.
        -11    1    4    4    0    0  0.10334106266E-01 -0.66904450604E-01  0.96348609689E-02  0.68381948860E-01  0.51100000000E-03 0. -1.
         11    1    4    4    0    0  0.28099421255E-01 -0.57603518860E-01 -0.72412861457E-02  0.64501474448E-01  0.51100000000E-03 0.  1.
</event>
<event>
 8    1  0.1064884E+005  0.1043930E+01  0.7957747E-01            NaN
         13   -1    0    0    0    0  0.00000000000E+00  0.00000000000E+00  0.74505805969E-08  0.10566000000E+00  0.10566000000E+00 0.  1.
     999900   -1    0    0    0    0 -0.00000000000E+00 -0.00000000000E+00 -0.74505805969E-08  0.93827000000E+00  0.93827000000E+00 0.  1.
     999902    2    1    2    0    0 -0.92835439542E-03 -0.91737419905E-02 -0.77502700422E-02  0.10318848321E+01  0.10318145282E+01 0.  0.
     999903    2    3    3    0    0  0.11833786525E+00 -0.68803472510E-01 -0.29309703887E-01  0.14157873581E+00  0.21159194433E-01 0.  0.
         14    1    1    2    0    0  0.92835439542E-03  0.91737419905E-02  0.77502700422E-02  0.12045167899E-01  0.00000000000E+00 0.  1.
     999901    1    3    3    0    0 -0.11926621965E+00  0.59629730520E-01  0.21559433845E-01  0.89030609629E+00  0.88000000000E+00 0. -1.
        -11    1    4    4    0    0  0.87655385021E-01 -0.51961745056E-01 -0.12237482198E-01  0.10263287273E+00  0.51100000000E-03 0.  1.
         11    1    4    4    0    0  0.30682480230E-01 -0.16841727454E-01 -0.17072221689E-01  0.38945863081E-01  0.51100000000E-03 0. -1.
</event>
<event>
 8    1  0.1064884E+005  0.1043930E+01  0.7957747E-01            NaN
         13   -1    0    0    0    0  0.00000000000E+00  0.00000000000E+00  0.74505805969E-08  0.10566000000E+00  0.10566000000E+00 0.  1.
     999900   -1    0    0    0    0 -0.00000000000E+00 -0.00000000000E+00 -0.74505805969E-08  0.93827000000E+00  0.93827000000E+00 0. -1.
     999902    2    1    2    0    0 -0.17708409232E-01 -0.97891279246E-02  0.12811103867E-01  0.10199813223E+01  0.10197001317E+01 0.  0.
     999903    2    3    3    0    0  0.85836934959E-01 -0.60868725986E-01  0.74267358230E-01  0.13031417392E+00  0.19828318622E-01 0.  0.
         14    1    1    2    0    0  0.17708409232E-01  0.97891279246E-02 -0.12811103867E-01  0.23948677737E-01  0.00000000000E+00 0. -1.
     999901    1    3    3    0    0 -0.10354534419E+00  0.51079598061E-01 -0.61456254364E-01  0.88966714834E+00  0.88000000000E+00 0. -1.
        -11    1    4    4    0    0  0.57108783836E-01 -0.31925218744E-01  0.37553598338E-01  0.75439821396E-01  0.51100000000E-03 0. -1.
         11    1    4    4    0    0  0.28728151123E-01 -0.28943507242E-01  0.36713759892E-01  0.54874352523E-01  0.51100000000E-03 0.  1.
</event>
<event>
 8    1  0.1064884E+005  0.1043930E+01  0.7957747E-01            NaN
         13   -1    0    0    0    0  0.00000000000E+00  0.00000000000E+00  0.74505805969E-08  0.10566000000E+00  0.10566000000E+00 0. -1.
     999900   -1    0    0    0    0 -0.00000000000E+00 -0.00000000000E+00 -0.74505805969E-08  0.93827000000E+00  0.93827000000E+00 0. -1.
     999902    2    1    2    0    0 -0.18872721465E-01  0.93094045122E-02  0.11038969586E-01  0.10201665096E+01  0.10198897018E+01 0.  0.
     999903    2    3    3    0    0  0.78424425225E-01  0.19444356537E-01  0.10020095301E+00  0.13026802587E+00  0.20026335351E-01 0.  0.
         14    1    1    2    0    0  0.18872721465E-01 -0.93094045122E-02 -0.11038969586E-01  0.23763490430E-01  0.00000000000E+00 0. -1.
     999901    1    3    3    0    0 -0.97297146691E-01 -0.10134952025E-01 -0.89161983419E-01  0.88989848370E+00  0.88000000000E+00 0. -1.
        -11    1    4    4    0    0  0.63560206524E-01  0.18415952713E-01  0.91766959922E-01  0.11313922053E+00  0.51100000000E-03 0.  1.
         11    1    4    4    0    0  0.14864218702E-01  0.10284038242E-02  0.84339930833E-02  0.17128805340E-01  0.51100000000E-03 0. -1.
</event>
<event>
 8    1  0.1064884E+005  0.1043930E+01  0.7957747E-01            NaN
         13   -1    0    0    0    0  0.00000000000E+00  0.00000000000E+00  0.74505805969E-08  0.10566000000E+00  0.10566000000E+00 0. -1.
     999900   -1    0    0    0    0 -0.00000000000E+00 -0.00000000000E+00 -0.74505805969E-08  0.93827000000E+00  0.93827000000E+00 0.  1.
     999902    2    1    2    0    0 -0.79232114552E-02 -0.17030525019E-01  0.14617389132E-01  0.10201290730E+01  0.10198513820E+01 0.  0.
     999903    2    3    3    0    0 -0.54341735969E-01 -0.79448263351E-01 -0.86691650702E-01  0.13090796716E+00  0.18878632015E-01 0.  0.
         14    1    1    2    0    0  0.79232114552E-02  0.17030525019E-01 -0.14617389132E-01  0.23800927025E-01  0.00000000000E+00 0.  1.
     999901    1    3    3    0    0  0.46418524514E-01  0.62417738331E-01  0.10130903983E+00  0.88922110582E+00  0.88000000000E+00 0. -1.
        -11    1    4    4    0    0 -0.19687342472E-01 -0.30301501371E-01 -0.45078150246E-01  0.57776060696E-01  0.51100000000E-03 0.  1.
         11    1    4    4    0    0 -0.34654393497E-01 -0.49146761980E-01 -0.41613500456E-01  0.73131906463E-01  0.51100000000E-03 0. -1.
</event>
<event>
 8    1  0.1064884E+005  0.1043930E+01  0.7957747E-01            NaN
         13   -1    0    0    0    0  0.00000000000E+00  0.00000000000E+00  0.74505805969E-08  0.10566000000E+00  0.10566000000E+00 0. -1.
     999900   -1    0    0    0    0 -0.00000000000E+00 -0.00000000000E+00 -0.74505805969E-08  0.93827000000E+00  0.93827000000E+00 0.  1.
     999902    2    1    2    0    0 -0.18739701641E-01 -0.93725723306E-02 -0.10931420815E-01  0.10202970254E+01  0.10200232852E+01 0.  0.
     999903    2    3    3    0    0  0.19002558506E-01 -0.92279948951E-01  0.87413529287E-01  0.13014544247E+00  0.20494508650E-01 0.  0.
         14    1    1    2    0    0  0.18739701641E-01  0.93725723306E-02  0.10931420815E-01  0.23632974648E-01  0.00000000000E+00 0. -1.
     999901    1    3    3    0    0 -0.37742260147E-01  0.82907376621E-01 -0.98344950102E-01  0.89015158288E+00  0.88000000000E+00 0.  1.
        -11    1    4    4    0    0 -0.41470770198E-02 -0.16988063782E-01  0.13144398755E-01  0.21882159365E-01  0.51100000000E-03 0. -1.
         11    1    4    4    0    0  0.23149635526E-01 -0.75291885169E-01  0.74269130532E-01  0.10826328310E+00  0.51100000000E-03 0.  1.
</event>
<event>
 8    1  0.1064884E+005  0.1043930E+01  0.7957747E-01            NaN
         13   -1    0    0    0    0  0.00000000000E+00  0.00000000000E+00  0.74505805969E-08  0.10566000000E+00  0.10566000000E+00 0. -1.
     999900   -1    0    0    0    0 -0.00000000000E+00 -0.00000000000E+00 -0.74505805969E-08  0.93827000000E+00  0.93827000000E+00 0. -1.
     999902    2    1    2    0    0 -0.17527970246E-01  0.38590567611E-02  0.15265583598E-01  0.10203681643E+01  0.10200960889E+01 0.  0.
     999903    2    3    3    0    0 -0.27569036438E-01 -0.12261066633E+00 -0.27524888451E-01  0.13024096080E+00  0.20289433668E-01 0.  0.
         14    1    1    2    0    0  0.17527970246E-01 -0.38590567611E-02 -0.15265583598E-01  0.23561835722E-01  0.00000000000E+00 0.  1.
     999901    1    3    3    0    0  0.10041066192E-01  0.12646972309E+00  0.42790472049E-01  0.89012720348E+00  0.88000000000E+00 0.  1.
        -11    1    4    4    0    0 -0.30256408656E-01 -0.11045010261E+00 -0.27502111076E-01  0.11777649454E+00  0.51100000000E-03 0.  1.
         11    1    4    4    0    0  0.26873722183E-02 -0.12160563717E-01 -0.22777375658E-04  0.12464466260E-01  0.51100000000E-03 0. -1.
</event>
<event>
 8    1  0.1064884E+005  0.1043930E+01  0.7957747E-01            NaN
         13   -1    0    0    0    0  0.00000000000E+00  0.00000000000E+00  0.74505805969E-08  0.10566000000E+00  0.10566000000E+00 0. -1.
     999900   -1    0    0    0    0 -0.00000000000E+00 -0.00000000000E+00 -0.74505805969E-08  0.93827000000E+00  0.93827000000E+00 0. -1.
     999902    2    1    2    0    0  0.74920474746E-02 -0.15061363130E-01 -0.16638169087E-01  0.10202698203E+01  0.10199954422E+01 0.  0.
     999903    2    3    3    0    0  0.32404078771E-02  0.10856823839E+00 -0.68578984299E-01  0.13010118281E+00  0.20631966760E-01 0.  0.
         14    1    1    2    0    0 -0.74920474746E-02  0.15061363130E-01  0.16638169087E-01  0.23660179738E-01  0.00000000000E+00 0. -1.
     999901    1    3    3    0    0  0.42516395975E-02 -0.12362960152E+00  0.51940815212E-01  0.89016863745E+00  0.88000000000E+00 0.  1.
        -11    1    4    4    0    0 -0.59928663755E-02  0.81331031997E-01 -0.54401275745E-01  0.98032704424E-01  0.51100000000E-03 0. -1.
         11    1    4    4    0    0  0.92332742527E-02  0.27237206391E-01 -0.14177708554E-01  0.32068478390E-01  0.51100000000E-03 0.  1.
</event>
<event>
 8    1  0.1064884E+005  0.1043930E+01  0.7957747E-01            NaN
         13   -1    0    0    0    0  0.00000000000E+00  0.00000000000E+00  0.74505805969E-08  0.10566000000E+00  0.10566000000E+00 0. -1.
     999900   -1    0    0    0    0 -0.00000000000E+00 -0.00000000000E+00 -0.74505805969E-08  0.93827000000E+00  0.93827000000E+00 0. -1.
     999902    2    1    2    0    0  0.15766928125E-01 -0.15749994733E-01  0.19975273015E-01  0.10140022555E+01  0.10135605085E+01 0.  0.
     999903    2    3    3    0    0 -0.76433512951E-01 -0.88661760869E-01  0.41505595056E-01  0.12592534347E+00  0.20772288401E-01 0.  0.
         14    1    1    2    0    0 -0.15766928125E-01  0.15749994733E-01 -0.19975273015E-01  0.29927744462E-01  0.00000000000E+00 0.  1.
     999901    1    3    3    0    0  0.92200441076E-01  0.72911766136E-01 -0.21530322042E-01  0.88807691206E+00  0.88000000000E+00 0. -1.
        -11    1    4    4    0    0 -0.30645629673E-01 -0.29033629346E-01  0.55278324167E-02  0.42578448813E-01  0.51100000000E-03 0. -1.
         11    1    4    4    0    0 -0.45787883278E-01 -0.59628131523E-01  0.35977762640E-01  0.83346894660E-01  0.51100000000E-03 0.  1.
</event>
<event>
 8    1  0.1064884E+005  0.1043930E+01  0.7957747E-01            NaN
         13   -1    0    0    0    0  0.00000000000E+00  0.00000000000E+00  0.74505805969E-08  0.10566000000E+00  0.10566000000E+00 0.  1.
     999900   -1    0    0    0    0 -0.00000000000E+00 -0.00000000000E+00 -0.74505805969E-08  0.93827000000E+00  0.93827000000E+00 0. -1.
     999902    2    1    2    0    0 -0.58585165918E-02 -0.60473992938E-03 -0.22938585061E-01  0.10202473774E+01  0.10199724724E+01 0.  0.
     999903    2    3    3    0    0  0.49594807959E-01 -0.11886856130E+00 -0.67308390459E-02  0.13045858582E+00  0.19615263880E-01 0.  0.
         14    1    1    2    0    0  0.58585165918E-02  0.60473992938E-03  0.22938585061E-01  0.23682622566E-01  0.00000000000E+00 0.  1.
     999901    1    3    3    0    0 -0.55453324551E-01  0.11826382137E+00 -0.16207746015E-01  0.88978879161E+00  0.88000000000E+00 0. -1.
        -11    1    4    4    0    0  0.40839529045E-01 -0.86992656675E-01  0.24927294701E-02  0.96135655556E-01  0.51100000000E-03 0. -1.
         11    1    4    4    0    0  0.87552789143E-02 -0.31875904629E-01 -0.92235685160E-02  0.34322930265E-01  0.51100000000E-03 0.  1.
</event>
<event>
 8    1  0.1064884E+005  0.1043930E+01  0.7957747E-01            NaN
         13   -1    0    0    0    0  0.00000000000E+00  0.00000000000E+00  0.74505805969E-08  0.10566000000E+00  0.10566000000E+00 0. -1.
     999900   -1    0    0    0    0 -0.00000000000E+00 -0.00000000000E+00 -0.74505805969E-08  0.93827000000E+00  0.93827000000E+00 0. -1.
     999902    2    1    2    0    0 -0.21049814598E-01 -0.91567798925E-03  0.12753667618E-01  0.10193009684E+01  0.10190033734E+01 0.  0.
     999903    2    3    3    0    0  0.22925137429E-01  0.10043656719E+00 -0.73672508509E-01  0.12819179554E+00  0.19809895967E-01 0.  0.
         14    1    1    2    0    0  0.21049814598E-01  0.91567798925E-03 -0.12753667618E-01  0.24629031619E-01  0.00000000000E+00 0.  1.
     999901    1    3    3    0    0 -0.43974952027E-01 -0.10135224518E+00  0.86426176127E-01  0.89110917284E+00  0.88000000000E+00 0.  1.
        -11    1    4    4    0    0  0.12322662609E-01  0.39271829526E-01 -0.40755019749E-01  0.57925446601E-01  0.51100000000E-03 0. -1.
         11    1    4    4    0    0  0.10602474820E-01  0.61164737661E-01 -0.32917488759E-01  0.70266348935E-01  0.51100000000E-03 0.  1.
</event>
<event>
 8    1  0.1064884E+005  0.1043930E+01  0.7957747E-01            NaN
         13   -1    0    0    0    0  0.00000000000E+00  0.00000000000E+00  0.74505805969E-08  0.10566000000E+00  0.10566000000E+00 0.  1.
     999900   -1    0    0    0    0 -0.00000000000E+00 -0.00000000000E+00 -0.74505805969E-08  0.93827000000E+00  0.93827000000E+00 0. -1.
     999902    2    1    2    0    0  0.17547869507E-01 -0.78622698635E-02 -0.13383104365E-01  0.10205024416E+01  0.10202334942E+01 0.  0.
     999903    2    3    3    0    0 -0.84211179808E-01 -0.85785912048E-01 -0.46801360567E-01  0.13059021108E+00  0.20314782002E-01 0.  0.
         14    1    1    2    0    0 -0.17547869507E-01  0.78622698635E-02  0.13383104365E-01  0.23427558432E-01  0.00000000000E+00 0.  1.
     999901    1    3    3    0    0  0.10175904931E+00  0.77923642184E-01  0.33418256201E-01  0.88991223049E+00  0.88000000000E+00 0. -1.
        -11    1    4    4    0    0 -0.66098756595E-01 -0.63956980567E-01 -0.44360782752E-01  0.10211601811E+00  0.51100000000E-03 0. -1.
         11    1    4    4    0    0 -0.18112423213E-01 -0.21828931481E-01 -0.24405778145E-02  0.28474192970E-01  0.51100000000E-03 0.  1.
</event>
<event>
 8    1  0.1064884E+005  0.1043930E+01  0.7957747E-01            NaN
         13   -1    0    0    0    0  0.00000000000E+00  0.00000000000E+00  0.74505805969E-08  0.10566000000E+00  0.10566000000E+00 0.  1.
     999900   -1    0    0    0    0 -0.00000000000E+00 -0.00000000000E+00 -0.74505805969E-08  0.93827000000E+00  0.93827000000E+00 0. -1.
     999902    2    1    2    0    0 -0.86477041777E-02 -0.19758226143E-01  0.14087181420E-01  0.10181691971E+01  0.10178432565E+01 0.  0.
     999903    2    3    3    0    0  0.17167313895E-01 -0.12519662900E+00  0.29347232190E-01  0.13136789964E+00  0.20672504439E-01 0.  0.
         14    1    1    2    0    0  0.86477041777E-02  0.19758226143E-01 -0.14087181420E-01  0.25760802942E-01  0.00000000000E+00 0.  1.
     999901    1    3    3    0    0 -0.25815018072E-01  0.10543840285E+00 -0.15260050770E-01  0.88680129742E+00  0.88000000000E+00 0. -1.
        -11    1    4    4    0    0  0.14135247287E-01 -0.10141863288E+00  0.15180573180E-01  0.10351934715E+00  0.51100000000E-03 0. -1.
         11    1    4    4    0    0  0.30320666074E-02 -0.23777996114E-01  0.14166659010E-01  0.27848552487E-01  0.51100000000E-03 0.  1.
</event>
<event>
 8    1  0.1064884E+005  0.1043930E+01  0.7957747E-01            NaN
         13   -1    0    0    0    0  0.00000000000E+00  0.00000000000E+00  0.74505805969E-08  0.10566000000E+00  0.10566000000E+00 0. -1.
     999900   -1    0    0    0    0 -0.00000000000E+00 -0.00000000000E+00 -0.74505805969E-08  0.93827000000E+00  0.93827000000E+00 0.  1.
     999902    2    1    2    0    0  0.79006398581E-02 -0.20557780728E-01  0.78743147487E-02  0.10205409579E+01  0.10202729044E+01 0.  0.
     999903    2    3    3    0    0 -0.94005159775E-01 -0.88375627736E-01  0.24983013052E-01  0.13190337150E+00  0.11275053393E-01 0.  0.
         14    1    1    2    0    0 -0.79006398581E-02  0.20557780728E-01 -0.78743147487E-02  0.23389042122E-01  0.00000000000E+00 0. -1.
     999901    1    3    3    0    0  0.10190579963E+00  0.67817847009E-01 -0.17108698304E-01  0.88863758638E+00  0.88000000000E+00 0. -1.
        -11    1    4    4    0    0 -0.26729461507E-01 -0.28783272878E-01  0.12131051377E-01  0.41114041866E-01  0.51100000000E-03 0. -1.
         11    1    4    4    0    0 -0.67275698268E-01 -0.59592354858E-01  0.12851961675E-01  0.90789329631E-01  0.51100000000E-03 0.  1.
</event>
<event>
 8    1  0.1064884E+005  0.1043930E+01  0.7957747E-01            NaN
         13   -1    0    0    0    0  0.00000000000E+00  0.00000000000E+00  0.74505805969E-08  0.10566000000E+00  0.10566000000E+00 0. -1.
     999900   -1    0    0    0    0 -0.00000000000E+00 -0.00000000000E+00 -0.74505805969E-08  0.93827000000E+00  0.93827000000E+00 0.  1.
     999902    2    1    2    0    0  0.54326807334E-02 -0.26963329484E-03 -0.22783570944E-01  0.10205061270E+01  0.10202372652E+01 0.  0.
     999903    2    3    3    0    0 -0.94462837516E-01 -0.37925932210E-01 -0.82034951668E-01  0.13207614239E+00  0.18782174722E-01 0.  0.
         14    1    1    2    0    0 -0.54326807334E-02  0.26963329484E-03  0.22783570944E-01  0.23423873015E-01  0.00000000000E+00 0. -1.
     999901    1    3    3    0    0  0.99895518249E-01  0.37656298915E-01  0.59251380724E-01  0.88842998460E+00  0.88000000000E+00 0. -1.
        -11    1    4    4    0    0 -0.17554105971E-01 -0.58230115164E-02 -0.65364712721E-02  0.19622453395E-01  0.51100000000E-03 0. -1.
         11    1    4    4    0    0 -0.76908731545E-01 -0.32102920693E-01 -0.75498480396E-01  0.11245368899E+00  0.51100000000E-03 0.  1.
</event>
<event>
 8    1  0.1064884E+005  0.1043930E+01  0.7957747E-01            NaN
         13   -1    0    0    0    0  0.00000000000E+00  0.00000000000E+00  0.74505805969E-08  0.10566000000E+00  0.10566000000E+00 0. -1.
     999900   -1    0    0    0    0 -0.00000000000E+00 -0.00000000000E+00 -0.74505805969E-08  0.93827000000E+00  0.93827000000E+00 0. -1.
     999902    2    1    2    0    0 -0.25659434399E-01 -0.51059854777E-03 -0.12162106640E-01  0.10155295753E+01  0.10151323728E+01 0.  0.
     999903    2    3    3    0    0 -0.38745543023E-01  0.97043897633E-01  0.68079925734E-01  0.12641377311E+00  0.20659878324E-01 0.  0.
         14    1    1    2    0    0  0.25659434399E-01  0.51059854777E-03  0.12162106640E-01  0.28400424688E-01  0.00000000000E+00 0.  1.
     999901    1    3    3    0    0  0.13086108624E-01 -0.97554496181E-01 -0.80242032373E-01  0.88911580220E+00  0.88000000000E+00 0. -1.
        -11    1    4    4    0    0 -0.10731512732E-01  0.28510575769E-01  0.92307602326E-02  0.31835300402E-01  0.51100000000E-03 0.  1.
         11    1    4    4    0    0 -0.28014030291E-01  0.68533321863E-01  0.58849165501E-01  0.94578472709E-01  0.51100000000E-03 0. -1.
</event>
<event>
 8    1  0.1064884E+005  0.1043930E+01  0.7957747E-01            NaN
         13   -1    0    0    0    0  0.00000000000E+00  0.00000000000E+00  0.74505805969E-08  0.10566000000E+00  0.10566000000E+00 0. -1.
     999900   -1    0    0    0    0 -0.00000000000E+00 -0.00000000000E+00 -0.74505805969E-08  0.93827000000E+00  0.93827000000E+00 0. -1.
     999902    2    1    2    0    0  0.19715933328E-02 -0.49487662895E-02 -0.24032691490E-01  0.10193139945E+01  0.10190167180E+01 0.  0.
     999903    2    3    3    0    0  0.85990715951E-01 -0.67597828303E-01  0.64646722033E-01  0.12866919640E+00  0.20314866790E-01 0.  0.
         14    1    1    2    0    0 -0.19715933328E-02  0.49487662895E-02  0.24032691490E-01  0.24616005531E-01  0.00000000000E+00 0. -1.
     999901    1    3    3    0    0 -0.84019122618E-01  0.62649062014E-01 -0.88679413523E-01  0.89064479806E+00  0.88000000000E+00 0. -1.
        -11    1    4    4    0    0  0.33279210192E-01 -0.33533337869E-01  0.37352951733E-01  0.60228686718E-01  0.51100000000E-03 0.  1.
         11    1    4    4    0    0  0.52711505759E-01 -0.34064490434E-01  0.27293770300E-01  0.68440509686E-01  0.51100000000E-03 0. -1.
</event>
<event>
 8    1  0.1064884E+005  0.1043930E+01  0.7957747E-01            NaN
         13   -1    0    0    0    0  0.00000000000E+00  0.00000000000E+00  0.74505805969E-08  0.10566000000E+00  0.10566000000E+00 0.  1.
     999900   -1    0    0    0    0 -0.00000000000E+00 -0.00000000000E+00 -0.74505805969E-08  0.93827000000E+00  0.93827000000E+00 0. -1.
     999902    2    1    2    0    0  0.18917179894E-01 -0.63561113397E-02  0.14865439572E-01  0.10190454437E+01  0.10187415645E+01 0.  0.
     999903    2    3    3    0    0  0.67318617144E-02 -0.94249958702E-01 -0.85354990181E-01  0.12892301120E+00  0.20181570542E-01 0.  0.
         14    1    1    2    0    0 -0.18917179894E-01  0.63561113397E-02 -0.14865439572E-01  0.24884556258E-01  0.00000000000E+00 0. -1.
     999901    1    3    3    0    0  0.12185318179E-01  0.87893847362E-01  0.10022042975E+00  0.89012243255E+00  0.88000000000E+00 0.  1.
        -11    1    4    4    0    0 -0.19422292754E-02 -0.58219606790E-01 -0.41614466673E-01  0.71591339049E-01  0.51100000000E-03 0. -1.
         11    1    4    4    0    0  0.86740909898E-02 -0.36030351911E-01 -0.43740523508E-01  0.57331672146E-01  0.51100000000E-03 0.  1.
</event>
<event>
 8    1  0.1064884E+005  0.1043930E+01  0.7957747E-01            NaN
         13   -1    0    0    0    0  0.00000000000E+00  0.00000000000E+00  0.74505805969E-08  0.10566000000E+00  0.10566000000E+00 0. -1.
     999900   -1    0    0    0    0 -0.00000000000E+00 -0.00000000000E+00 -0.74505805969E-08  0.93827000000E+00  0.93827000000E+00 0. -1.
     999902    2    1    2    0    0  0.12961095098E-01 -0.11220065908E-01 -0.16619700685E-01  0.10200533521E+01  0.10197738704E+01 0.  0.
     999903    2    3    3    0    0  0.99761817499E-01  0.67969959958E-01 -0.48549770056E-01  0.13167001425E+00  0.20188531201E-01 0.  0.
         14    1    1    2    0    0 -0.12961095098E-01  0.11220065908E-01  0.16619700685E-01  0.23876647922E-01  0.00000000000E+00 0. -1.
     999901    1    3    3    0    0 -0.86800722401E-01 -0.79190025866E-01  0.31930069371E-01  0.88838333783E+00  0.88000000000E+00 0.  1.
        -11    1    4    4    0    0  0.14704480037E-01  0.29580118248E-02 -0.29017491334E-02  0.15285706923E-01  0.51100000000E-03 0.  1.
         11    1    4    4    0    0  0.85057337462E-01  0.65011948133E-01 -0.45648020922E-01  0.11638430732E+00  0.51100000000E-03 0. -1.
</event>
<event>
 8    1  0.1064884E+005  0.1043930E+01  0.7957747E-01            NaN
         13   -1    0    0    0    0  0.00000000000E+00  0.00000000000E+00  0.74505805969E-08  0.10566000000E+00  0.10566000000E+00 0.  1.
     999900   -1    0    0    0    0 -0.00000000000E+00 -0.00000000000E+00 -0.74505805969E-08  0.93827000000E+00  0.93827000000E+00 0. -1.
     999902    2    1    2    0    0  0.30695473703E-02  0.19635979710E-01 -0.74592604354E-02  0.10227018492E+01  0.10224815098E+01 0.  0.
     999903    2    3    3    0    0 -0.12519570910E+00  0.31570905928E-01  0.28726504127E-01  0.13258734643E+00  0.91380914912E-02 0.  0.
         14    1    1    2    0    0 -0.30695473703E-02 -0.19635979710E-01  0.74592604354E-02  0.21228150802E-01  0.00000000000E+00 0.  1.
     999901    1    3    3    0    0  0.12826525647E+00 -0.11934926218E-01 -0.36185764562E-01  0.89011450277E+00  0.88000000000E+00 0.  1.
        -11    1    4    4    0    0 -0.10229432251E-01  0.22765886678E-02  0.48894710228E-02  0.11575499472E-01  0.51100000000E-03 0. -1.
         11    1    4    4    0    0 -0.11496627685E+00  0.29294317261E-01  0.23837033104E-01  0.12101184696E+00  0.51100000000E-03 0.  1.
</event>
<event>
 8    1  0.1064884E+005  0.1043930E+01  0.7957747E-01            NaN
         13   -1    0    0    0    0  0.00000000000E+00  0.00000000000E+00  0.74505805969E-08  0.10566000000E+00  0.10566000000E+00 0.  1.
     999900   -1    0    0    0    0 -0.00000000000E+00 -0.00000000000E+00 -0.74505805969E-08  0.93827000000E+00  0.93827000000E+00 0.  1.
     999902    2    1    2    0    0 -0.27126184532E-02  0.23444078447E-01  0.44739411556E-03  0.10203252701E+01  0.10200521916E+01 0.  0.
     999903    2    3    3    0    0  0.66765865563E-01  0.11237304573E+00  0.14027396103E-01  0.13301470584E+00  0.20267262198E-01 0.  0.
         14    1    1    2    0    0  0.27126184532E-02 -0.23444078447E-01 -0.44739411556E-03  0.23604729920E-01  0.00000000000E+00 0. -1.
     999901    1    3    3    0    0 -0.69478484016E-01 -0.88928967282E-01 -0.13580001987E-01  0.88731056424E+00  0.88000000000E+00 0.  1.
        -11    1    4    4    0    0  0.40125418259E-01  0.73131029074E-01 -0.45914567115E-03  0.83418634247E-01  0.51100000000E-03 0.  1.
         11    1    4    4    0    0  0.26640447303E-01  0.39242016654E-01  0.14486541774E-01  0.49596071590E-01  0.51100000000E-03 0. -1.
</event>
<event>
 8    1  0.1064884E+005  0.1043930E+01  0.7957747E-01            NaN
         13   -1    0    0    0    0  0.00000000000E+00  0.00000000000E+00  0.74505805969E-08  0.10566000000E+00  0.10566000000E+00 0. -1.
     999900   -1    0    0    0    0 -0.00000000000E+00 -0.00000000000E+00 -0.74505805969E-08  0.93827000000E+00  0.93827000000E+00 0.  1.
     999902    2    1    2    0    0 -0.50851113433E-02  0.77070886495E-02  0.20542965724E-01  0.10214073222E+01  0.10211589724E+01 0.  0.
     999903    2    3    3    0    0  0.11597873216E+00  0.48665591219E-01  0.34555789278E-01  0.13206463668E+00  0.20677514499E-01 0.  0.
         14    1    1    2    0    0  0.50851113433E-02 -0.77070886495E-02 -0.20542965724E-01  0.22522677762E-01  0.00000000000E+00 0.  1.
     999901    1    3    3    0    0 -0.12106384350E+00 -0.40958502569E-01 -0.14012823554E-01  0.88934268556E+00  0.88000000000E+00 0.  1.
        -11    1    4    4    0    0  0.25217220896E-01  0.80863191198E-02 -0.92199088182E-03  0.26502980489E-01  0.51100000000E-03 0. -1.
         11    1    4    4    0    0  0.90761511264E-01  0.40579272099E-01  0.35477780160E-01  0.10556165619E+00  0.51100000000E-03 0.  1.
</event>
<event>
 8    1  0.1064884E+005  0.1043930E+01  0.7957747E-01            NaN
         13   -1    0    0    0    0  0.00000000000E+00  0.00000000000E+00  0.74505805969E-08  0.10566000000E+00  0.10566000000E+00 0.  1.
     999900   -1    0    0    0    0 -0.00000000000E+00 -0.00000000000E+00 -0.74505805969E-08  0.93827000000E+00  0.93827000000E+00 0.  1.
     999902    2    1    2    0    0 -0.22635171725E-01 -0.43300885072E-02  0.15801140126E-02  0.10208302722E+01  0.10205688841E+01 0.  0.
     999903    2    3    3    0    0 -0.91536610410E-01  0.92113964478E-01 -0.18169266941E-01  0.13266423946E+00  0.20143104863E-01 0.  0.
         14    1    1    2    0    0  0.22635171725E-01  0.43300885072E-02 -0.15801140126E-02  0.23099727830E-01  0.00000000000E+00 0.  1.
     999901    1    3    3    0    0  0.68901438685E-01 -0.96444052985E-01  0.19749380953E-01  0.88816603271E+00  0.88000000000E+00 0. -1.
        -11    1    4    4    0    0 -0.84882683013E-01  0.76211922806E-01 -0.17446453948E-01  0.11540349618E+00  0.51100000000E-03 0. -1.
         11    1    4    4    0    0 -0.66539273972E-02  0.15902041673E-01 -0.72281299299E-03  0.17260743286E-01  0.51100000000E-03 0.  1.
</event>
<event>
 8    1  0.1064884E+005  0.1043930E+01  0.7957747E-01            NaN
         13   -1    0    0    0    0  0.00000000000E+00  0.00000000000E+00  0.74505805969E-08  0.10566000000E+00  0.10566000000E+00 0. -1.
     999900   -1    0    0    0    0 -0.00000000000E+00 -0.00000000000E+00 -0.74505805969E-08  0.93827000000E+00  0.93827000000E+00 0. -1.
     999902    2    1    2    0    0 -0.34715639764E-02 -0.23558030545E-01 -0.26585816031E-02  0.10199696032E+01  0.10196881341E+01 0.  0.
     999903    2    3    3    0    0  0.10710597081E+00  0.66183007004E-01 -0.16046542724E-01  0.12842034345E+00  0.19555400251E-01 0.  0.
         14    1    1    2    0    0  0.34715639764E-02  0.23558030545E-01  0.26585816031E-02  0.23960396819E-01  0.00000000000E+00 0. -1.
     999901    1    3    3    0    0 -0.11057753479E+00 -0.89741037549E-01  0.13387961121E-01  0.89154925973E+00  0.88000000000E+00 0. -1.
        -11    1    4    4    0    0  0.98347045276E-02  0.43264426091E-02  0.38829459523E-02  0.11435816939E-01  0.51100000000E-03 0. -1.
         11    1    4    4    0    0  0.97271266285E-01  0.61856564395E-01 -0.19929488677E-01  0.11698452651E+00  0.51100000000E-03 0.  1.
</event>
<event>
 8    1  0.1064884E+005  0.1043930E+01  0.7957747E-01            NaN
         13   -1    0    0    0    0  0.00000000000E+00  0.00000000000E+00  0.74505805969E-08  0.10566000000E+00  0.10566000000E+00 0. -1.
     999900   -1    0    0    0    0 -0.00000000000E+00 -0.00000000000E+00 -0.74505805969E-08  0.93827000000E+00  0.93827000000E+00 0.  1.
     999902    2    1    2    0    0  0.53686249963E-02 -0.60111858880E-03  0.20895746476E-01  0.10223472361E+01  0.10221193939E+01 0.  0.
     999903    2    3    3    0    0 -0.10215182673E+00  0.75125435949E-01  0.32619288951E-01  0.13249747345E+00  0.20315895946E-01 0.  0.
         14    1    1    2    0    0 -0.53686249963E-02  0.60111858880E-03 -0.20895746476E-01  0.21582763926E-01  0.00000000000E+00 0.  1.
     999901    1    3    3    0    0  0.10752045172E+00 -0.75726554538E-01 -0.11723542475E-01  0.88984976263E+00  0.88000000000E+00 0.  1.
        -11    1    4    4    0    0 -0.16718040006E-01  0.21032531516E-01  0.25057315868E-02  0.26988887628E-01  0.51100000000E-03 0.  1.
         11    1    4    4    0    0 -0.85433786719E-01  0.54092904433E-01  0.30113557364E-01  0.10550858582E+00  0.51100000000E-03 0. -1.
</event>
<event>
 8    1  0.1064884E+005  0.1043930E+01  0.7957747E-01            NaN
         13   -1    0    0    0    0  0.00000000000E+00  0.00000000000E+00  0.74505805969E-08  0.10566000000E+00  0.10566000000E+00 0.  1.
     999900   -1    0    0    0    0 -0.00000000000E+00 -0.00000000000E+00 -0.74505805969E-08  0.93827000000E+00  0.93827000000E+00 0. -1.
     999902    2    1    2    0    0 -0.20323241884E-01  0.11461686269E-01  0.32376820531E-02  0.10203739605E+01  0.10201020205E+01 0.  0.
     999903    2    3    3    0    0  0.10793237622E+00 -0.48559416646E-01 -0.44101683124E-01  0.12779732407E+00  0.19488016903E-01 0.  0.
         14    1    1    2    0    0  0.20323241884E-01 -0.11461686269E-01 -0.32376820531E-02  0.23556039521E-01  0.00000000000E+00 0.  1.
     999901    1    3    3    0    0 -0.12825561811E+00  0.60021102916E-01  0.47339365177E-01  0.89257663641E+00  0.88000000000E+00 0.  1.
        -11    1    4    4    0    0  0.40175530621E-01 -0.82936354655E-02 -0.17595147294E-01  0.44639757830E-01  0.51100000000E-03 0. -1.
         11    1    4    4    0    0  0.67756845601E-01 -0.40265781181E-01 -0.26506535831E-01  0.83157566238E-01  0.51100000000E-03 0.  1.
</event>
<event>
 8    1  0.1064884E+005  0.1043930E+01  0.7957747E-01            NaN
         13   -1    0    0    0    0  0.00000000000E+00  0.00000000000E+00  0.74505805969E-08  0.10566000000E+00  0.10566000000E+00 0.  1.
     999900   -1    0    0    0    0 -0.00000000000E+00 -0.00000000000E+00 -0.74505805969E-08  0.93827000000E+00  0.93827000000E+00 0.  1.
     999902    2    1    2    0    0 -0.18035614028E-01  0.15487931455E-01  0.91943842441E-03  0.10201391454E+01  0.10198616922E+01 0.  0.
     999903    2    3    3    0    0 -0.41234107030E-01  0.66678572023E-01  0.10467157720E+00  0.13226350208E+00  0.19779063666E-01 0.  0.
         14    1    1    2    0    0  0.18035614028E-01 -0.15487931455E-01 -0.91943842441E-03  0.23790854569E-01  0.00000000000E+00 0. -1.
     999901    1    3    3    0    0  0.23198493001E-01 -0.51190640568E-01 -0.10375213877E+00  0.88787564335E+00  0.88000000000E+00 0.  1.
        -11    1    4    4    0    0 -0.19560708802E-01  0.33022021962E-01  0.67407756000E-01  0.77570238837E-01  0.51100000000E-03 0. -1.
         11    1    4    4    0    0 -0.21673398228E-01  0.33656550060E-01  0.37263821197E-01  0.54693263241E-01  0.51100000000E-03 0.  1.
</event>
<event>
 8    1  0.1064884E+005  0.1043930E+01  0.7957747E-01            NaN
         13   -1    0    0    0    0  0.00000000000E+00  0.00000000000E+00  0.74505805969E-08  0.10566000000E+00  0.10566000000E+00 0. -1.
     999900   -1    0    0    0    0 -0.00000000000E+00 -0.00000000000E+00 -0.74505805969E-08  0.93827000000E+00  0.93827000000E+00 0. -1.
     999902    2    1    2    0    0 -0.41338395942E-02  0.16789463260E-01 -0.15593291381E-01  0.10206464126E+01  0.10203807986E+01 0.  0.
     999903    2    3    3    0    0 -0.11972396141E+00  0.52176371809E-01 -0.16564831548E-01  0.13238166971E+00  0.13939588253E-01 0.  0.
         14    1    1    2    0    0  0.41338395942E-02 -0.16789463260E-01  0.15593291381E-01  0.23283587404E-01  0.00000000000E+00 0.  1.
     999901    1    3    3    0    0  0.11559012182E+00 -0.35386908549E-01  0.97154016768E-03  0.88826474288E+00  0.88000000000E+00 0. -1.
        -11    1    4    4    0    0 -0.59404545839E-01  0.18670143235E-01 -0.57449369256E-02  0.62535907573E-01  0.51100000000E-03 0.  1.
         11    1    4    4    0    0 -0.60319415572E-01  0.33506228574E-01 -0.10819894623E-01  0.69845762139E-01  0.51100000000E-03 0. -1.
</event>
<event>
 8    1  0.1064884E+005  0.1043930E+01  0.7957747E-01            NaN
         13   -1    0    0    0    0  0.00000000000E+00  0.00000000000E+00  0.74505805969E-08  0.10566000000E+00  0.10566000000E+00 0. -1.
     999900   -1    0    0    0    0 -0.00000000000E+00 -0.00000000000E+00 -0.74505805969E-08  0.93827000000E+00  0.93827000000E+00 0.  1.
     999902    2    1    2    0    0  0.40727800202E-02  0.19124670997E-01  0.11712694364E-01  0.10211368478E+01  0.10208824292E+01 0.  0.
     999903    2    3    3    0    0  0.38603176074E-01 -0.53985456320E-01 -0.10901822575E+00  0.12922127218E+00  0.20212098890E-01 0.  0.
         14    1    1    2    0    0 -0.40727800202E-02 -0.19124670997E-01 -0.11712694364E-01  0.22793152197E-01  0.00000000000E+00 0.  1.
     999901    1    3    3    0    0 -0.34530396054E-01  0.73110127317E-01  0.12073092011E+00  0.89191557562E+00  0.88000000000E+00 0. -1.
        -11    1    4    4    0    0  0.15245020164E-01 -0.33028802149E-01 -0.72147989575E-01  0.80801645602E-01  0.51100000000E-03 0. -1.
         11    1    4    4    0    0  0.23358155910E-01 -0.20956654171E-01 -0.36870236173E-01  0.48419626578E-01  0.51100000000E-03 0.  1.
</event>
<event>
 8    1  0.1064884E+005  0.1043930E+01  0.7957747E-01            NaN
         13   -1    0    0    0    0  0.00000000000E+00  0.00000000000E+00  0.74505805969E-08  0.10566000000E+00  0.10566000000E+00 0. -1.
     999900   -1    0    0    0    0 -0.00000000000E+00 -0.00000000000E+00 -0.74505805969E-08  0.93827000000E+00  0.93827000000E+00 0. -1.
     999902    2    1    2    0    0  0.95903054683E-02  0.15496953680E-01 -0.13827508677E-01  0.10210536032E+01  0.10207973017E+01 0.  0.
     999903    2    3    3    0    0  0.12054971039E+00 -0.27916022918E-01 -0.42950557008E-01  0.13254652504E+00  0.20305022570E-01 0.  0.
         14    1    1    2    0    0 -0.95903054683E-02 -0.15496953680E-01  0.13827508677E-01  0.22876396756E-01  0.00000000000E+00 0.  1.
     999901    1    3    3    0    0 -0.11095940492E+00  0.43412976598E-01  0.29123048331E-01  0.88850707821E+00  0.88000000000E+00 0. -1.
        -11    1    4    4    0    0  0.69166542828E-01 -0.12981767327E-01 -0.34478463563E-01  0.78368121710E-01  0.51100000000E-03 0. -1.
         11    1    4    4    0    0  0.51383167563E-01 -0.14934255591E-01 -0.84720934449E-02  0.54178403328E-01  0.51100000000E-03 0.  1.
</event>
<event>
 8    1  0.1064884E+005  0.1043930E+01  0.7957747E-01            NaN
         13   -1    0    0    0    0  0.00000000000E+00  0.00000000000E+00  0.74505805969E-08  0.10566000000E+00  0.10566000000E+00 0. -1.
     999900   -1    0    0    0    0 -0.00000000000E+00 -0.00000000000E+00 -0.74505805969E-08  0.93827000000E+00  0.93827000000E+00 0.  1.
     999902    2    1    2    0    0 -0.19894514921E-01  0.74453300420E-02  0.82340366499E-02  0.10211479013E+01  0.10208937321E+01 0.  0.
     999903    2    3    3    0    0 -0.26393972930E-01 -0.12299474587E+00  0.33601150702E-01  0.13114770641E+00  0.15695039037E-01 0.  0.
         14    1    1    2    0    0  0.19894514921E-01 -0.74453300420E-02 -0.82340366499E-02  0.22782098739E-01  0.00000000000E+00 0.  1.
     999901    1    3    3    0    0  0.64994580084E-02  0.13044007591E+00 -0.25367114052E-01  0.89000019485E+00  0.88000000000E+00 0. -1.
        -11    1    4    4    0    0 -0.31896598265E-02 -0.32751708138E-01  0.14821494444E-01  0.36094128807E-01  0.51100000000E-03 0. -1.
         11    1    4    4    0    0 -0.23204313103E-01 -0.90243037729E-01  0.18779656258E-01  0.95053577604E-01  0.51100000000E-03 0.  1.
</event>
<event>
 8    1  0.1064884E+005  0.1043930E+01  0.7957747E-01            NaN
         13   -1    0    0    0    0  0.00000000000E+00  0.00000000000E+00  0.74505805969E-08  0.10566000000E+00  0.10566000000E+00 0. -1.
     999900   -1    0    0    0    0 -0.00000000000E+00 -0.00000000000E+00 -0.74505805969E-08  0.93827000000E+00  0.93827000000E+00 0. -1.
     999902    2    1    2    0    0 -0.11366800439E-01 -0.21078277955E-01  0.18052997344E-02  0.10199142331E+01  0.10196314460E+01 0.  0.
     999903    2    3    3    0    0 -0.71775581799E-01 -0.99855177371E-01 -0.46592186584E-01  0.13301100418E+00  0.19957574794E-01 0.  0.
         14    1    1    2    0    0  0.11366800439E-01  0.21078277955E-01 -0.18052997344E-02  0.24015766923E-01  0.00000000000E+00 0.  1.
     999901    1    3    3    0    0  0.60408781359E-01  0.78776899416E-01  0.48397486318E-01  0.88690322890E+00  0.88000000000E+00 0.  1.
        -11    1    4    4    0    0 -0.39917637204E-01 -0.38565771998E-01 -0.20908944037E-01  0.59314261283E-01  0.51100000000E-03 0. -1.
         11    1    4    4    0    0 -0.31857944595E-01 -0.61289405373E-01 -0.25683242547E-01  0.73696742896E-01  0.51100000000E-03 0.  1.
</event>
<event>
 8    1  0.1064884E+005  0.1043930E+01  0.7957747E-01            NaN
         13   -1    0    0    0    0  0.00000000000E+00  0.00000000000E+00  0.74505805969E-08  0.10566000000E+00  0.10566000000E+00 0. -1.
     999900   -1    0    0    0    0 -0.00000000000E+00 -0.00000000000E+00 -0.74505805969E-08  0.93827000000E+00  0.93827000000E+00 0.  1.
     999902    2    1    2    0    0 -0.55147209742E-02 -0.21155422336E-01  0.53997191998E-02  0.10214106526E+01  0.10211623770E+01 0.  0.
     999903    2    3    3    0    0  0.40299486203E-02  0.43295847406E-01  0.12217378280E+00  0.13130883321E+00  0.20610812358E-01 0.  0.
         14    1    1    2    0    0  0.55147209742E-02  0.21155422336E-01 -0.53997191998E-02  0.22519347439E-01  0.00000000000E+00 0.  1.
     999901    1    3    3    0    0 -0.95446695945E-02 -0.64451269742E-01 -0.11677406360E+00  0.89010181935E+00  0.88000000000E+00 0.  1.
        -11    1    4    4    0    0  0.11626774720E-01  0.29967750250E-01  0.72271503070E-01  0.79099173336E-01  0.51100000000E-03 0. -1.
         11    1    4    4    0    0 -0.75968261002E-02  0.13328097156E-01  0.49902279729E-01  0.52209659870E-01  0.51100000000E-03 0.  1.
</event>
<event>
 8    1  0.1064884E+005  0.1043930E+01  0.7957747E-01            NaN
         13   -1    0    0    0    0  0.00000000000E+00  0.00000000000E+00  0.74505805969E-08  0.10566000000E+00  0.10566000000E+00 0.  1.
     999900   -1    0    0    0    0 -0.00000000000E+00 -0.00000000000E+00 -0.74505805969E-08  0.93827000000E+00  0.93827000000E+00 0.  1.
     999902    2    1    2    0    0  0.61129240779E-02 -0.23382764042E-01  0.15706995780E-02  0.10197104089E+01  0.10194227433E+01 0.  0.
     999903    2    3    3    0    0 -0.12771412984E+00 -0.21199345420E-02  0.24321053399E-02  0.12933827868E+00  0.20176276031E-01 0.  0.
         14    1    1    2    0    0 -0.61129240779E-02  0.23382764042E-01 -0.15706995780E-02  0.24219591082E-01  0.00000000000E+00 0.  1.
     999901    1    3    3    0    0  0.13382705391E+00 -0.21262829500E-01 -0.86140576186E-03  0.89037213023E+00  0.88000000000E+00 0.  1.
        -11    1    4    4    0    0 -0.11572899764E+00 -0.71270281522E-02 -0.76474211269E-03  0.11595189251E+00  0.51100000000E-03 0.  1.
         11    1    4    4    0    0 -0.11985132190E-01  0.50070936101E-02  0.31968474526E-02  0.13386386169E-01  0.51100000000E-03 0. -1.
</event>
<event>
 7    1  0.1100848E+005  0.1043930E+01  0.7957747E-01            NaN
         13   -1    0    0    0    0  0.00000000000E+00  0.00000000000E+00  0.74505805969E-08  0.10566000000E+00  0.10566000000E+00 0. -1.
     999900   -1    0    0    0    0 -0.00000000000E+00 -0.00000000000E+00 -0.74505805969E-08  0.93827000000E+00  0.93827000000E+00 0. -1.
     999903    2    1    2    0    0 -0.93562147899E-01  0.39577035723E-01 -0.43536517027E-01  0.11226950384E+00  0.19717908148E-01 0.  0.
         14    1    1    2    0    0  0.52325970965E-02 -0.11114731181E-01 -0.40953384916E-01  0.42756251679E-01  0.00000000000E+00 0.  1.
     999901    1    1    2    0    0  0.88329550802E-01 -0.28462304542E-01  0.84489901942E-01  0.88890424448E+00  0.88000000000E+00 0.  1.
        -11    1    3    3    0    0 -0.59253176313E-01  0.14786313330E-01 -0.23528994880E-01  0.65448060981E-01  0.51100000000E-03 0.  1.
         11    1    3    3    0    0 -0.34308971586E-01  0.24790722393E-01 -0.20007522147E-01  0.46821442860E-01  0.51100000000E-03 0. -1.
</event>
<event>
 8    1  0.1064884E+005  0.1043930E+01  0.7957747E-01            NaN
         13   -1    0    0    0    0  0.00000000000E+00  0.00000000000E+00  0.74505805969E-08  0.10566000000E+00  0.10566000000E+00 0.  1.
     999900   -1    0    0    0    0 -0.00000000000E+00 -0.00000000000E+00 -0.74505805969E-08  0.93827000000E+00  0.93827000000E+00 0.  1.
     999902    2    1    2    0    0  0.10503604511E-01 -0.20023462086E-01  0.71993870314E-02  0.10202003579E+01  0.10199243473E+01 0.  0.
     999903    2    3    3    0    0  0.16645606354E-01 -0.97108846882E-01 -0.85364846373E-01  0.13197289937E+00  0.20554435508E-01 0.  0.
         14    1    1    2    0    0 -0.10503604511E-01  0.20023462086E-01 -0.71993870314E-02  0.23729642122E-01  0.00000000000E+00 0. -1.
     999901    1    3    3    0    0 -0.61420018431E-02  0.77085384796E-01  0.92564233405E-01  0.88822745850E+00  0.88000000000E+00 0. -1.
        -11    1    4    4    0    0  0.65454001721E-02 -0.83148975504E-01 -0.70893323309E-01  0.10946560556E+00  0.51100000000E-03 0.  1.
         11    1    4    4    0    0  0.10100206182E-01 -0.13959871378E-01 -0.14471523064E-01  0.22507293809E-01  0.51100000000E-03 0. -1.
</event>
<event>
 8    1  0.1064884E+005  0.1043930E+01  0.7957747E-01            NaN
         13   -1    0    0    0    0  0.00000000000E+00  0.00000000000E+00  0.74505805969E-08  0.10566000000E+00  0.10566000000E+00 0. -1.
     999900   -1    0    0    0    0 -0.00000000000E+00 -0.00000000000E+00 -0.74505805969E-08  0.93827000000E+00  0.93827000000E+00 0. -1.
     999902    2    1    2    0    0  0.21147564653E-01  0.20243398288E-02 -0.99403366903E-02  0.10204751980E+01  0.10202056175E+01 0.  0.
     999903    2    3    3    0    0 -0.11110777282E+00  0.26291188087E-01  0.53617122717E-01  0.12799555967E+00  0.21723344461E-01 0.  0.
         14    1    1    2    0    0 -0.21147564653E-01 -0.20243398288E-02  0.99403366903E-02  0.23454801982E-01  0.00000000000E+00 0. -1.
     999901    1    3    3    0    0  0.13225533748E+00 -0.24266848258E-01 -0.63557459407E-01  0.89247963835E+00  0.88000000000E+00 0. -1.
        -11    1    4    4    0    0 -0.46361349334E-01  0.62692509747E-02  0.32652324116E-01  0.57053602963E-01  0.51100000000E-03 0. -1.
         11    1    4    4    0    0 -0.64746423489E-01  0.20021937113E-01  0.20964798601E-01  0.70941956709E-01  0.51100000000E-03 0.  1.
</event>
<event>
 8    1  0.1064884E+005  0.1043930E+01  0.7957747E-01            NaN
         13   -1    0    0    0    0  0.00000000000E+00  0.00000000000E+00  0.74505805969E-08  0.10566000000E+00  0.10566000000E+00 0. -1.
     999900   -1    0    0    0    0 -0.00000000000E+00 -0.00000000000E+00 -0.74505805969E-08  0.93827000000E+00  0.93827000000E+00 0. -1.
     999902    2    1    2    0    0  0.72338267237E-02 -0.29635422440E-02 -0.23158083620E-01  0.10194880756E+01  0.10191950395E+01 0.  0.
     999903    2    3    3    0    0 -0.44351306538E-01 -0.11914568823E+00  0.14757028833E-01  0.12954601412E+00  0.20041618199E-01 0.  0.
         14    1    1    2    0    0 -0.72338267237E-02  0.29635422440E-02  0.23158083620E-01  0.24441924406E-01  0.00000000000E+00 0. -1.
     999901    1    3    3    0    0  0.51585133262E-01  0.11618214599E+00 -0.37915112454E-01  0.88994206147E+00  0.88000000000E+00 0. -1.
        -11    1    4    4    0    0 -0.16735686561E-01 -0.24525190864E-01 -0.10658271998E-02  0.29714732040E-01  0.51100000000E-03 0. -1.
         11    1    4    4    0    0 -0.27615619977E-01 -0.94620497367E-01  0.15822856033E-01  0.99831282085E-01  0.51100000000E-03 0.  1.
</event>
<event>
 8    1  0.1064884E+005  0.1043930E+01  0.7957747E-01            NaN
         13   -1    0    0    0    0  0.00000000000E+00  0.00000000000E+00  0.74505805969E-08  0.10566000000E+00  0.10566000000E+00 0. -1.
     999900   -1    0    0    0    0 -0.00000000000E+00 -0.00000000000E+00 -0.74505805969E-08  0.93827000000E+00  0.93827000000E+00 0.  1.
     999902    2    1    2    0    0 -0.75164212061E-02 -0.22298178373E-01  0.66137170912E-03  0.10203897630E+01  0.10201181920E+01 0.  0.
     999903    2    3    3    0    0  0.11216424566E+00 -0.29839605902E-01 -0.55835046629E-01  0.13046157462E+00  0.20771372947E-01 0.  0.
         14    1    1    2    0    0  0.75164212061E-02  0.22298178373E-01 -0.66137170912E-03  0.23540237022E-01  0.00000000000E+00 0.  1.
     999901    1    3    3    0    0 -0.11968066687E+00  0.75414275290E-02  0.56496418339E-01  0.88992818836E+00  0.88000000000E+00 0. -1.
        -11    1    4    4    0    0  0.87085846216E-01 -0.13960745300E-01 -0.40645234857E-01  0.97114073429E-01  0.51100000000E-03 0. -1.
         11    1    4    4    0    0  0.25078399449E-01 -0.15878860602E-01 -0.15189811772E-01  0.33347501189E-01  0.51100000000E-03 0.  1.
</event>
<event>
 8    1  0.1064884E+005  0.1043930E+01  0.7957747E-01            NaN
         13   -1    0    0    0    0  0.00000000000E+00  0.00000000000E+00  0.74505805969E-08  0.10566000000E+00  0.10566000000E+00 0. -1.
     999900   -1    0    0    0    0 -0.00000000000E+00 -0.00000000000E+00 -0.74505805969E-08  0.93827000000E+00  0.93827000000E+00 0. -1.
     999902    2    1    2    0    0 -0.17992408723E-01 -0.15132612680E-01  0.41922156643E-02  0.10200490995E+01  0.10197695171E+01 0.  0.
     999903    2    3    3    0    0  0.53453016036E-01  0.11399171752E-01  0.11594601956E+00  0.12971360259E+00  0.19873932834E-01 0.  0.
         14    1    1    2    0    0  0.17992408723E-01  0.15132612680E-01 -0.41922156643E-02  0.23880900534E-01  0.00000000000E+00 0. -1.
     999901    1    3    3    0    0 -0.71445424759E-01 -0.26531784432E-01 -0.11175380390E+00  0.89033549687E+00  0.88000000000E+00 0. -1.
        -11    1    4    4    0    0  0.94911467270E-02  0.31081492402E-02  0.42941514085E-01  0.44090556935E-01  0.51100000000E-03 0. -1.
         11    1    4    4    0    0  0.43961869309E-01  0.82910225121E-02  0.73004505475E-01  0.85623045660E-01  0.51100000000E-03 0.  1.
</event>
<event>
 8    1  0.1064884E+005  0.1043930E+01  0.7957747E-01            NaN
         13   -1    0    0    0    0  0.00000000000E+00  0.00000000000E+00  0.74505805969E-08  0.10566000000E+00  0.10566000000E+00 0.  1.
     999900   -1    0    0    0    0 -0.00000000000E+00 -0.00000000000E+00 -0.74505805969E-08  0.93827000000E+00  0.93827000000E+00 0.  1.
     999902    2    1    2    0    0  0.22961520622E-02  0.20406378533E-01 -0.11455506758E-01  0.10204157228E+01  0.10201447574E+01 0.  0.
     999903    2    3    3    0    0 -0.38593135813E-02  0.13166131724E+00  0.71425785039E-03  0.13330600332E+00  0.20503258238E-01 0.  0.
         14    1    1    2    0    0 -0.22961520622E-02 -0.20406378533E-01  0.11455506758E-01  0.23514277242E-01  0.00000000000E+00 0. -1.
     999901    1    3    3    0    0  0.61554656435E-02 -0.11125493871E+00 -0.12169764608E-01  0.88710971943E+00  0.88000000000E+00 0. -1.
        -11    1    4    4    0    0 -0.79401020572E-02  0.25871368479E-01 -0.38399302859E-02  0.27338235372E-01  0.51100000000E-03 0.  1.
         11    1    4    4    0    0  0.40807884759E-02  0.10578994876E+00  0.45541881363E-02  0.10596776795E+00  0.51100000000E-03 0. -1.
</event>
<event>
 8    1  0.1064884E+005  0.1043930E+01  0.7957747E-01            NaN
         13   -1    0    0    0    0  0.00000000000E+00  0.00000000000E+00  0.74505805969E-08  0.10566000000E+00  0.10566000000E+00 0.  1.
     999900   -1    0    0    0    0 -0.00000000000E+00 -0.00000000000E+00 -0.74505805969E-08  0.93827000000E+00  0.93827000000E+00 0. -1.
     999902    2    1    2    0    0 -0.23743837218E-01 -0.65519900438E-03 -0.13303446963E-01  0.10167053642E+01  0.10163407976E+01 0.  0.
     999903    2    3    3    0    0  0.57731469709E-01 -0.10514516091E+00  0.31481236978E-01  0.12565988521E+00  0.20270940038E-01 0.  0.
         14    1    1    2    0    0  0.23743837218E-01  0.65519900438E-03  0.13303446963E-01  0.27224635767E-01  0.00000000000E+00 0.  1.
     999901    1    3    3    0    0 -0.81475306927E-01  0.10448996191E+00 -0.44784683941E-01  0.89104547903E+00  0.88000000000E+00 0.  1.
        -11    1    4    4    0    0  0.46959708559E-01 -0.85673065448E-01  0.17170615167E-01  0.99197678992E-01  0.51100000000E-03 0. -1.
         11    1    4    4    0    0  0.10771761150E-01 -0.19472095466E-01  0.14310621811E-01  0.26462206214E-01  0.51100000000E-03 0.  1.
</event>
<event>
 8    1  0.1064884E+005  0.1043930E+01  0.7957747E-01            NaN
         13   -1    0    0    0    0  0.00000000000E+00  0.00000000000E+00  0.74505805969E-08  0.10566000000E+00  0.10566000000E+00 0. -1.
     999900   -1    0    0    0    0 -0.00000000000E+00 -0.00000000000E+00 -0.74505805969E-08  0.93827000000E+00  0.93827000000E+00 0.  1.
     999902    2    1    2    0    0  0.78364141937E-02 -0.18898021529E-01  0.11664852813E-01  0.10203797687E+01  0.10201079643E+01 0.  0.
     999903    2    3    3    0    0  0.17150345172E-01 -0.75056255184E-01  0.10707989810E+00  0.13339356393E+00  0.20004063056E-01 0.  0.
         14    1    1    2    0    0 -0.78364141937E-02  0.18898021529E-01 -0.11664852813E-01  0.23550231342E-01  0.00000000000E+00 0.  1.
     999901    1    3    3    0    0 -0.93139309785E-02  0.56158233655E-01 -0.95415045284E-01  0.88698620473E+00  0.88000000000E+00 0.  1.
        -11    1    4    4    0    0  0.15626438914E-01 -0.61077990632E-01  0.72608347119E-01  0.96161009381E-01  0.51100000000E-03 0. -1.
         11    1    4    4    0    0  0.15239062580E-02 -0.13978264552E-01  0.34471550978E-01  0.37232554545E-01  0.51100000000E-03 0.  1.
</event>
<event>
 8    1  0.1064884E+005  0.1043930E+01  0.7957747E-01            NaN
         13   -1    0    0    0    0  0.00000000000E+00  0.00000000000E+00  0.74505805969E-08  0.10566000000E+00  0.10566000000E+00 0.  1.
     999900   -1    0    0    0    0 -0.00000000000E+00 -0.00000000000E+00 -0.74505805969E-08  0.93827000000E+00  0.93827000000E+00 0.  1.
     999902    2    1    2    0    0  0.52189141889E-02 -0.79951316744E-02 -0.19561230604E-01  0.10221630310E+01  0.10219312409E+01 0.  0.
     999903    2    3    3    0    0 -0.36280431302E-01 -0.11619242381E+00 -0.52286732441E-01  0.13396271118E+00  0.19878544950E-01 0.  0.
         14    1    1    2    0    0 -0.52189141889E-02  0.79951316744E-02  0.19561230604E-01  0.21766968979E-01  0.00000000000E+00 0.  1.
     999901    1    3    3    0    0  0.41499345491E-01  0.10819729214E+00  0.32725501838E-01  0.88820031984E+00  0.88000000000E+00 0.  1.
        -11    1    4    4    0    0 -0.36660371592E-01 -0.92208331819E-01 -0.44364650846E-01  0.10869610236E+00  0.51100000000E-03 0.  1.
         11    1    4    4    0    0  0.37994028941E-03 -0.23984091993E-01 -0.79220815958E-02  0.25266608818E-01  0.51100000000E-03 0. -1.
</event>
<event>
 8    1  0.1064884E+005  0.1043930E+01  0.7957747E-01            NaN
         13   -1    0    0    0    0  0.00000000000E+00  0.00000000000E+00  0.74505805969E-08  0.10566000000E+00  0.10566000000E+00 0.  1.
     999900   -1    0    0    0    0 -0.00000000000E+00 -0.00000000000E+00 -0.74505805969E-08  0.93827000000E+00  0.93827000000E+00 0.  1.
     999902    2    1    2    0    0 -0.47840135012E-02 -0.21838736069E-01  0.12382013084E-01  0.10183735639E+01  0.10180528396E+01 0.  0.
     999903    2    3    3    0    0 -0.70026956463E-01  0.10299248706E+00 -0.12783641248E-01  0.12681717980E+00  0.20197737139E-01 0.  0.
         14    1    1    2    0    0  0.47840135012E-02  0.21838736069E-01 -0.12382013084E-01  0.25556436103E-01  0.00000000000E+00 0. -1.
     999901    1    3    3    0    0  0.65242942962E-01 -0.12483122313E+00  0.25165654332E-01  0.89155638410E+00  0.88000000000E+00 0.  1.
        -11    1    4    4    0    0 -0.56140444124E-01  0.71768711691E-01 -0.26025800879E-02  0.91156634363E-01  0.51100000000E-03 0. -1.
         11    1    4    4    0    0 -0.13886512339E-01  0.31223775369E-01 -0.10181061160E-01  0.35660545433E-01  0.51100000000E-03 0.  1.
</event>
<event>
 8    1  0.1064884E+005  0.1043930E+01  0.7957747E-01            NaN
         13   -1    0    0    0    0  0.00000000000E+00  0.00000000000E+00  0.74505805969E-08  0.10566000000E+00  0.10566000000E+00 0.  1.
     999900   -1    0    0    0    0 -0.00000000000E+00 -0.00000000000E+00 -0.74505805969E-08  0.93827000000E+00  0.93827000000E+00 0. -1.
     999902    2    1    2    0    0  0.96466886756E-02 -0.76501896140E-03 -0.22178372920E-01  0.10197323951E+01  0.10194452578E+01 0.  0.
     999903    2    3    3    0    0 -0.19470309922E-01 -0.86811839164E-01 -0.95571950635E-01  0.13201708483E+00  0.19471120977E-01 0.  0.
         14    1    1    2    0    0 -0.96466886756E-02  0.76501896140E-03  0.22178372920E-01  0.24197604877E-01  0.00000000000E+00 0.  1.
     999901    1    3    3    0    0  0.29116998598E-01  0.86046820202E-01  0.73393577715E-01  0.88771531029E+00  0.88000000000E+00 0. -1.
        -11    1    4    4    0    0 -0.26808731103E-02 -0.43322196990E-01 -0.36153335701E-01  0.56491810345E-01  0.51100000000E-03 0.  1.
         11    1    4    4    0    0 -0.16789436812E-01 -0.43489642173E-01 -0.59418614933E-01  0.75525274488E-01  0.51100000000E-03 0. -1.
</event>
<event>
 8    1  0.1064884E+005  0.1043930E+01  0.7957747E-01            NaN
         13   -1    0    0    0    0  0.00000000000E+00  0.00000000000E+00  0.74505805969E-08  0.10566000000E+00  0.10566000000E+00 0. -1.
     999900   -1    0    0    0    0 -0.00000000000E+00 -0.00000000000E+00 -0.74505805969E-08  0.93827000000E+00  0.93827000000E+00 0. -1.
     999902    2    1    2    0    0 -0.11017536125E-01  0.25008227957E-02  0.20872611170E-01  0.10201959293E+01  0.10199198145E+01 0.  0.
     999903    2    3    3    0    0  0.51318514845E-01 -0.57316965409E-01  0.10534246214E+00  0.13193971242E+00  0.19804769473E-01 0.  0.
         14    1    1    2    0    0  0.11017536125E-01 -0.25008227957E-02 -0.20872611170E-01  0.23734070742E-01  0.00000000000E+00 0.  1.
     999901    1    3    3    0    0 -0.62336050970E-01  0.59817788205E-01 -0.84469850966E-01  0.88825621684E+00  0.88000000000E+00 0. -1.
        -11    1    4    4    0    0  0.30213748946E-01 -0.23667614306E-01  0.63840487162E-01  0.74490908938E-01  0.51100000000E-03 0.  1.
         11    1    4    4    0    0  0.21104765898E-01 -0.33649351103E-01  0.41501974975E-01  0.57448803478E-01  0.51100000000E-03 0. -1.
</event>
<event>
 8    1  0.1064884E+005  0.1043930E+01  0.7957747E-01            NaN
         13   -1    0    0    0    0  0.00000000000E+00  0.00000000000E+00  0.74505805969E-08  0.10566000000E+00  0.10566000000E+00 0. -1.
     999900   -1    0    0    0    0 -0.00000000000E+00 -0.00000000000E+00 -0.74505805969E-08  0.93827000000E+00  0.93827000000E+00 0.  1.
     999902    2    1    2    0    0  0.62684594418E-02 -0.82148162532E-02 -0.21634740992E-01  0.10199542037E+01  0.10196723684E+01 0.  0.
     999903    2    3    3    0    0  0.63386988164E-01 -0.72017010495E-01  0.84584176260E-01  0.12943991147E+00  0.19895922633E-01 0.  0.
         14    1    1    2    0    0 -0.62684594418E-02  0.82148162532E-02  0.21634740992E-01  0.23975796288E-01  0.00000000000E+00 0. -1.
     999901    1    3    3    0    0 -0.57118528723E-01  0.63802194242E-01 -0.10621891725E+00  0.89051429225E+00  0.88000000000E+00 0. -1.
        -11    1    4    4    0    0  0.20176378860E-01 -0.11377053665E-01  0.24886388072E-01  0.34001721225E-01  0.51100000000E-03 0.  1.
         11    1    4    4    0    0  0.43210609304E-01 -0.60639956830E-01  0.59697788187E-01  0.95438190240E-01  0.51100000000E-03 0. -1.
</event>
<event>
 8    1  0.1064884E+005  0.1043930E+01  0.7957747E-01            NaN
         13   -1    0    0    0    0  0.00000000000E+00  0.00000000000E+00  0.74505805969E-08  0.10566000000E+00  0.10566000000E+00 0. -1.
     999900   -1    0    0    0    0 -0.00000000000E+00 -0.00000000000E+00 -0.74505805969E-08  0.93827000000E+00  0.93827000000E+00 0.  1.
     999902    2    1    2    0    0  0.11012458918E-01 -0.11995736447E-01 -0.15695186090E-01  0.10213133952E+01  0.10210629464E+01 0.  0.
     999903    2    3    3    0    0  0.82812122535E-01 -0.94353749079E-01 -0.42661647594E-01  0.13414643013E+00  0.20365925895E-01 0.  0.
         14    1    1    2    0    0 -0.11012458918E-01  0.11995736447E-01  0.15695186090E-01  0.22616604757E-01  0.00000000000E+00 0. -1.
     999901    1    3    3    0    0 -0.71799663617E-01  0.82358012632E-01  0.26966461504E-01  0.88716696511E+00  0.88000000000E+00 0.  1.
        -11    1    4    4    0    0  0.22375441137E-01 -0.25693850791E-01 -0.21396452204E-01  0.40235601431E-01  0.51100000000E-03 0. -1.
         11    1    4    4    0    0  0.60436681398E-01 -0.68659898287E-01 -0.21265195389E-01  0.93910828700E-01  0.51100000000E-03 0.  1.
</event>
<event>
 8    1  0.1064884E+005  0.1043930E+01  0.7957747E-01            NaN
         13   -1    0    0    0    0  0.00000000000E+00  0.00000000000E+00  0.74505805969E-08  0.10566000000E+00  0.10566000000E+00 0.  1.
     999900   -1    0    0    0    0 -0.00000000000E+00 -0.00000000000E+00 -0.74505805969E-08  0.93827000000E+00  0.93827000000E+00 0. -1.
     999902    2    1    2    0    0 -0.19297118184E-01  0.12324059906E-01  0.73151479410E-02  0.10198930989E+01  0.10196098080E+01 0.  0.
     999903    2    3    3    0    0  0.11440600757E+00  0.47579408159E-02 -0.52705421733E-01  0.12774051067E+00  0.20697923003E-01 0.  0.
         14    1    1    2    0    0  0.19297118184E-01 -0.12324059906E-01 -0.73151479410E-02  0.24036901052E-01  0.00000000000E+00 0. -1.
     999901    1    3    3    0    0 -0.13370312575E+00  0.75661190903E-02  0.60020569674E-01  0.89215258828E+00  0.88000000000E+00 0.  1.
        -11    1    4    4    0    0  0.28245049788E-01 -0.45632170626E-02 -0.20850583738E-01  0.35406408329E-01  0.51100000000E-03 0. -1.
         11    1    4    4    0    0  0.86160957781E-01  0.93211578785E-02 -0.31854837994E-01  0.92334102338E-01  0.51100000000E-03 0.  1.
</event>
<event>
 8    1  0.1064884E+005  0.1043930E+01  0.7957747E-01            NaN
         13   -1    0    0    0    0  0.00000000000E+00  0.00000000000E+00  0.74505805969E-08  0.10566000000E+00  0.10566000000E+00 0.  1.
     999900   -1    0    0    0    0 -0.00000000000E+00 -0.00000000000E+00 -0.74505805969E-08  0.93827000000E+00  0.93827000000E+00 0. -1.
     999902    2    1    2    0    0  0.82321707857E-02 -0.13227608727E-01 -0.17812068808E-01  0.10202655105E+01  0.10199910313E+01 0.  0.
     999903    2    3    3    0    0 -0.80346141801E-01  0.95835346656E-01  0.20306299706E-01  0.12830482990E+00  0.20245182087E-01 0.  0.
         14    1    1    2    0    0 -0.82321707857E-02  0.13227608727E-01  0.17812068808E-01  0.23664489509E-01  0.00000000000E+00 0.  1.
     999901    1    3    3    0    0  0.88578312587E-01 -0.10906295538E+00 -0.38118368514E-01  0.89196068059E+00  0.88000000000E+00 0. -1.
        -11    1    4    4    0    0 -0.34868912173E-01  0.53631958487E-01  0.16896627126E-01  0.66166344440E-01  0.51100000000E-03 0. -1.
         11    1    4    4    0    0 -0.45477229628E-01  0.42203388169E-01  0.34096725795E-02  0.62138485463E-01  0.51100000000E-03 0.  1.
</event>
<event>
 8    1  0.1064884E+005  0.1043930E+01  0.7957747E-01            NaN
         13   -1    0    0    0    0  0.00000000000E+00  0.00000000000E+00  0.74505805969E-08  0.10566000000E+00  0.10566000000E+00 0.  1.
     999900   -1    0    0    0    0 -0.00000000000E+00 -0.00000000000E+00 -0.74505805969E-08  0.93827000000E+00  0.93827000000E+00 0.  1.
     999902    2    1    2    0    0 -0.16265962974E-01 -0.95471845754E-02  0.14712307330E-01  0.10200096682E+01  0.10197291508E+01 0.  0.
     999903    2    3    3    0    0  0.96216970812E-01  0.81684422598E-01  0.88145933104E-02  0.12815183227E+00  0.20375099790E-01 0.  0.
         14    1    1    2    0    0  0.16265962974E-01  0.95471845754E-02 -0.14712307330E-01  0.23920331766E-01  0.00000000000E+00 0.  1.
     999901    1    3    3    0    0 -0.11248293379E+00 -0.91231607174E-01  0.58977140198E-02  0.89185783596E+00  0.88000000000E+00 0.  1.
        -11    1    4    4    0    0  0.60223288346E-01  0.55364009972E-01  0.14877493376E-01  0.83148174902E-01  0.51100000000E-03 0.  1.
         11    1    4    4    0    0  0.35993682466E-01  0.26320412626E-01 -0.60629000657E-02  0.45003657368E-01  0.51100000000E-03 0. -1.
</event>
<event>
 8    1  0.1064884E+005  0.1043930E+01  0.7957747E-01            NaN
         13   -1    0    0    0    0  0.00000000000E+00  0.00000000000E+00  0.74505805969E-08  0.10566000000E+00  0.10566000000E+00 0.  1.
     999900   -1    0    0    0    0 -0.00000000000E+00 -0.00000000000E+00 -0.74505805969E-08  0.93827000000E+00  0.93827000000E+00 0. -1.
     999902    2    1    2    0    0 -0.16287223513E-01  0.13672524334E-01 -0.10857950550E-01  0.10200530936E+01  0.10197736058E+01 0.  0.
     999903    2    3    3    0    0 -0.24911890090E-02  0.84980725466E-01 -0.10010406035E+00  0.13256221572E+00  0.17999678175E-01 0.  0.
         14    1    1    2    0    0  0.16287223513E-01 -0.13672524334E-01  0.10857950550E-01  0.23876906449E-01  0.00000000000E+00 0. -1.
     999901    1    3    3    0    0 -0.13796034504E-01 -0.71308201131E-01  0.89246109803E-01  0.88749087783E+00  0.88000000000E+00 0.  1.
        -11    1    4    4    0    0 -0.84435660820E-02  0.61690438305E-01 -0.78840925472E-01  0.10046470344E+00  0.51100000000E-03 0.  1.
         11    1    4    4    0    0  0.59523770730E-02  0.23290287161E-01 -0.21263134880E-01  0.32097512283E-01  0.51100000000E-03 0. -1.
</event>
<event>
 8    1  0.1064884E+005  0.1043930E+01  0.7957747E-01            NaN
         13   -1    0    0    0    0  0.00000000000E+00  0.00000000000E+00  0.74505805969E-08  0.10566000000E+00  0.10566000000E+00 0.  1.
     999900   -1    0    0    0    0 -0.00000000000E+00 -0.00000000000E+00 -0.74505805969E-08  0.93827000000E+00  0.93827000000E+00 0. -1.
     999902    2    1    2    0    0 -0.13210139623E-02  0.36996135482E-02  0.22164856473E-01  0.10214197117E+01  0.10211716380E+01 0.  0.
     999903    2    3    3    0    0  0.23274713547E-01 -0.12145545472E+00  0.41739005165E-01  0.13200873342E+00  0.19774260427E-01 0.  0.
         14    1    1    2    0    0  0.13210139623E-02 -0.36996135482E-02 -0.22164856473E-01  0.22510288331E-01  0.00000000000E+00 0. -1.
     999901    1    3    3    0    0 -0.24595727509E-01  0.12515506827E+00 -0.19574148692E-01  0.88941097824E+00  0.88000000000E+00 0.  1.
        -11    1    4    4    0    0  0.22507431692E-01 -0.67170684430E-01  0.26248588564E-01  0.75549552287E-01  0.51100000000E-03 0.  1.
         11    1    4    4    0    0  0.76728185461E-03 -0.54284770292E-01  0.15490416602E-01  0.56459181137E-01  0.51100000000E-03 0. -1.
</event>
<event>
 8    1  0.1064884E+005  0.1043930E+01  0.7957747E-01            NaN
         13   -1    0    0    0    0  0.00000000000E+00  0.00000000000E+00  0.74505805969E-08  0.10566000000E+00  0.10566000000E+00 0. -1.
     999900   -1    0    0    0    0 -0.00000000000E+00 -0.00000000000E+00 -0.74505805969E-08  0.93827000000E+00  0.93827000000E+00 0. -1.
     999902    2    1    2    0    0 -0.33697610387E-02  0.70502490947E-02 -0.22651724710E-01  0.10199683236E+01  0.10196868241E+01 0.  0.
     999903    2    3    3    0    0  0.12128182152E+00  0.32062853408E-02 -0.44653031028E-01  0.13090316822E+00  0.20547159726E-01 0.  0.
         14    1    1    2    0    0  0.33697610387E-02 -0.70502490947E-02  0.22651724710E-01  0.23961676363E-01  0.00000000000E+00 0. -1.
     999901    1    3    3    0    0 -0.12465158256E+00  0.38439637539E-02  0.22001306318E-01  0.88906515541E+00  0.88000000000E+00 0.  1.
        -11    1    4    4    0    0  0.10556637688E+00 -0.81654235994E-03 -0.44772760250E-01  0.11467252439E+00  0.51100000000E-03 0. -1.
         11    1    4    4    0    0  0.15715444646E-01  0.40228277008E-02  0.11972922166E-03  0.16230643833E-01  0.51100000000E-03 0.  1.
</event>
<event>
 8    1  0.1064884E+005  0.1043930E+01  0.7957747E-01            NaN
         13   -1    0    0    0    0  0.00000000000E+00  0.00000000000E+00  0.74505805969E-08  0.10566000000E+00  0.10566000000E+00 0. -1.
     999900   -1    0    0    0    0 -0.00000000000E+00 -0.00000000000E+00 -0.74505805969E-08  0.93827000000E+00  0.93827000000E+00 0.  1.
     999902    2    1    2    0    0  0.12839933287E-01  0.29265870021E-02  0.30259114621E-01  0.10109293513E+01  0.10103905732E+01 0.  0.
     999903    2    3    3    0    0 -0.11746410577E+00 -0.26247192732E-02 -0.15228433778E-01  0.12015492604E+00  0.20014888526E-01 0.  0.
         14    1    1    2    0    0 -0.12839933287E-01 -0.29265870021E-02 -0.30259114621E-01  0.33000648720E-01  0.00000000000E+00 0.  1.
     999901    1    3    3    0    0  0.13030403905E+00  0.55513062753E-02  0.45487548399E-01  0.89077442524E+00  0.88000000000E+00 0.  1.
        -11    1    4    4    0    0 -0.46102823824E-01 -0.97151211478E-02 -0.10571098196E-01  0.48289369239E-01  0.51100000000E-03 0. -1.
         11    1    4    4    0    0 -0.71361281942E-01  0.70904018746E-02 -0.46573355811E-02  0.71865556805E-01  0.51100000000E-03 0.  1.
</event>
<event>
 8    1  0.1064884E+005  0.1043930E+01  0.7957747E-01            NaN
         13   -1    0    0    0    0  0.00000000000E+00  0.00000000000E+00  0.74505805969E-08  0.10566000000E+00  0.10566000000E+00 0.  1.
     999900   -1    0    0    0    0 -0.00000000000E+00 -0.00000000000E+00 -0.74505805969E-08  0.93827000000E+00  0.93827000000E+00 0. -1.
     999902    2    1    2    0    0  0.99460907532E-02  0.57187785481E-02  0.19797961719E-01  0.10210479451E+01  0.10207915153E+01 0.  0.
     999903    2    3    3    0    0  0.71971486431E-01 -0.63161084077E-01 -0.86059169654E-01  0.12987045577E+00  0.17056881283E-01 0.  0.
         14    1    1    2    0    0 -0.99460907532E-02 -0.57187785481E-02 -0.19797961719E-01  0.22882054925E-01  0.00000000000E+00 0. -1.
     999901    1    3    3    0    0 -0.62025395678E-01  0.68879862625E-01  0.10585713137E+00  0.89117748931E+00  0.88000000000E+00 0.  1.
        -11    1    4    4    0    0  0.47688691067E-01 -0.48533567305E-01 -0.52536634833E-01  0.85965560148E-01  0.51100000000E-03 0.  1.
         11    1    4    4    0    0  0.24282795364E-01 -0.14627516772E-01 -0.33522534821E-01  0.43904895621E-01  0.51100000000E-03 0. -1.
</event>
<event>
 8    1  0.1064884E+005  0.1043930E+01  0.7957747E-01            NaN
         13   -1    0    0    0    0  0.00000000000E+00  0.00000000000E+00  0.74505805969E-08  0.10566000000E+00  0.10566000000E+00 0. -1.
     999900   -1    0    0    0    0 -0.00000000000E+00 -0.00000000000E+00 -0.74505805969E-08  0.93827000000E+00  0.93827000000E+00 0. -1.
     999902    2    1    2    0    0 -0.17811708520E-01 -0.18492953643E-04  0.17793619862E-01  0.10187532208E+01  0.10184420723E+01 0.  0.
     999903    2    3    3    0    0 -0.48595758614E-01 -0.51534963199E-03 -0.11651692650E+00  0.12803035287E+00  0.21301731273E-01 0.  0.
         14    1    1    2    0    0  0.17811708520E-01  0.18492953643E-04 -0.17793619862E-01  0.25176779186E-01  0.00000000000E+00 0.  1.
     999901    1    3    3    0    0  0.30784050094E-01  0.49685667835E-03  0.13431054636E+00  0.89072286794E+00  0.88000000000E+00 0.  1.
        -11    1    4    4    0    0 -0.25478328482E-01 -0.12447323768E-03 -0.86271005548E-01  0.89956146178E-01  0.51100000000E-03 0. -1.
         11    1    4    4    0    0 -0.23117430132E-01 -0.39087639431E-03 -0.30245920952E-01  0.38074206696E-01  0.51100000000E-03 0.  1.
</event>
<event>
 8    1  0.1064884E+005  0.1043930E+01  0.7957747E-01            NaN
         13   -1    0    0    0    0  0.00000000000E+00  0.00000000000E+00  0.74505805969E-08  0.10566000000E+00  0.10566000000E+00 0.  1.
     999900   -1    0    0    0    0 -0.00000000000E+00 -0.00000000000E+00 -0.74505805969E-08  0.93827000000E+00  0.93827000000E+00 0.  1.
     999902    2    1    2    0    0  0.22276194737E-01  0.72426296112E-02 -0.87503438987E-02  0.10189249394E+01  0.10186180732E+01 0.  0.
     999903    2    3    3    0    0  0.44002419321E-01 -0.88878728211E-01  0.80091986906E-01  0.12897870285E+00  0.19624937908E-01 0.  0.
         14    1    1    2    0    0 -0.22276194737E-01 -0.72426296112E-02  0.87503438987E-02  0.25005060568E-01  0.00000000000E+00 0. -1.
     999901    1    3    3    0    0 -0.21726224584E-01  0.96121357822E-01 -0.88842330804E-01  0.88994623658E+00  0.88000000000E+00 0. -1.
        -11    1    4    4    0    0  0.20152506363E-01 -0.61824559600E-01  0.51383623665E-01  0.82879053955E-01  0.51100000000E-03 0.  1.
         11    1    4    4    0    0  0.23849912958E-01 -0.27054168611E-01  0.28708363240E-01  0.46099648895E-01  0.51100000000E-03 0. -1.
</event>
<event>
 8    1  0.1272284E+005  0.1043930E+01  0.7957747E-01            NaN
         13   -1    0    0    0    0  0.00000000000E+00  0.00000000000E+00  0.74505805969E-08  0.10566000000E+00  0.10566000000E+00 0.  1.
     999900   -1    0    0    0    0 -0.00000000000E+00 -0.00000000000E+00 -0.74505805969E-08  0.93827000000E+00  0.93827000000E+00 0.  1.
     999902    2    1    2    0    0 -0.24289697705E-01  0.45159608138E-02 -0.43276277498E-02  0.10188479012E+01  0.10185391176E+01 0.  0.
     999903    2    3    3    0    0 -0.41973168438E-02 -0.12422197352E+00  0.27992755298E-01  0.12866715180E+00  0.17970126018E-01 0.  0.
         14    1    1    2    0    0  0.24289697705E-01 -0.45159608138E-02  0.43276277498E-02  0.25082098768E-01  0.00000000000E+00 0.  1.
     999901    1    3    3    0    0 -0.20092380861E-01  0.12873793433E+00 -0.32320383048E-01  0.89018074944E+00  0.88000000000E+00 0.  1.
        -11    1    4    4    0    0 -0.26932147555E-02 -0.56473823889E-01  0.21876308362E-01  0.60624913846E-01  0.51100000000E-03 0.  1.
         11    1    4    4    0    0 -0.15041020883E-02 -0.67748149629E-01  0.61164469361E-02  0.68042237951E-01  0.51100000000E-03 0. -1.
</event>
<event>
 8    1  0.1064884E+005  0.1043930E+01  0.7957747E-01            NaN
         13   -1    0    0    0    0  0.00000000000E+00  0.00000000000E+00  0.74505805969E-08  0.10566000000E+00  0.10566000000E+00 0. -1.
     999900   -1    0    0    0    0 -0.00000000000E+00 -0.00000000000E+00 -0.74505805969E-08  0.93827000000E+00  0.93827000000E+00 0.  1.
     999902    2    1    2    0    0 -0.75190208880E-02 -0.41983794804E-02 -0.22428929678E-01  0.10199046186E+01  0.10196216024E+01 0.  0.
     999903    2    3    3    0    0  0.33521165439E-01 -0.98831793441E-01 -0.78905175482E-01  0.13208180616E+00  0.18115873519E-01 0.  0.
         14    1    1    2    0    0  0.75190208880E-02  0.41983794804E-02  0.22428929678E-01  0.24025381410E-01  0.00000000000E+00 0. -1.
     999901    1    3    3    0    0 -0.41040186327E-01  0.94633413961E-01  0.56476245804E-01  0.88782281243E+00  0.88000000000E+00 0. -1.
        -11    1    4    4    0    0  0.18186981090E-01 -0.74825246740E-01 -0.62712631043E-01  0.99311223153E-01  0.51100000000E-03 0.  1.
         11    1    4    4    0    0  0.15334184349E-01 -0.24006546702E-01 -0.16192544439E-01  0.32770583007E-01  0.51100000000E-03 0. -1.
</event>
<event>
 8    1  0.1064884E+005  0.1043930E+01  0.7957747E-01            NaN
         13   -1    0    0    0    0  0.00000000000E+00  0.00000000000E+00  0.74505805969E-08  0.10566000000E+00  0.10566000000E+00 0. -1.
     999900   -1    0    0    0    0 -0.00000000000E+00 -0.00000000000E+00 -0.74505805969E-08  0.93827000000E+00  0.93827000000E+00 0. -1.
     999902    2    1    2    0    0  0.81309177701E-02 -0.15844608993E-01 -0.15807093228E-01  0.10201176575E+01  0.10198396970E+01 0.  0.
     999903    2    3    3    0    0 -0.10728143505E+00  0.53784956323E-01 -0.43703465870E-01  0.12941765463E+00  0.20899965716E-01 0.  0.
         14    1    1    2    0    0 -0.81309177701E-02  0.15844608993E-01  0.15807093228E-01  0.23812342477E-01  0.00000000000E+00 0. -1.
     999901    1    3    3    0    0  0.11541235282E+00 -0.69629565316E-01  0.27896372642E-01  0.89070000289E+00  0.88000000000E+00 0.  1.
        -11    1    4    4    0    0 -0.49038423349E-01  0.29826979389E-01 -0.30757817527E-01  0.65120811758E-01  0.51100000000E-03 0.  1.
         11    1    4    4    0    0 -0.58243011703E-01  0.23957976934E-01 -0.12945648343E-01  0.64296842870E-01  0.51100000000E-03 0. -1.
</event>
<event>
 8    1  0.1064884E+005  0.1043930E+01  0.7957747E-01            NaN
         13   -1    0    0    0    0  0.00000000000E+00  0.00000000000E+00  0.74505805969E-08  0.10566000000E+00  0.10566000000E+00 0.  1.
     999900   -1    0    0    0    0 -0.00000000000E+00 -0.00000000000E+00 -0.74505805969E-08  0.93827000000E+00  0.93827000000E+00 0. -1.
     999902    2    1    2    0    0 -0.42579479952E-02 -0.29756175979E-01  0.23010449839E-01  0.10060744729E+01  0.10053620264E+01 0.  0.
     999903    2    3    3    0    0  0.32139529393E-01  0.80549827626E-01  0.75730167355E-01  0.11687732974E+00  0.20100444759E-01 0.  0.
         14    1    1    2    0    0  0.42579479952E-02  0.29756175979E-01 -0.23010449839E-01  0.37855527097E-01  0.00000000000E+00 0. -1.
     999901    1    3    3    0    0 -0.36397477388E-01 -0.11030600361E+00 -0.52719717516E-01  0.88919714316E+00  0.88000000000E+00 0. -1.
        -11    1    4    4    0    0  0.11655132512E-01  0.16536130543E-01  0.27528993422E-01  0.34167123482E-01  0.51100000000E-03 0. -1.
         11    1    4    4    0    0  0.20484396881E-01  0.64013697083E-01  0.48201173933E-01  0.82710206259E-01  0.51100000000E-03 0.  1.
</event>
<event>
 8    1  0.1064884E+005  0.1043930E+01  0.7957747E-01            NaN
         13   -1    0    0    0    0  0.00000000000E+00  0.00000000000E+00  0.74505805969E-08  0.10566000000E+00  0.10566000000E+00 0.  1.
     999900   -1    0    0    0    0 -0.00000000000E+00 -0.00000000000E+00 -0.74505805969E-08  0.93827000000E+00  0.93827000000E+00 0. -1.
     999902    2    1    2    0    0 -0.10833225746E-01 -0.20067865068E-01  0.48215407299E-02  0.10206206619E+01  0.10203544532E+01 0.  0.
     999903    2    3    3    0    0  0.83988083141E-01 -0.77589240404E-01 -0.61155584652E-01  0.13120918775E+00  0.20043878883E-01 0.  0.
         14    1    1    2    0    0  0.10833225746E-01  0.20067865068E-01 -0.48215407299E-02  0.23309338117E-01  0.00000000000E+00 0. -1.
     999901    1    3    3    0    0 -0.94821308887E-01  0.57521375336E-01  0.65977125382E-01  0.88941147413E+00  0.88000000000E+00 0.  1.
        -11    1    4    4    0    0  0.53032530572E-01 -0.45763864926E-01 -0.26537642593E-01  0.74908532406E-01  0.51100000000E-03 0. -1.
         11    1    4    4    0    0  0.30955552569E-01 -0.31825375478E-01 -0.34617942059E-01  0.56300655348E-01  0.51100000000E-03 0.  1.
</event>
<event>
 8    1  0.1064884E+005  0.1043930E+01  0.7957747E-01            NaN
         13   -1    0    0    0    0  0.00000000000E+00  0.00000000000E+00  0.74505805969E-08  0.10566000000E+00  0.10566000000E+00 0.  1.
     999900   -1    0    0    0    0 -0.00000000000E+00 -0.00000000000E+00 -0.74505805969E-08  0.93827000000E+00  0.93827000000E+00 0. -1.
     999902    2    1    2    0    0 -0.21027430013E-01  0.99938379020E-02 -0.69905062053E-02  0.10196216314E+01  0.10193318274E+01 0.  0.
     999903    2    3    3    0    0 -0.97863574163E-01  0.87541267210E-01  0.33116856552E-02  0.13281639231E+00  0.19709748676E-01 0.  0.
         14    1    1    2    0    0  0.21027430013E-01 -0.99938379020E-02  0.69905062053E-02  0.24308368641E-01  0.00000000000E+00 0.  1.
     999901    1    3    3    0    0  0.76836144150E-01 -0.77547429308E-01 -0.10302191861E-01  0.88680523904E+00  0.88000000000E+00 0. -1.
        -11    1    4    4    0    0 -0.69667864794E-01  0.50568515722E-01 -0.12207247688E-02  0.86096094320E-01  0.51100000000E-03 0.  1.
         11    1    4    4    0    0 -0.28195709370E-01  0.36972751488E-01  0.45324104240E-02  0.46720297994E-01  0.51100000000E-03 0. -1.
</event>
<event>
 8    1  0.1064884E+005  0.1043930E+01  0.7957747E-01            NaN
         13   -1    0    0    0    0  0.00000000000E+00  0.00000000000E+00  0.74505805969E-08  0.10566000000E+00  0.10566000000E+00 0.  1.
     999900   -1    0    0    0    0 -0.00000000000E+00 -0.00000000000E+00 -0.74505805969E-08  0.93827000000E+00  0.93827000000E+00 0. -1.
     999902    2    1    2    0    0 -0.17237463370E-01  0.12649811002E-01  0.88771322418E-02  0.10207793771E+01  0.10205168227E+01 0.  0.
     999903    2    3    3    0    0  0.65365614313E-01 -0.68805967830E-01 -0.84289226114E-01  0.12828944293E+00  0.18616733988E-01 0.  0.
         14    1    1    2    0    0  0.17237463370E-01 -0.12649811002E-01 -0.88771322418E-02  0.23150622856E-01  0.00000000000E+00 0. -1.
     999901    1    3    3    0    0 -0.82603077682E-01  0.81455778832E-01  0.93166358355E-01  0.89248993422E+00  0.88000000000E+00 0.  1.
        -11    1    4    4    0    0  0.59946367702E-01 -0.55678604419E-01 -0.65942612668E-01  0.10508264974E+00  0.51100000000E-03 0.  1.
         11    1    4    4    0    0  0.54192466107E-02 -0.13127363411E-01 -0.18346613446E-01  0.23206793184E-01  0.51100000000E-03 0. -1.
</event>
<event>
 8    1  0.1064884E+005  0.1043930E+01  0.7957747E-01            NaN
         13   -1    0    0    0    0  0.00000000000E+00  0.00000000000E+00  0.74505805969E-08  0.10566000000E+00  0.10566000000E+00 0.  1.
     999900   -1    0    0    0    0 -0.00000000000E+00 -0.00000000000E+00 -0.74505805969E-08  0.93827000000E+00  0.93827000000E+00 0. -1.
     999902    2    1    2    0    0  0.24436005794E-02  0.10426565185E-01  0.13850082893E-01  0.10264225947E+01  0.10262732743E+01 0.  0.
     999903    2    3    3    0    0 -0.23695568776E-01  0.31454188273E-01  0.13113955248E+00  0.13800701805E+00  0.17248445331E-01 0.  0.
         14    1    1    2    0    0 -0.24436005794E-02 -0.10426565185E-01 -0.13850082893E-01  0.17507405333E-01  0.00000000000E+00 0. -1.
     999901    1    3    3    0    0  0.26139169356E-01 -0.21027623088E-01 -0.11728946958E+00  0.88841557662E+00  0.88000000000E+00 0. -1.
        -11    1    4    4    0    0 -0.64242437412E-02  0.22585189290E-02  0.43454319631E-01  0.43987621338E-01  0.51100000000E-03 0. -1.
         11    1    4    4    0    0 -0.17271325035E-01  0.29195669344E-01  0.87685232846E-01  0.94019396708E-01  0.51100000000E-03 0.  1.
</event>
<event>
 8    1  0.1064884E+005  0.1043930E+01  0.7957747E-01            NaN
         13   -1    0    0    0    0  0.00000000000E+00  0.00000000000E+00  0.74505805969E-08  0.10566000000E+00  0.10566000000E+00 0.  1.
     999900   -1    0    0    0    0 -0.00000000000E+00 -0.00000000000E+00 -0.74505805969E-08  0.93827000000E+00  0.93827000000E+00 0.  1.
     999902    2    1    2    0    0  0.14644049021E-01 -0.64924453254E-02  0.18605802017E-01  0.10193785054E+01  0.10190828040E+01 0.  0.
     999903    2    3    3    0    0  0.10903624869E+00  0.34110787870E-01  0.63407202361E-01  0.13226764685E+00  0.20537957842E-01 0.  0.
         14    1    1    2    0    0 -0.14644049021E-01  0.64924453254E-02 -0.18605802017E-01  0.24551494593E-01  0.00000000000E+00 0. -1.
     999901    1    3    3    0    0 -0.94392199674E-01 -0.40603233196E-01 -0.44801400343E-01  0.88711085856E+00  0.88000000000E+00 0. -1.
        -11    1    4    4    0    0  0.45152631800E-01  0.24635554405E-01  0.30147401265E-01  0.59622123606E-01  0.51100000000E-03 0.  1.
         11    1    4    4    0    0  0.63883616895E-01  0.94752334656E-02  0.33259801096E-01  0.72645523240E-01  0.51100000000E-03 0. -1.
</event>
<event>
 7    1  0.1064884E+005  0.1043930E+01  0.7957747E-01            NaN
         13   -1    0    0    0    0  0.00000000000E+00  0.00000000000E+00  0.74505805969E-08  0.10566000000E+00  0.10566000000E+00 0.  1.
     999900   -1    0    0    0    0 -0.00000000000E+00 -0.00000000000E+00 -0.74505805969E-08  0.93827000000E+00  0.93827000000E+00 0.  1.
     999903    2    1    2    0    0  0.77395753003E-01 -0.60122677071E-01  0.47047202171E-01  0.11057824301E+00  0.20230415565E-01 0.  0.
         14    1    1    2    0    0 -0.33305625528E-01 -0.58007853764E-02 -0.36460143500E-01  0.49721784630E-01  0.00000000000E+00 0. -1.
     999901    1    1    2    0    0 -0.44090127475E-01  0.65923462447E-01 -0.10587058672E-01  0.88362997236E+00  0.88000000000E+00 0.  1.
        -11    1    3    3    0    0  0.25566717548E-01 -0.18443756433E-01  0.50843822763E-02  0.31936519247E-01  0.51100000000E-03 0.  1.
         11    1    3    3    0    0  0.51829035455E-01 -0.41678920638E-01  0.41962819895E-01  0.78641723762E-01  0.51100000000E-03 0. -1.
</event>
<event>
 8    1  0.1064884E+005  0.1043930E+01  0.7957747E-01            NaN
         13   -1    0    0    0    0  0.00000000000E+00  0.00000000000E+00  0.74505805969E-08  0.10566000000E+00  0.10566000000E+00 0.  1.
     999900   -1    0    0    0    0 -0.00000000000E+00 -0.00000000000E+00 -0.74505805969E-08  0.93827000000E+00  0.93827000000E+00 0.  1.
     999902    2    1    2    0    0 -0.10123303477E-01 -0.69903526529E-02 -0.77451428095E-02  0.10293926845E+01  0.10292900298E+01 0.  0.
     999903    2    3    3    0    0  0.38902324229E-01 -0.12759366198E+00 -0.35025070751E-01  0.13939669306E+00  0.20276810601E-01 0.  0.
         14    1    1    2    0    0  0.10123303477E-01  0.69903526529E-02  0.77451428095E-02  0.14537315455E-01  0.00000000000E+00 0.  1.
     999901    1    3    3    0    0 -0.49025627706E-01  0.12060330932E+00  0.27279927942E-01  0.88999599149E+00  0.88000000000E+00 0. -1.
        -11    1    4    4    0    0  0.33083057706E-01 -0.84176026744E-01 -0.17023186966E-01  0.92033375473E-01  0.51100000000E-03 0. -1.
         11    1    4    4    0    0  0.58192665230E-02 -0.43417635231E-01 -0.18001883785E-01  0.47363317586E-01  0.51100000000E-03 0.  1.
</event>
<event>
 8    1  0.1064884E+005  0.1043930E+01  0.7957747E-01            NaN
         13   -1    0    0    0    0  0.00000000000E+00  0.00000000000E+00  0.74505805969E-08  0.10566000000E+00  0.10566000000E+00 0. -1.
     999900   -1    0    0    0    0 -0.00000000000E+00 -0.00000000000E+00 -0.74505805969E-08  0.93827000000E+00  0.93827000000E+00 0. -1.
     999902    2    1    2    0    0  0.22020288378E-01 -0.79611209242E-02 -0.30675217876E-02  0.10203147033E+01  0.10200413774E+01 0.  0.
     999903    2    3    3    0    0 -0.30087547221E-02 -0.12237109333E+00  0.43311805394E-01  0.13134499813E+00  0.19795427763E-01 0.  0.
         14    1    1    2    0    0 -0.22020288378E-01  0.79611209242E-02  0.30675217876E-02  0.23615296664E-01  0.00000000000E+00 0. -1.
     999901    1    3    3    0    0  0.25029043100E-01  0.11440997240E+00 -0.46379327182E-01  0.88896970521E+00  0.88000000000E+00 0.  1.
        -11    1    4    4    0    0  0.63737832230E-02 -0.82792152054E-01  0.24887129556E-01  0.86687922416E-01  0.51100000000E-03 0.  1.
         11    1    4    4    0    0 -0.93825379451E-02 -0.39578941273E-01  0.18424675838E-01  0.44657075714E-01  0.51100000000E-03 0. -1.
</event>
<event>
 8    1  0.1064884E+005  0.1043930E+01  0.7957747E-01            NaN
         13   -1    0    0    0    0  0.00000000000E+00  0.00000000000E+00  0.74505805969E-08  0.10566000000E+00  0.10566000000E+00 0.  1.
     999900   -1    0    0    0    0 -0.00000000000E+00 -0.00000000000E+00 -0.74505805969E-08  0.93827000000E+00  0.93827000000E+00 0. -1.
     999902    2    1    2    0    0 -0.66550687388E-02  0.10062405958E-01 -0.21293093244E-01  0.10194567948E+01  0.10191629991E+01 0.  0.
     999903    2    3    3    0    0 -0.96766725809E-01  0.78258325685E-01  0.34387544208E-01  0.13048484495E+00  0.18858069944E-01 0.  0.
         14    1    1    2    0    0  0.66550687388E-02 -0.10062405958E-01  0.21293093244E-01  0.24473205215E-01  0.00000000000E+00 0.  1.
     999901    1    3    3    0    0  0.90111657071E-01 -0.68195919727E-01 -0.55680637452E-01  0.88897194984E+00  0.88000000000E+00 0.  1.
        -11    1    4    4    0    0 -0.45893698399E-01  0.44226159172E-01  0.25434391569E-01  0.68624733903E-01  0.51100000000E-03 0. -1.
         11    1    4    4    0    0 -0.50873027411E-01  0.34032166513E-01  0.89531526386E-02  0.61860111046E-01  0.51100000000E-03 0.  1.
</event>
<event>
 8    1  0.1064884E+005  0.1043930E+01  0.7957747E-01            NaN
         13   -1    0    0    0    0  0.00000000000E+00  0.00000000000E+00  0.74505805969E-08  0.10566000000E+00  0.10566000000E+00 0.  1.
     999900   -1    0    0    0    0 -0.00000000000E+00 -0.00000000000E+00 -0.74505805969E-08  0.93827000000E+00  0.93827000000E+00 0.  1.
     999902    2    1    2    0    0  0.11603015128E-01 -0.18244511928E-01  0.96946432104E-02  0.10202344670E+01  0.10199592587E+01 0.  0.
     999903    2    3    3    0    0 -0.53742242963E-01  0.10244623963E+00  0.52392684170E-01  0.12857344233E+00  0.20066789136E-01 0.  0.
         14    1    1    2    0    0 -0.11603015128E-01  0.18244511928E-01 -0.96946432104E-02  0.23695532965E-01  0.00000000000E+00 0. -1.
     999901    1    3    3    0    0  0.65345258091E-01 -0.12069075156E+00 -0.42698040959E-01  0.89166102470E+00  0.88000000000E+00 0.  1.
        -11    1    4    4    0    0 -0.47753937190E-01  0.88080802913E-01  0.52251871978E-01  0.11300082126E+00  0.51100000000E-03 0. -1.
         11    1    4    4    0    0 -0.59883057733E-02  0.14365436717E-01  0.14081219178E-03  0.15572621076E-01  0.51100000000E-03 0.  1.
</event>
<event>
 8    1  0.1064884E+005  0.1043930E+01  0.7957747E-01            NaN
         13   -1    0    0    0    0  0.00000000000E+00  0.00000000000E+00  0.74505805969E-08  0.10566000000E+00  0.10566000000E+00 0.  1.
     999900   -1    0    0    0    0 -0.00000000000E+00 -0.00000000000E+00 -0.74505805969E-08  0.93827000000E+00  0.93827000000E+00 0. -1.
     999902    2    1    2    0    0 -0.19547028903E-01  0.10402578629E-01 -0.57152414779E-02  0.10210615946E+01  0.10208054741E+01 0.  0.
     999903    2    3    3    0    0  0.46201753521E-01  0.56734376288E-01 -0.10735779634E+00  0.13156693647E+00  0.20755019988E-01 0.  0.
         14    1    1    2    0    0  0.19547028903E-01 -0.10402578629E-01  0.57152414779E-02  0.22868405415E-01  0.00000000000E+00 0. -1.
     999901    1    3    3    0    0 -0.65748782424E-01 -0.46331797660E-01  0.10164255486E+00  0.88949465812E+00  0.88000000000E+00 0.  1.
        -11    1    4    4    0    0  0.23274783628E-01  0.19311007876E-01 -0.29858406133E-01  0.42501954260E-01  0.51100000000E-03 0.  1.
         11    1    4    4    0    0  0.22926969893E-01  0.37423368412E-01 -0.77499390207E-01  0.89064982205E-01  0.51100000000E-03 0. -1.
</event>
<event>
 8    1  0.1064884E+005  0.1043930E+01  0.7957747E-01            NaN
         13   -1    0    0    0    0  0.00000000000E+00  0.00000000000E+00  0.74505805969E-08  0.10566000000E+00  0.10566000000E+00 0.  1.
     999900   -1    0    0    0    0 -0.00000000000E+00 -0.00000000000E+00 -0.74505805969E-08  0.93827000000E+00  0.93827000000E+00 0. -1.
     999902    2    1    2    0    0 -0.22590561672E-01  0.11618655119E-01  0.13476340401E-02  0.10184909996E+01  0.10181732532E+01 0.  0.
     999903    2    3    3    0    0 -0.73371825493E-01  0.25184298084E-02  0.10629779183E+00  0.13075450353E+00  0.20192879449E-01 0.  0.
         14    1    1    2    0    0  0.22590561672E-01 -0.11618655119E-01 -0.13476340401E-02  0.25439000392E-01  0.00000000000E+00 0. -1.
     999901    1    3    3    0    0  0.50781263821E-01  0.91002253102E-02 -0.10495015779E+00  0.88773649608E+00  0.88000000000E+00 0. -1.
        -11    1    4    4    0    0 -0.42715377803E-01 -0.81449007030E-02  0.65409841987E-01  0.78547128898E-01  0.51100000000E-03 0.  1.
         11    1    4    4    0    0 -0.30656447690E-01  0.10663330511E-01  0.40887949840E-01  0.52207374629E-01  0.51100000000E-03 0. -1.
</event>
<event>
 8    1  0.1064884E+005  0.1043930E+01  0.7957747E-01            NaN
         13   -1    0    0    0    0  0.00000000000E+00  0.00000000000E+00  0.74505805969E-08  0.10566000000E+00  0.10566000000E+00 0.  1.
     999900   -1    0    0    0    0 -0.00000000000E+00 -0.00000000000E+00 -0.74505805969E-08  0.93827000000E+00  0.93827000000E+00 0.  1.
     999902    2    1    2    0    0 -0.17802877992E-01  0.13452845939E-01 -0.79667241849E-02  0.10202363253E+01  0.10199611606E+01 0.  0.
     999903    2    3    3    0    0 -0.41767635940E-01  0.54105606688E-01  0.11007503310E+00  0.13110145751E+00  0.19978167151E-01 0.  0.
         14    1    1    2    0    0  0.17802877992E-01 -0.13452845939E-01  0.79667241849E-02  0.23693674744E-01  0.00000000000E+00 0. -1.
     999901    1    3    3    0    0  0.23964757948E-01 -0.40652760749E-01 -0.11804175728E+00  0.88913486775E+00  0.88000000000E+00 0.  1.
        -11    1    4    4    0    0 -0.38246136174E-01  0.52572133504E-01  0.92236336322E-01  0.11284679443E+00  0.51100000000E-03 0.  1.
         11    1    4    4    0    0 -0.35214997658E-02  0.15334731834E-02  0.17838696775E-01  0.18254663082E-01  0.51100000000E-03 0. -1.
</event>
<event>
 7    1  0.1064884E+005  0.1043930E+01  0.7957747E-01            NaN
         13   -1    0    0    0    0  0.00000000000E+00  0.00000000000E+00  0.74505805969E-08  0.10566000000E+00  0.10566000000E+00 0.  1.
     999900   -1    0    0    0    0 -0.00000000000E+00 -0.00000000000E+00 -0.74505805969E-08  0.93827000000E+00  0.93827000000E+00 0.  1.
     999902    2    1    2    0    0  0.21159669195E-01 -0.47114600401E-02  0.89600883536E-02  0.10204733882E+01  0.10202037656E+01 0.  0.
         14    1    1    2    0    0 -0.21159669195E-01  0.47114600401E-02 -0.89600883536E-02  0.23456611850E-01  0.00000000000E+00 0.  1.
     999901    1    3    3    0    0 -0.47590362996E-01  0.95464397250E-02  0.11094814347E+00  0.88829357067E+00  0.88000000000E+00 0. -1.
        -11    1    3    3    0    0  0.68838184140E-01 -0.12769642109E-01 -0.66196242498E-01  0.96353323747E-01  0.51100000000E-03 0. -1.
         11    1    3    3    0    0 -0.88151948882E-04 -0.14882576565E-02 -0.35791812616E-01  0.35826493730E-01  0.51100000000E-03 0.  1.
</event>
<event>
 7    1  0.1064884E+005  0.1043930E+01  0.7957747E-01            NaN
         13   -1    0    0    0    0  0.00000000000E+00  0.00000000000E+00  0.74505805969E-08  0.10566000000E+00  0.10566000000E+00 0. -1.
     999900   -1    0    0    0    0 -0.00000000000E+00 -0.00000000000E+00 -0.74505805969E-08  0.93827000000E+00  0.93827000000E+00 0.  1.
     999903    2    1    2    0    0 -0.11106940929E+00 -0.18095234760E-01 -0.11536555681E-01  0.11473736297E+00  0.19176004392E-01 0.  0.
         14    1    1    2    0    0 -0.20660997497E-01  0.32229998924E-01 -0.77775161920E-02  0.39065834259E-01  0.00000000000E+00 0. -1.
     999901    1    1    2    0    0  0.13173040679E+00 -0.14134764164E-01  0.19314071873E-01  0.89012680277E+00  0.88000000000E+00 0. -1.
        -11    1    3    3    0    0 -0.63769041734E-01 -0.12349313654E-01  0.26797495134E-02  0.65011063750E-01  0.51100000000E-03 0.  1.
         11    1    3    3    0    0 -0.47300367556E-01 -0.57459211055E-02 -0.14216305194E-01  0.49726299225E-01  0.51100000000E-03 0. -1.
</event>
<event>
 8    1  0.1064884E+005  0.1043930E+01  0.7957747E-01            NaN
         13   -1    0    0    0    0  0.00000000000E+00  0.00000000000E+00  0.74505805969E-08  0.10566000000E+00  0.10566000000E+00 0. -1.
     999900   -1    0    0    0    0 -0.00000000000E+00 -0.00000000000E+00 -0.74505805969E-08  0.93827000000E+00  0.93827000000E+00 0.  1.
     999902    2    1    2    0    0 -0.10509623119E-01 -0.82618703648E-02  0.21375840432E-01  0.10187181529E+01  0.10184061262E+01 0.  0.
     999903    2    3    3    0    0 -0.11823426875E+00 -0.13920226927E-01 -0.47048255318E-01  0.12949463030E+00  0.19550087551E-01 0.  0.
         14    1    1    2    0    0  0.10509623119E-01  0.82618703648E-02 -0.21375840432E-01  0.25211847100E-01  0.00000000000E+00 0.  1.
     999901    1    3    3    0    0  0.10772464563E+00  0.56583565618E-02  0.68424095750E-01  0.88922352260E+00  0.88000000000E+00 0. -1.
        -11    1    4    4    0    0 -0.53681092314E-01  0.22452609686E-02 -0.26047008367E-01  0.59711042821E-01  0.51100000000E-03 0. -1.
         11    1    4    4    0    0 -0.64553176431E-01 -0.16165487895E-01 -0.21001246951E-01  0.69783587474E-01  0.51100000000E-03 0.  1.
</event>
<event>
 8    1  0.1064884E+005  0.1043930E+01  0.7957747E-01            NaN
         13   -1    0    0    0    0  0.00000000000E+00  0.00000000000E+00  0.74505805969E-08  0.10566000000E+00  0.10566000000E+00 0.  1.
     999900   -1    0    0    0    0 -0.00000000000E+00 -0.00000000000E+00 -0.74505805969E-08  0.93827000000E+00  0.93827000000E+00 0.  1.
     999902    2    1    2    0    0 -0.20199252943E-01  0.12101300173E-01  0.39933257490E-02  0.10200469948E+01  0.10197673626E+01 0.  0.
     999903    2    3    3    0    0 -0.32132782688E-01  0.70010341212E-01  0.10552124770E+00  0.13223857794E+00  0.20453463787E-01 0.  0.
         14    1    1    2    0    0  0.20199252943E-01 -0.12101300173E-01 -0.39933257490E-02  0.23883005168E-01  0.00000000000E+00 0.  1.
     999901    1    3    3    0    0  0.11933529745E-01 -0.57909041039E-01 -0.10152792195E+00  0.88780841689E+00  0.88000000000E+00 0.  1.
        -11    1    4    4    0    0 -0.23458175324E-01  0.66112764206E-01  0.93950798893E-01  0.11725270707E+00  0.51100000000E-03 0.  1.
         11    1    4    4    0    0 -0.86746073633E-02  0.38975770062E-02  0.11570448803E-01  0.14985870877E-01  0.51100000000E-03 0. -1.
</event>
<event>
 8    1  0.1064884E+005  0.1043930E+01  0.7957747E-01            NaN
         13   -1    0    0    0    0  0.00000000000E+00  0.00000000000E+00  0.74505805969E-08  0.10566000000E+00  0.10566000000E+00 0.  1.
     999900   -1    0    0    0    0 -0.00000000000E+00 -0.00000000000E+00 -0.74505805969E-08  0.93827000000E+00  0.93827000000E+00 0.  1.
     999902    2    1    2    0    0 -0.48725886456E-02  0.12115656525E-01  0.20205016139E-01  0.10198722792E+01  0.10195884915E+01 0.  0.
     999903    2    3    3    0    0 -0.49978244160E-01 -0.18328322110E-02  0.12116740925E+00  0.13284213015E+00  0.21547768206E-01 0.  0.
         14    1    1    2    0    0  0.48725886456E-02 -0.12115656525E-01 -0.20205016139E-01  0.24057720805E-01  0.00000000000E+00 0. -1.
     999901    1    3    3    0    0  0.45105655515E-01  0.13948488736E-01 -0.10096239311E+00  0.88703014905E+00  0.88000000000E+00 0.  1.
        -11    1    4    4    0    0 -0.49516288343E-01 -0.44875271992E-02  0.10193545646E+00  0.11341560350E+00  0.51100000000E-03 0. -1.
         11    1    4    4    0    0 -0.46195581765E-03  0.26546949882E-02  0.19231952789E-01  0.19426526651E-01  0.51100000000E-03 0.  1.
</event>
<event>
 8    1  0.1064884E+005  0.1043930E+01  0.7957747E-01            NaN
         13   -1    0    0    0    0  0.00000000000E+00  0.00000000000E+00  0.74505805969E-08  0.10566000000E+00  0.10566000000E+00 0. -1.
     999900   -1    0    0    0    0 -0.00000000000E+00 -0.00000000000E+00 -0.74505805969E-08  0.93827000000E+00  0.93827000000E+00 0.  1.
     999902    2    1    2    0    0  0.48839557128E-02 -0.10716106672E-01  0.18333953164E-01  0.10221395938E+01  0.10219072988E+01 0.  0.
     999903    2    3    3    0    0 -0.68811415487E-01  0.90348025777E-01  0.66277003165E-01  0.13200280503E+00  0.11589768058E-01 0.  0.
         14    1    1    2    0    0 -0.48839557128E-02  0.10716106672E-01 -0.18333953164E-01  0.21790406243E-01  0.00000000000E+00 0.  1.
     999901    1    3    3    0    0  0.73695371200E-01 -0.10106413245E+00 -0.47943050000E-01  0.89013678873E+00  0.88000000000E+00 0.  1.
        -11    1    4    4    0    0 -0.55784072609E-01  0.77235015175E-01  0.59394305101E-01  0.11227223577E+00  0.51100000000E-03 0. -1.
         11    1    4    4    0    0 -0.13027342879E-01  0.13113010603E-01  0.68826980639E-02  0.19730569256E-01  0.51100000000E-03 0.  1.
</event>
<event>
 8    1  0.1064884E+005  0.1043930E+01  0.7957747E-01            NaN
         13   -1    0    0    0    0  0.00000000000E+00  0.00000000000E+00  0.74505805969E-08  0.10566000000E+00  0.10566000000E+00 0.  1.
     999900   -1    0    0    0    0 -0.00000000000E+00 -0.00000000000E+00 -0.74505805969E-08  0.93827000000E+00  0.93827000000E+00 0.  1.
     999902    2    1    2    0    0 -0.24681883400E-01  0.43759058810E-02 -0.61031375761E-02  0.10181309262E+01  0.10178040041E+01 0.  0.
     999903    2    3    3    0    0 -0.10071421768E+00 -0.76697222606E-01  0.24687852488E-01  0.13060523470E+00  0.20552850701E-01 0.  0.
         14    1    1    2    0    0  0.24681883400E-01 -0.43759058810E-02  0.61031375761E-02  0.25799073796E-01  0.00000000000E+00 0.  1.
     999901    1    3    3    0    0  0.76032334275E-01  0.81073128487E-01 -0.30790990064E-01  0.88752569151E+00  0.88000000000E+00 0.  1.
        -11    1    4    4    0    0 -0.19504912508E-01 -0.13788114376E-01  0.13044478313E-01  0.27220823747E-01  0.51100000000E-03 0. -1.
         11    1    4    4    0    0 -0.81209305167E-01 -0.62909108229E-01  0.11643374175E-01  0.10338441095E+00  0.51100000000E-03 0.  1.
</event>
<event>
 8    1  0.1064884E+005  0.1043930E+01  0.7957747E-01            NaN
         13   -1    0    0    0    0  0.00000000000E+00  0.00000000000E+00  0.74505805969E-08  0.10566000000E+00  0.10566000000E+00 0.  1.
     999900   -1    0    0    0    0 -0.00000000000E+00 -0.00000000000E+00 -0.74505805969E-08  0.93827000000E+00  0.93827000000E+00 0.  1.
     999902    2    1    2    0    0  0.12067089580E-01  0.96463124337E-02  0.17070544021E-02  0.10283871550E+01  0.10282696926E+01 0.  0.
     999903    2    3    3    0    0 -0.68993794171E-01  0.90971075143E-01 -0.74138797402E-01  0.13769238289E+00  0.20657949569E-01 0.  0.
         14    1    1    2    0    0 -0.12067089580E-01 -0.96463124337E-02 -0.17070544021E-02  0.15542844953E-01  0.00000000000E+00 0. -1.
     999901    1    3    3    0    0  0.81060883750E-01 -0.81324762709E-01  0.75845851804E-01  0.89069477215E+00  0.88000000000E+00 0. -1.
        -11    1    4    4    0    0 -0.26016275957E-01  0.19580373509E-01 -0.23830873086E-01  0.40353553430E-01  0.51100000000E-03 0. -1.
         11    1    4    4    0    0 -0.42977518214E-01  0.71390701633E-01 -0.50307924316E-01  0.97338829464E-01  0.51100000000E-03 0.  1.
</event>
<event>
 8    1  0.1064884E+005  0.1043930E+01  0.7957747E-01            NaN
         13   -1    0    0    0    0  0.00000000000E+00  0.00000000000E+00  0.74505805969E-08  0.10566000000E+00  0.10566000000E+00 0.  1.
     999900   -1    0    0    0    0 -0.00000000000E+00 -0.00000000000E+00 -0.74505805969E-08  0.93827000000E+00  0.93827000000E+00 0.  1.
     999902    2    1    2    0    0  0.20069137276E-01 -0.33900084239E-02  0.12045942232E-01  0.10202790560E+01  0.10200048946E+01 0.  0.
     999903    2    3    3    0    0 -0.95601216022E-01  0.82481344999E-01  0.13583454708E-01  0.12856391991E+00  0.20035131241E-01 0.  0.
         14    1    1    2    0    0 -0.20069137276E-01  0.33900084239E-02 -0.12045942232E-01  0.23650944006E-01  0.00000000000E+00 0. -1.
     999901    1    3    3    0    0  0.11567035330E+00 -0.85871353423E-01 -0.15375124764E-02  0.89171513608E+00  0.88000000000E+00 0. -1.
        -11    1    4    4    0    0 -0.80429542833E-01  0.66210492677E-01  0.37767677718E-02  0.10424617881E+00  0.51100000000E-03 0.  1.
         11    1    4    4    0    0 -0.15171673188E-01  0.16270852322E-01  0.98066869365E-02  0.24317741102E-01  0.51100000000E-03 0. -1.
</event>
<event>
 8    1  0.1064884E+005  0.1043930E+01  0.7957747E-01            NaN
         13   -1    0    0    0    0  0.00000000000E+00  0.00000000000E+00  0.74505805969E-08  0.10566000000E+00  0.10566000000E+00 0.  1.
     999900   -1    0    0    0    0 -0.00000000000E+00 -0.00000000000E+00 -0.74505805969E-08  0.93827000000E+00  0.93827000000E+00 0.  1.
     999902    2    1    2    0    0  0.22546887304E-01  0.50945421050E-02 -0.65753640740E-02  0.10198976905E+01  0.10196145091E+01 0.  0.
     999903    2    3    3    0    0  0.28481019203E-01  0.44732231862E-01  0.11722409680E+00  0.13032888099E+00  0.20784304843E-01 0.  0.
         14    1    1    2    0    0 -0.22546887304E-01 -0.50945421050E-02  0.65753640740E-02  0.24032309483E-01  0.00000000000E+00 0.  1.
     999901    1    3    3    0    0 -0.59341318986E-02 -0.39637689757E-01 -0.12379946087E+00  0.88956880953E+00  0.88000000000E+00 0.  1.
        -11    1    4    4    0    0  0.16540354969E-01  0.10735695825E-01  0.29455094717E-01  0.35449996236E-01  0.51100000000E-03 0. -1.
         11    1    4    4    0    0  0.11940664234E-01  0.33996536037E-01  0.87769002081E-01  0.94878884754E-01  0.51100000000E-03 0.  1.
</event>
<event>
 8    1  0.1064884E+005  0.1043930E+01  0.7957747E-01            NaN
         13   -1    0    0    0    0  0.00000000000E+00  0.00000000000E+00  0.74505805969E-08  0.10566000000E+00  0.10566000000E+00 0.  1.
     999900   -1    0    0    0    0 -0.00000000000E+00 -0.00000000000E+00 -0.74505805969E-08  0.93827000000E+00  0.93827000000E+00 0.  1.
     999902    2    1    2    0    0 -0.11014791957E-01  0.95867720126E-02 -0.14583334152E-01  0.10232925226E+01  0.10230843960E+01 0.  0.
     999903    2    3    3    0    0 -0.85617274764E-02  0.88729020194E-01 -0.10052437260E+00  0.13556769186E+00  0.18091638660E-01 0.  0.
         14    1    1    2    0    0  0.11014791957E-01 -0.95867720126E-02  0.14583334152E-01  0.20637477425E-01  0.00000000000E+00 0.  1.
     999901    1    3    3    0    0 -0.24530644802E-02 -0.79142248182E-01  0.85941038444E-01  0.88772483071E+00  0.88000000000E+00 0. -1.
        -11    1    4    4    0    0  0.11317872080E-02  0.13990748195E-01 -0.77603810187E-02  0.16047012553E-01  0.51100000000E-03 0. -1.
         11    1    4    4    0    0 -0.96935146844E-02  0.74738271999E-01 -0.92763991578E-01  0.11952067931E+00  0.51100000000E-03 0.  1.
</event>
<event>
 8    1  0.1064884E+005  0.1043930E+01  0.7957747E-01            NaN
         13   -1    0    0    0    0  0.00000000000E+00  0.00000000000E+00  0.74505805969E-08  0.10566000000E+00  0.10566000000E+00 0.  1.
     999900   -1    0    0    0    0 -0.00000000000E+00 -0.00000000000E+00 -0.74505805969E-08  0.93827000000E+00  0.93827000000E+00 0. -1.
     999902    2    1    2    0    0 -0.24435191748E-01  0.51341891134E-02  0.18766142783E-02  0.10188908272E+01  0.10185831127E+01 0.  0.
     999903    2    3    3    0    0  0.58360269622E-01 -0.75652665186E-01  0.82488300605E-01  0.12766703475E+00  0.19112959070E-01 0.  0.
         14    1    1    2    0    0  0.24435191748E-01 -0.51341891134E-02 -0.18766142783E-02  0.25039172805E-01  0.00000000000E+00 0. -1.
     999901    1    3    3    0    0 -0.82795461370E-01  0.80786854300E-01 -0.80611686327E-01  0.89122379245E+00  0.88000000000E+00 0.  1.
        -11    1    4    4    0    0  0.22302477098E-01 -0.42706466520E-01  0.46832215803E-01  0.67191966226E-01  0.51100000000E-03 0.  1.
         11    1    4    4    0    0  0.36057792524E-01 -0.32946198666E-01  0.35656084802E-01  0.60475068521E-01  0.51100000000E-03 0. -1.
</event>
<event>
 8    1  0.1064884E+005  0.1043930E+01  0.7957747E-01            NaN
         13   -1    0    0    0    0  0.00000000000E+00  0.00000000000E+00  0.74505805969E-08  0.10566000000E+00  0.10566000000E+00 0. -1.
     999900   -1    0    0    0    0 -0.00000000000E+00 -0.00000000000E+00 -0.74505805969E-08  0.93827000000E+00  0.93827000000E+00 0.  1.
     999902    2    1    2    0    0  0.17105018034E-01  0.16216768388E-01  0.24953806991E-02  0.10202278452E+01  0.10199524812E+01 0.  0.
     999903    2    3    3    0    0 -0.11040401063E+00 -0.49807349646E-01  0.35820461827E-01  0.12796762663E+00  0.20561866084E-01 0.  0.
         14    1    1    2    0    0 -0.17105018034E-01 -0.16216768388E-01 -0.24953806991E-02  0.23702154833E-01  0.00000000000E+00 0.  1.
     999901    1    3    3    0    0  0.12750902867E+00  0.66024118033E-01 -0.33325081128E-01  0.89226021854E+00  0.88000000000E+00 0. -1.
        -11    1    4    4    0    0 -0.65554146923E-01 -0.29178398354E-01  0.10618589966E-01  0.72537856897E-01  0.51100000000E-03 0. -1.
         11    1    4    4    0    0 -0.44849863710E-01 -0.20628951292E-01  0.25201871862E-01  0.55429769732E-01  0.51100000000E-03 0.  1.
</event>
<event>
 8    1  0.1064884E+005  0.1043930E+01  0.7957747E-01            NaN
         13   -1    0    0    0    0  0.00000000000E+00  0.00000000000E+00  0.74505805969E-08  0.10566000000E+00  0.10566000000E+00 0. -1.
     999900   -1    0    0    0    0 -0.00000000000E+00 -0.00000000000E+00 -0.74505805969E-08  0.93827000000E+00  0.93827000000E+00 0. -1.
     999902    2    1    2    0    0  0.17342787130E-01  0.12071032119E-01  0.10119630973E-01  0.10205016195E+01  0.10202326531E+01 0.  0.
     999903    2    3    3    0    0 -0.12273564131E-01 -0.11690356826E+00 -0.48216486553E-01  0.12869744906E+00  0.20521188330E-01 0.  0.
         14    1    1    2    0    0 -0.17342787130E-01 -0.12071032119E-01 -0.10119630973E-01  0.23428380501E-01  0.00000000000E+00 0.  1.
     999901    1    3    3    0    0  0.29616351261E-01  0.12897460038E+00  0.58336117526E-01  0.89180417044E+00  0.88000000000E+00 0.  1.
        -11    1    4    4    0    0  0.28973308176E-02 -0.23559856615E-01 -0.31918803095E-02  0.23956431088E-01  0.51100000000E-03 0.  1.
         11    1    4    4    0    0 -0.15170894948E-01 -0.93343711645E-01 -0.45024606243E-01  0.10474101797E+00  0.51100000000E-03 0. -1.
</event>
<event>
 8    1  0.1064884E+005  0.1043930E+01  0.7957747E-01            NaN
         13   -1    0    0    0    0  0.00000000000E+00  0.00000000000E+00  0.74505805969E-08  0.10566000000E+00  0.10566000000E+00 0.  1.
     999900   -1    0    0    0    0 -0.00000000000E+00 -0.00000000000E+00 -0.74505805969E-08  0.93827000000E+00  0.93827000000E+00 0. -1.
     999902    2    1    2    0    0  0.14760698672E-01 -0.18222015030E-01 -0.91428183442E-03  0.10204618094E+01  0.10201919175E+01 0.  0.
     999903    2    3    3    0    0  0.40526882715E-01 -0.12552820592E+00  0.57793410798E-02  0.13354393306E+00  0.20020553673E-01 0.  0.
         14    1    1    2    0    0 -0.14760698672E-01  0.18222015030E-01  0.91428183442E-03  0.23468190563E-01  0.00000000000E+00 0. -1.
     999901    1    3    3    0    0 -0.25766184043E-01  0.10730619089E+00 -0.66936229142E-02  0.88691787637E+00  0.88000000000E+00 0. -1.
        -11    1    4    4    0    0  0.10547675799E-01 -0.62432865276E-01  0.67627130209E-02  0.63679757693E-01  0.51100000000E-03 0.  1.
         11    1    4    4    0    0  0.29979206916E-01 -0.63095340648E-01 -0.98337194109E-03  0.69864175370E-01  0.51100000000E-03 0. -1.
</event>
<event>
 8    1  0.1064884E+005  0.1043930E+01  0.7957747E-01            NaN
         13   -1    0    0    0    0  0.00000000000E+00  0.00000000000E+00  0.74505805969E-08  0.10566000000E+00  0.10566000000E+00 0.  1.
     999900   -1    0    0    0    0 -0.00000000000E+00 -0.00000000000E+00 -0.74505805969E-08  0.93827000000E+00  0.93827000000E+00 0. -1.
     999902    2    1    2    0    0 -0.90730790595E-02 -0.14272985276E-01 -0.17745685451E-01  0.10194157547E+01  0.10191209607E+01 0.  0.
     999903    2    3    3    0    0  0.49521881344E-01 -0.26385011577E-01  0.11298967833E+00  0.12774776381E+00  0.20105675355E-01 0.  0.
         14    1    1    2    0    0  0.90730790595E-02  0.14272985276E-01  0.17745685451E-01  0.24514245337E-01  0.00000000000E+00 0.  1.
     999901    1    3    3    0    0 -0.58594960403E-01  0.12112026301E-01 -0.13073536378E+00  0.89166799085E+00  0.88000000000E+00 0. -1.
        -11    1    4    4    0    0  0.23173759371E-01 -0.46899230281E-02  0.62288140044E-01  0.66626511334E-01  0.51100000000E-03 0. -1.
         11    1    4    4    0    0  0.26348121972E-01 -0.21695088549E-01  0.50701538289E-01  0.61121252478E-01  0.51100000000E-03 0.  1.
</event>
<event>
 8    1  0.1064884E+005  0.1043930E+01  0.7957747E-01            NaN
         13   -1    0    0    0    0  0.00000000000E+00  0.00000000000E+00  0.74505805969E-08  0.10566000000E+00  0.10566000000E+00 0.  1.
     999900   -1    0    0    0    0 -0.00000000000E+00 -0.00000000000E+00 -0.74505805969E-08  0.93827000000E+00  0.93827000000E+00 0. -1.
     999902    2    1    2    0    0 -0.21128280784E-02  0.24469915311E-01  0.53380048464E-02  0.10187956591E+01  0.10184855718E+01 0.  0.
     999903    2    3    3    0    0 -0.81325083028E-02  0.19996371812E-01  0.12706558275E+00  0.13038480122E+00  0.19711455835E-01 0.  0.
         14    1    1    2    0    0  0.21128280784E-02 -0.24469915311E-01 -0.53380048464E-02  0.25134340922E-01  0.00000000000E+00 0. -1.
     999901    1    3    3    0    0  0.60196802245E-02  0.44735434996E-02 -0.12172757791E+00  0.88841085786E+00  0.88000000000E+00 0. -1.
        -11    1    4    4    0    0  0.11411868165E-02 -0.26437003218E-02  0.35017548233E-01  0.35139454521E-01  0.51100000000E-03 0.  1.
         11    1    4    4    0    0 -0.92736951193E-02  0.22640072133E-01  0.92048034520E-01  0.95245346697E-01  0.51100000000E-03 0. -1.
</event>
<event>
 8    1  0.1064884E+005  0.1043930E+01  0.7957747E-01            NaN
         13   -1    0    0    0    0  0.00000000000E+00  0.00000000000E+00  0.74505805969E-08  0.10566000000E+00  0.10566000000E+00 0. -1.
     999900   -1    0    0    0    0 -0.00000000000E+00 -0.00000000000E+00 -0.74505805969E-08  0.93827000000E+00  0.93827000000E+00 0. -1.
     999902    2    1    2    0    0  0.19317558333E-01  0.12574850803E-01  0.31046486827E-02  0.10206720169E+01  0.10204069935E+01 0.  0.
     999903    2    3    3    0    0  0.48161395967E-01 -0.48091204379E-01 -0.11007604178E+00  0.13088428612E+00  0.19536565207E-01 0.  0.
         14    1    1    2    0    0 -0.19317558333E-01 -0.12574850803E-01 -0.31046486827E-02  0.23257983062E-01  0.00000000000E+00 0. -1.
     999901    1    3    3    0    0 -0.28843837634E-01  0.60666055182E-01  0.11318069046E+00  0.88978773082E+00  0.88000000000E+00 0.  1.
        -11    1    4    4    0    0  0.11794634232E-01 -0.18053110876E-02 -0.18370974707E-01  0.21911786268E-01  0.51100000000E-03 0. -1.
         11    1    4    4    0    0  0.36366761735E-01 -0.46285893291E-01 -0.91705067069E-01  0.10897249985E+00  0.51100000000E-03 0.  1.
</event>
<event>
 8    1  0.1064884E+005  0.1043930E+01  0.7957747E-01            NaN
         13   -1    0    0    0    0  0.00000000000E+00  0.00000000000E+00  0.74505805969E-08  0.10566000000E+00  0.10566000000E+00 0. -1.
     999900   -1    0    0    0    0 -0.00000000000E+00 -0.00000000000E+00 -0.74505805969E-08  0.93827000000E+00  0.93827000000E+00 0. -1.
     999902    2    1    2    0    0 -0.20103065245E-01 -0.11271743626E-01 -0.62070119542E-02  0.10200613504E+01  0.10197820582E+01 0.  0.
     999903    2    3    3    0    0  0.76506257841E-01 -0.55491120591E-01  0.85178971252E-01  0.12897206613E+00  0.21115509574E-01 0.  0.
         14    1    1    2    0    0  0.20103065245E-01  0.11271743626E-01  0.62070119542E-02  0.23868649606E-01  0.00000000000E+00 0. -1.
     999901    1    3    3    0    0 -0.96609323086E-01  0.44219376965E-01 -0.91385983207E-01  0.89108928427E+00  0.88000000000E+00 0. -1.
        -11    1    4    4    0    0  0.30147523222E-01 -0.31227234461E-01  0.48390670359E-01  0.65007164430E-01  0.51100000000E-03 0.  1.
         11    1    4    4    0    0  0.46358734619E-01 -0.24263886130E-01  0.36788300893E-01  0.63964901698E-01  0.51100000000E-03 0. -1.
</event>
<event>
 8    1  0.1064884E+005  0.1043930E+01  0.7957747E-01            NaN
         13   -1    0    0    0    0  0.00000000000E+00  0.00000000000E+00  0.74505805969E-08  0.10566000000E+00  0.10566000000E+00 0.  1.
     999900   -1    0    0    0    0 -0.00000000000E+00 -0.00000000000E+00 -0.74505805969E-08  0.93827000000E+00  0.93827000000E+00 0.  1.
     999902    2    1    2    0    0  0.89274951262E-02 -0.84884317570E-02  0.20248902697E-01  0.10202282764E+01  0.10199529225E+01 0.  0.
     999903    2    3    3    0    0  0.54686109643E-01  0.85043716427E-01  0.82691163650E-01  0.13189210717E+00  0.18294673982E-01 0.  0.
         14    1    1    2    0    0 -0.89274951262E-02  0.84884317570E-02 -0.20248902697E-01  0.23701723637E-01  0.00000000000E+00 0. -1.
     999901    1    3    3    0    0 -0.45758614517E-01 -0.93532148184E-01 -0.62442260953E-01  0.88833616919E+00  0.88000000000E+00 0. -1.
        -11    1    4    4    0    0  0.51671692728E-01  0.70153944629E-01  0.65921469176E-01  0.10925859690E+00  0.51100000000E-03 0.  1.
         11    1    4    4    0    0  0.30144169156E-02  0.14889771798E-01  0.16769694474E-01  0.22633510273E-01  0.51100000000E-03 0. -1.
</event>
<event>
 8    1  0.1064884E+005  0.1043930E+01  0.7957747E-01            NaN
         13   -1    0    0    0    0  0.00000000000E+00  0.00000000000E+00  0.74505805969E-08  0.10566000000E+00  0.10566000000E+00 0.  1.
     999900   -1    0    0    0    0 -0.00000000000E+00 -0.00000000000E+00 -0.74505805969E-08  0.93827000000E+00  0.93827000000E+00 0.  1.
     999902    2    1    2    0    0 -0.14177062140E-01 -0.76626756834E-02 -0.16442180119E-01  0.10209071640E+01  0.10206475330E+01 0.  0.
     999903    2    3    3    0    0 -0.45014408332E-01  0.11070782949E+00  0.47234341108E-01  0.13016746143E+00  0.20735586992E-01 0.  0.
         14    1    1    2    0    0  0.14177062140E-01  0.76626756834E-02  0.16442180119E-01  0.23022835981E-01  0.00000000000E+00 0.  1.
     999901    1    3    3    0    0  0.30837346193E-01 -0.11837050517E+00 -0.63676521227E-01  0.89073970259E+00  0.88000000000E+00 0.  1.
        -11    1    4    4    0    0 -0.15032907646E-02  0.24642815529E-01  0.12370466586E-01  0.27619156484E-01  0.51100000000E-03 0. -1.
         11    1    4    4    0    0 -0.43511117568E-01  0.86065013957E-01  0.34863874522E-01  0.10254830495E+00  0.51100000000E-03 0.  1.
</event>
<event>
 8    1  0.1064884E+005  0.1043930E+01  0.7957747E-01            NaN
         13   -1    0    0    0    0  0.00000000000E+00  0.00000000000E+00  0.74505805969E-08  0.10566000000E+00  0.10566000000E+00 0. -1.
     999900   -1    0    0    0    0 -0.00000000000E+00 -0.00000000000E+00 -0.74505805969E-08  0.93827000000E+00  0.93827000000E+00 0.  1.
     999902    2    1    2    0    0 -0.50345579715E-02  0.11096191751E-01  0.21095388215E-01  0.10195683981E+01  0.10192773080E+01 0.  0.
     999903    2    3    3    0    0 -0.34963473107E-01 -0.87383558622E-01  0.88687056420E-01  0.13099502753E+00  0.20879954317E-01 0.  0.
         14    1    1    2    0    0  0.50345579715E-02 -0.11096191751E-01 -0.21095388215E-01  0.24361601945E-01  0.00000000000E+00 0.  1.
     999901    1    3    3    0    0  0.29928915136E-01  0.98479750373E-01 -0.67591668204E-01  0.88857337052E+00  0.88000000000E+00 0.  1.
        -11    1    4    4    0    0 -0.26048915111E-01 -0.46762402942E-01  0.39184463504E-01  0.66339668438E-01  0.51100000000E-03 0. -1.
         11    1    4    4    0    0 -0.89145579961E-02 -0.40621155680E-01  0.49502592916E-01  0.64655359093E-01  0.51100000000E-03 0.  1.
</event>
<event>
 8    1  0.1188598E+005  0.1043930E+01  0.7957747E-01            NaN
         13   -1    0    0    0    0  0.00000000000E+00  0.00000000000E+00  0.74505805969E-08  0.10566000000E+00  0.10566000000E+00 0.  1.
     999900   -1    0    0    0    0 -0.00000000000E+00 -0.00000000000E+00 -0.74505805969E-08  0.93827000000E+00  0.93827000000E+00 0. -1.
     999902    2    1    2    0    0  0.18992980627E-01  0.13682125390E-01  0.61451574710E-02  0.10197288259E+01  0.10194416028E+01 0.  0.
     999903    2    3    3    0    0 -0.26975147673E-01 -0.10896858264E+00 -0.59325868995E-01  0.12762865196E+00  0.12950037690E-01 0.  0.
         14    1    1    2    0    0 -0.18992980627E-01 -0.13682125390E-01 -0.61451574710E-02  0.24201174117E-01  0.00000000000E+00 0. -1.
     999901    1    3    3    0    0  0.45968128301E-01  0.12265070803E+00  0.65471026466E-01  0.89210017392E+00  0.88000000000E+00 0.  1.
        -11    1    4    4    0    0 -0.74420566325E-02 -0.42749920231E-01 -0.16757499012E-01  0.46518972267E-01  0.51100000000E-03 0.  1.
         11    1    4    4    0    0 -0.19533091041E-01 -0.66218662407E-01 -0.42568369983E-01  0.81109679697E-01  0.51100000000E-03 0. -1.
</event>
<event>
 8    1  0.1064884E+005  0.1043930E+01  0.7957747E-01            NaN
         13   -1    0    0    0    0  0.00000000000E+00  0.00000000000E+00  0.74505805969E-08  0.10566000000E+00  0.10566000000E+00 0.  1.
     999900   -1    0    0    0    0 -0.00000000000E+00 -0.00000000000E+00 -0.74505805969E-08  0.93827000000E+00  0.93827000000E+00 0.  1.
     999902    2    1    2    0    0 -0.41305064398E-02 -0.46167057326E-02  0.23460008941E-01  0.10196658892E+01  0.10193771522E+01 0.  0.
     999903    2    3    3    0    0 -0.63083768262E-02 -0.11870904009E+00 -0.47213914350E-01  0.12948803766E+00  0.20158530958E-01 0.  0.
         14    1    1    2    0    0  0.41305064398E-02  0.46167057326E-02 -0.23460008941E-01  0.24264110839E-01  0.00000000000E+00 0. -1.
     999901    1    3    3    0    0  0.21778703864E-02  0.11409233436E+00  0.70673923291E-01  0.89017785151E+00  0.88000000000E+00 0. -1.
        -11    1    4    4    0    0  0.21239052833E-02 -0.98246858113E-01 -0.41118735565E-01  0.10652683999E+00  0.51100000000E-03 0.  1.
         11    1    4    4    0    0 -0.84322821095E-02 -0.20462181976E-01 -0.60951787850E-02  0.22961197665E-01  0.51100000000E-03 0. -1.
</event>
<event>
 8    1  0.1064884E+005  0.1043930E+01  0.7957747E-01            NaN
         13   -1    0    0    0    0  0.00000000000E+00  0.00000000000E+00  0.74505805969E-08  0.10566000000E+00  0.10566000000E+00 0.  1.
     999900   -1    0    0    0    0 -0.00000000000E+00 -0.00000000000E+00 -0.74505805969E-08  0.93827000000E+00  0.93827000000E+00 0.  1.
     999902    2    1    2    0    0  0.22334890532E-01 -0.95089760099E-02 -0.10258791328E-02  0.10196334902E+01  0.10193439724E+01 0.  0.
     999903    2    3    3    0    0  0.35965298833E-01 -0.40517383231E-01 -0.11804823820E+00  0.13124081697E+00  0.18804372715E-01 0.  0.
         14    1    1    2    0    0 -0.22334890532E-01  0.95089760099E-02  0.10258791328E-02  0.24296509787E-01  0.00000000000E+00 0.  1.
     999901    1    3    3    0    0 -0.13630408301E-01  0.31008407221E-01  0.11702235907E+00  0.88839267324E+00  0.88000000000E+00 0. -1.
        -11    1    4    4    0    0  0.10564587015E-01 -0.24875326521E-01 -0.47681372188E-01  0.54810279538E-01  0.51100000000E-03 0. -1.
         11    1    4    4    0    0  0.25400711819E-01 -0.15642056710E-01 -0.70366866011E-01  0.76430537433E-01  0.51100000000E-03 0.  1.
</event>
<event>
 8    1  0.1064884E+005  0.1043930E+01  0.7957747E-01            NaN
         13   -1    0    0    0    0  0.00000000000E+00  0.00000000000E+00  0.74505805969E-08  0.10566000000E+00  0.10566000000E+00 0. -1.
     999900   -1    0    0    0    0 -0.00000000000E+00 -0.00000000000E+00 -0.74505805969E-08  0.93827000000E+00  0.93827000000E+00 0.  1.
     999902    2    1    2    0    0  0.22491506754E-01 -0.12017589097E-02  0.63905864905E-02  0.10205173603E+01  0.10202487594E+01 0.  0.
     999903    2    3    3    0    0  0.78075761005E-01 -0.89684639572E-01  0.54831583679E-01  0.13301222812E+00  0.23379290613E-01 0.  0.
         14    1    1    2    0    0 -0.22491506754E-01  0.12017589097E-02 -0.63905864905E-02  0.23412639668E-01  0.00000000000E+00 0.  1.
     999901    1    3    3    0    0 -0.55584254251E-01  0.88482880662E-01 -0.48440997189E-01  0.88750513221E+00  0.88000000000E+00 0. -1.
        -11    1    4    4    0    0  0.32536418243E-01 -0.55050932127E-01  0.30158282478E-01  0.70703654525E-01  0.51100000000E-03 0. -1.
         11    1    4    4    0    0  0.45539342761E-01 -0.34633707445E-01  0.24673301201E-01  0.62308573597E-01  0.51100000000E-03 0.  1.
</event>
<event>
 8    1  0.1064884E+005  0.1043930E+01  0.7957747E-01            NaN
         13   -1    0    0    0    0  0.00000000000E+00  0.00000000000E+00  0.74505805969E-08  0.10566000000E+00  0.10566000000E+00 0.  1.
     999900   -1    0    0    0    0 -0.00000000000E+00 -0.00000000000E+00 -0.74505805969E-08  0.93827000000E+00  0.93827000000E+00 0. -1.
     999902    2    1    2    0    0  0.13800801804E-01 -0.14250253931E-01 -0.13759131340E-01  0.10197878053E+01  0.10195019972E+01 0.  0.
     999903    2    3    3    0    0  0.62185972894E-02 -0.50775226946E-01  0.11706426287E+00  0.12933492958E+00  0.20166500566E-01 0.  0.
         14    1    1    2    0    0 -0.13800801804E-01  0.14250253931E-01  0.13759131340E-01  0.24142194655E-01  0.00000000000E+00 0.  1.
     999901    1    3    3    0    0  0.75822045147E-02  0.36524973015E-01 -0.13082339421E+00  0.89045287576E+00  0.88000000000E+00 0.  1.
        -11    1    4    4    0    0 -0.19536056432E-02 -0.28249270209E-01  0.82879896689E-01  0.87585251261E-01  0.51100000000E-03 0.  1.
         11    1    4    4    0    0  0.81722029325E-02 -0.22525956738E-01  0.34184366182E-01  0.41749678322E-01  0.51100000000E-03 0. -1.
</event>
<event>
 8    1  0.1064884E+005  0.1043930E+01  0.7957747E-01            NaN
         13   -1    0    0    0    0  0.00000000000E+00  0.00000000000E+00  0.74505805969E-08  0.10566000000E+00  0.10566000000E+00 0. -1.
     999900   -1    0    0    0    0 -0.00000000000E+00 -0.00000000000E+00 -0.74505805969E-08  0.93827000000E+00  0.93827000000E+00 0.  1.
     999902    2    1    2    0    0 -0.17726818563E-02 -0.17666874295E-01 -0.16347593607E-01  0.10197948666E+01  0.10195092276E+01 0.  0.
     999903    2    3    3    0    0 -0.28026995999E-01 -0.46727592475E-01 -0.11918812274E+00  0.13294088267E+00  0.22326873449E-01 0.  0.
         14    1    1    2    0    0  0.17726818563E-02  0.17666874295E-01  0.16347593607E-01  0.24135133417E-01  0.00000000000E+00 0. -1.
     999901    1    3    3    0    0  0.26254314143E-01  0.29060718181E-01  0.10284052914E+00  0.88685398391E+00  0.88000000000E+00 0. -1.
        -11    1    4    4    0    0 -0.35097274014E-02 -0.26946751006E-01 -0.49772389617E-01  0.56709765168E-01  0.51100000000E-03 0.  1.
         11    1    4    4    0    0 -0.24517268597E-01 -0.19780841469E-01 -0.69415733127E-01  0.76231117500E-01  0.51100000000E-03 0. -1.
</event>
<event>
 8    1  0.1064884E+005  0.1043930E+01  0.7957747E-01            NaN
         13   -1    0    0    0    0  0.00000000000E+00  0.00000000000E+00  0.74505805969E-08  0.10566000000E+00  0.10566000000E+00 0.  1.
     999900   -1    0    0    0    0 -0.00000000000E+00 -0.00000000000E+00 -0.74505805969E-08  0.93827000000E+00  0.93827000000E+00 0.  1.
     999902    2    1    2    0    0  0.64839589706E-02 -0.21017769451E-01 -0.10601891748E-01  0.10195130292E+01  0.10192205984E+01 0.  0.
     999903    2    3    3    0    0 -0.10806033404E+00 -0.52983071304E-01 -0.47027308735E-01  0.13076729128E+00  0.20106592567E-01 0.  0.
         14    1    1    2    0    0 -0.64839589706E-02  0.21017769451E-01  0.10601891748E-01  0.24416970845E-01  0.00000000000E+00 0. -1.
     999901    1    3    3    0    0  0.11454429301E+00  0.31965301853E-01  0.36425416986E-01  0.88874573787E+00  0.88000000000E+00 0. -1.
        -11    1    4    4    0    0 -0.39591831250E-01 -0.29108017385E-01 -0.23961527168E-01  0.54673628772E-01  0.51100000000E-03 0.  1.
         11    1    4    4    0    0 -0.68468502790E-01 -0.23875053919E-01 -0.23065781567E-01  0.76093662511E-01  0.51100000000E-03 0. -1.
</event>
<event>
 8    1  0.1064884E+005  0.1043930E+01  0.7957747E-01            NaN
         13   -1    0    0    0    0  0.00000000000E+00  0.00000000000E+00  0.74505805969E-08  0.10566000000E+00  0.10566000000E+00 0.  1.
     999900   -1    0    0    0    0 -0.00000000000E+00 -0.00000000000E+00 -0.74505805969E-08  0.93827000000E+00  0.93827000000E+00 0.  1.
     999902    2    1    2    0    0  0.16334313228E-01  0.18666311301E-01  0.19806870052E-02  0.10190469920E+01  0.10187431511E+01 0.  0.
     999903    2    3    3    0    0 -0.35132270672E-02  0.10933377271E+00  0.70246385395E-01  0.13153658699E+00  0.20027541986E-01 0.  0.
         14    1    1    2    0    0 -0.16334313228E-01 -0.18666311301E-01 -0.19806870052E-02  0.24883008002E-01  0.00000000000E+00 0. -1.
     999901    1    3    3    0    0  0.19847540295E-01 -0.90667461407E-01 -0.68265698390E-01  0.88751040500E+00  0.88000000000E+00 0.  1.
        -11    1    4    4    0    0 -0.36729697683E-02  0.25064264491E-01  0.26204989966E-01  0.36450935263E-01  0.51100000000E-03 0.  1.
         11    1    4    4    0    0  0.15974270102E-03  0.84269508217E-01  0.44041395429E-01  0.95085651731E-01  0.51100000000E-03 0. -1.
</event>
<event>
 8    1  0.1064884E+005  0.1043930E+01  0.7957747E-01            NaN
         13   -1    0    0    0    0  0.00000000000E+00  0.00000000000E+00  0.74505805969E-08  0.10566000000E+00  0.10566000000E+00 0. -1.
     999900   -1    0    0    0    0 -0.00000000000E+00 -0.00000000000E+00 -0.74505805969E-08  0.93827000000E+00  0.93827000000E+00 0.  1.
     999902    2    1    2    0    0 -0.15034627054E-01 -0.37840286998E-02 -0.14320314456E-01  0.10228247805E+01  0.10226070122E+01 0.  0.
     999903    2    3    3    0    0  0.74804745192E-01 -0.91096115494E-01  0.54466024082E-01  0.13129459387E+00  0.19428598489E-01 0.  0.
         14    1    1    2    0    0  0.15034627054E-01  0.37840286998E-02  0.14320314456E-01  0.21105219496E-01  0.00000000000E+00 0. -1.
     999901    1    3    3    0    0 -0.89839372247E-01  0.87312086794E-01 -0.68786338538E-01  0.89153018663E+00  0.88000000000E+00 0.  1.
        -11    1    4    4    0    0  0.22911274825E-01 -0.42808116467E-01  0.23359286557E-01  0.53883009744E-01  0.51100000000E-03 0. -1.
         11    1    4    4    0    0  0.51893470367E-01 -0.48287999027E-01  0.31106737525E-01  0.77411584128E-01  0.51100000000E-03 0.  1.
</event>
<event>
 8    1  0.1064884E+005  0.1043930E+01  0.7957747E-01            NaN
         13   -1    0    0    0    0  0.00000000000E+00  0.00000000000E+00  0.74505805969E-08  0.10566000000E+00  0.10566000000E+00 0. -1.
     999900   -1    0    0    0    0 -0.00000000000E+00 -0.00000000000E+00 -0.74505805969E-08  0.93827000000E+00  0.93827000000E+00 0. -1.
     999902    2    1    2    0    0 -0.13762788060E-01 -0.16911991145E-01 -0.14203630547E-01  0.10179074540E+01  0.10175747697E+01 0.  0.
     999903    2    3    3    0    0  0.20686938974E-01 -0.48688766671E-02 -0.12660256867E+00  0.13000805565E+00  0.20548205146E-01 0.  0.
         14    1    1    2    0    0  0.13762788060E-01  0.16911991145E-01  0.14203630547E-01  0.26022546001E-01  0.00000000000E+00 0.  1.
     999901    1    3    3    0    0 -0.34449727034E-01 -0.12043114478E-01  0.11239893813E+00  0.88789939835E+00  0.88000000000E+00 0.  1.
        -11    1    4    4    0    0  0.72087879578E-02  0.78096121035E-02 -0.36282572812E-01  0.37810618560E-01  0.51100000000E-03 0.  1.
         11    1    4    4    0    0  0.13478151016E-01 -0.12678488771E-01 -0.90319995861E-01  0.92197437089E-01  0.51100000000E-03 0. -1.
</event>
<event>
 8    1  0.1064884E+005  0.1043930E+01  0.7957747E-01            NaN
         13   -1    0    0    0    0  0.00000000000E+00  0.00000000000E+00  0.74505805969E-08  0.10566000000E+00  0.10566000000E+00 0. -1.
     999900   -1    0    0    0    0 -0.00000000000E+00 -0.00000000000E+00 -0.74505805969E-08  0.93827000000E+00  0.93827000000E+00 0. -1.
     999902    2    1    2    0    0  0.12915012525E-01  0.16307846153E-01  0.11078381184E-01  0.10203615057E+01  0.10200892747E+01 0.  0.
     999903    2    3    3    0    0  0.11070918447E+00 -0.36242781287E-01  0.58983316329E-01  0.13209344292E+00  0.19989580709E-01 0.  0.
         14    1    1    2    0    0 -0.12915012525E-01 -0.16307846153E-01 -0.11078381184E-01  0.23568494316E-01  0.00000000000E+00 0.  1.
     999901    1    3    3    0    0 -0.97794171943E-01  0.52550627439E-01 -0.47904935145E-01  0.88826806276E+00  0.88000000000E+00 0.  1.
        -11    1    4    4    0    0  0.92663793846E-01 -0.28452913979E-01  0.40325950949E-01  0.10498852530E+00  0.51100000000E-03 0.  1.
         11    1    4    4    0    0  0.18045390623E-01 -0.77898673081E-02  0.18657365379E-01  0.27104917622E-01  0.51100000000E-03 0. -1.
</event>
<event>
 8    1  0.1064884E+005  0.1043930E+01  0.7957747E-01            NaN
         13   -1    0    0    0    0  0.00000000000E+00  0.00000000000E+00  0.74505805969E-08  0.10566000000E+00  0.10566000000E+00 0.  1.
     999900   -1    0    0    0    0 -0.00000000000E+00 -0.00000000000E+00 -0.74505805969E-08  0.93827000000E+00  0.93827000000E+00 0.  1.
     999902    2    1    2    0    0  0.82554108238E-02  0.13841818911E-01  0.17735166863E-01  0.10199657787E+01  0.10196842187E+01 0.  0.
     999903    2    3    3    0    0  0.34146902204E-01 -0.83325704732E-01  0.92872034878E-01  0.13105777114E+00  0.21017623906E-01 0.  0.
         14    1    1    2    0    0 -0.82554108238E-02 -0.13841818911E-01 -0.17735166863E-01  0.23964221296E-01  0.00000000000E+00 0.  1.
     999901    1    3    3    0    0 -0.25891491380E-01  0.97167523643E-01 -0.75136868015E-01  0.88890800756E+00  0.88000000000E+00 0.  1.
        -11    1    4    4    0    0  0.29417366512E-01 -0.75704857334E-01  0.72820476226E-01  0.10908569913E+00  0.51100000000E-03 0. -1.
         11    1    4    4    0    0  0.47295356920E-02 -0.76208473973E-02  0.20051558652E-01  0.21972072007E-01  0.51100000000E-03 0.  1.
</event>
<event>
 8    1  0.1064884E+005  0.1043930E+01  0.7957747E-01            NaN
         13   -1    0    0    0    0  0.00000000000E+00  0.00000000000E+00  0.74505805969E-08  0.10566000000E+00  0.10566000000E+00 0.  1.
     999900   -1    0    0    0    0 -0.00000000000E+00 -0.00000000000E+00 -0.74505805969E-08  0.93827000000E+00  0.93827000000E+00 0.  1.
     999902    2    1    2    0    0 -0.16227303279E-01  0.15799489265E-01 -0.85252133584E-02  0.10197302377E+01  0.10194430485E+01 0.  0.
     999903    2    3    3    0    0 -0.10622757905E+00  0.17701438220E-01 -0.75171953846E-01  0.13263077593E+00  0.18505691348E-01 0.  0.
         14    1    1    2    0    0  0.16227303279E-01 -0.15799489265E-01  0.85252133584E-02  0.24199762304E-01  0.00000000000E+00 0. -1.
     999901    1    3    3    0    0  0.90000275773E-01 -0.19019489549E-02  0.66646740487E-01  0.88709946177E+00  0.88000000000E+00 0. -1.
        -11    1    4    4    0    0 -0.20794872975E-01  0.93840909787E-02 -0.10302023656E-01  0.25037586105E-01  0.51100000000E-03 0. -1.
         11    1    4    4    0    0 -0.85432706077E-01  0.83173472414E-02 -0.64869930189E-01  0.10759318982E+00  0.51100000000E-03 0.  1.
</event>
<event>
 8    1  0.1064884E+005  0.1043930E+01  0.7957747E-01            NaN
         13   -1    0    0    0    0  0.00000000000E+00  0.00000000000E+00  0.74505805969E-08  0.10566000000E+00  0.10566000000E+00 0.  1.
     999900   -1    0    0    0    0 -0.00000000000E+00 -0.00000000000E+00 -0.74505805969E-08  0.93827000000E+00  0.93827000000E+00 0.  1.
     999902    2    1    2    0    0  0.18960903557E-01  0.14112812338E-01  0.75757380811E-04  0.10202933108E+01  0.10200194837E+01 0.  0.
     999903    2    3    3    0    0 -0.52765483013E-01  0.20014652237E-02  0.11666103354E+00  0.12962867929E+00  0.20139406354E-01 0.  0.
         14    1    1    2    0    0 -0.18960903557E-01 -0.14112812338E-01 -0.75757380811E-04  0.23636689171E-01  0.00000000000E+00 0.  1.
     999901    1    3    3    0    0  0.71726386569E-01  0.12111347114E-01 -0.11658527615E+00  0.89066463154E+00  0.88000000000E+00 0.  1.
        -11    1    4    4    0    0 -0.45704936669E-01  0.86011418795E-02  0.10139548369E+00  0.11155369161E+00  0.51100000000E-03 0. -1.
         11    1    4    4    0    0 -0.70605463433E-02 -0.65996766557E-02  0.15265549846E-01  0.18074987682E-01  0.51100000000E-03 0.  1.
</event>
<event>
 8    1  0.1064884E+005  0.1043930E+01  0.7957747E-01            NaN
         13   -1    0    0    0    0  0.00000000000E+00  0.00000000000E+00  0.74505805969E-08  0.10566000000E+00  0.10566000000E+00 0.  1.
     999900   -1    0    0    0    0 -0.00000000000E+00 -0.00000000000E+00 -0.74505805969E-08  0.93827000000E+00  0.93827000000E+00 0.  1.
     999902    2    1    2    0    0  0.18700358925E-01  0.11010267666E-01  0.35156584603E-02  0.10219461588E+01  0.10217096761E+01 0.  0.
     999903    2    3    3    0    0  0.81582490068E-01 -0.56779197106E-02  0.10403987670E+00  0.13383705716E+00  0.20003011505E-01 0.  0.
         14    1    1    2    0    0 -0.18700358925E-01 -0.11010267666E-01 -0.35156584603E-02  0.21983841166E-01  0.00000000000E+00 0.  1.
     999901    1    3    3    0    0 -0.62882131143E-01  0.16688187377E-01 -0.10052421824E+00  0.88810910167E+00  0.88000000000E+00 0.  1.
        -11    1    4    4    0    0  0.20355865837E-01 -0.48789048912E-02  0.40506288796E-01  0.45598087021E-01  0.51100000000E-03 0.  1.
         11    1    4    4    0    0  0.61226624231E-01 -0.79901481936E-03  0.63533587902E-01  0.88238970144E-01  0.51100000000E-03 0. -1.
</event>
<event>
 8    1  0.1064884E+005  0.1043930E+01  0.7957747E-01            NaN
         13   -1    0    0    0    0  0.00000000000E+00  0.00000000000E+00  0.74505805969E-08  0.10566000000E+00  0.10566000000E+00 0.  1.
     999900   -1    0    0    0    0 -0.00000000000E+00 -0.00000000000E+00 -0.74505805969E-08  0.93827000000E+00  0.93827000000E+00 0.  1.
     999902    2    1    2    0    0  0.14191736183E-01  0.12298276604E-01  0.14501504671E-01  0.10202035038E+01  0.10199275673E+01 0.  0.
     999903    2    3    3    0    0  0.55746169440E-01 -0.11205592810E+00 -0.27088523935E-01  0.12951811063E+00  0.19416138237E-01 0.  0.
         14    1    1    2    0    0 -0.14191736183E-01 -0.12298276604E-01 -0.14501504671E-01  0.23726496182E-01  0.00000000000E+00 0. -1.
     999901    1    3    3    0    0 -0.41554433257E-01  0.12435420470E+00  0.41590028606E-01  0.89068539318E+00  0.88000000000E+00 0. -1.
        -11    1    4    4    0    0  0.17391309103E-02 -0.18793976483E-01 -0.41604513396E-02  0.19334130566E-01  0.51100000000E-03 0. -1.
         11    1    4    4    0    0  0.54007038530E-01 -0.93261951616E-01 -0.22928072595E-01  0.11018398007E+00  0.51100000000E-03 0.  1.
</event>
<event>
 8    1  0.1064884E+005  0.1043930E+01  0.7957747E-01            NaN
         13   -1    0    0    0    0  0.00000000000E+00  0.00000000000E+00  0.74505805969E-08  0.10566000000E+00  0.10566000000E+00 0.  1.
     999900   -1    0    0    0    0 -0.00000000000E+00 -0.00000000000E+00 -0.74505805969E-08  0.93827000000E+00  0.93827000000E+00 0. -1.
     999902    2    1    2    0    0 -0.20161332445E-01  0.48272156570E-02 -0.10507942003E-01  0.10206878361E+01  0.10204231772E+01 0.  0.
     999903    2    3    3    0    0 -0.82513149119E-01 -0.42426109945E-01 -0.93732648539E-01  0.13330574389E+00  0.19396323601E-01 0.  0.
         14    1    1    2    0    0  0.20161332445E-01 -0.48272156570E-02  0.10507942003E-01  0.23242163885E-01  0.00000000000E+00 0.  1.
     999901    1    3    3    0    0  0.62351816674E-01  0.47253325602E-01  0.83224706537E-01  0.88738209222E+00  0.88000000000E+00 0.  1.
        -11    1    4    4    0    0 -0.27867199464E-01 -0.22647286803E-01 -0.44146798199E-01  0.56909413261E-01  0.51100000000E-03 0. -1.
         11    1    4    4    0    0 -0.54645949655E-01 -0.19778823142E-01 -0.49585850341E-01  0.76396330629E-01  0.51100000000E-03 0.  1.
</event>
<event>
 8    1  0.1064884E+005  0.1043930E+01  0.7957747E-01            NaN
         13   -1    0    0    0    0  0.00000000000E+00  0.00000000000E+00  0.74505805969E-08  0.10566000000E+00  0.10566000000E+00 0. -1.
     999900   -1    0    0    0    0 -0.00000000000E+00 -0.00000000000E+00 -0.74505805969E-08  0.93827000000E+00  0.93827000000E+00 0.  1.
     999902    2    1    2    0    0 -0.12097470649E-01  0.19529270095E-01  0.79208865023E-02  0.10196301722E+01  0.10193405743E+01 0.  0.
     999903    2    3    3    0    0 -0.48795837152E-01 -0.11086423621E+00  0.38910906399E-01  0.12872635143E+00  0.19608730729E-01 0.  0.
         14    1    1    2    0    0  0.12097470649E-01 -0.19529270095E-01 -0.79208865023E-02  0.24299827767E-01  0.00000000000E+00 0.  1.
     999901    1    3    3    0    0  0.36698366504E-01  0.13039350631E+00 -0.30990019897E-01  0.89090382080E+00  0.88000000000E+00 0. -1.
        -11    1    4    4    0    0 -0.10255461249E-01 -0.25441265864E-01  0.17670350588E-01  0.32633340392E-01  0.51100000000E-03 0. -1.
         11    1    4    4    0    0 -0.38540375903E-01 -0.85422970348E-01  0.21240555811E-01  0.96093011036E-01  0.51100000000E-03 0.  1.
</event>
<event>
 8    1  0.1258854E+005  0.1043930E+01  0.7957747E-01            NaN
         13   -1    0    0    0    0  0.00000000000E+00  0.00000000000E+00  0.74505805969E-08  0.10566000000E+00  0.10566000000E+00 0.  1.
     999900   -1    0    0    0    0 -0.00000000000E+00 -0.00000000000E+00 -0.74505805969E-08  0.93827000000E+00  0.93827000000E+00 0. -1.
     999902    2    1    2    0    0 -0.11976755756E-01 -0.72324912935E-02  0.18698620565E-01  0.10205764131E+01  0.10203091811E+01 0.  0.
     999903    2    3    3    0    0 -0.11535636898E+00 -0.17504127939E-01  0.61559103063E-01  0.13342937238E+00  0.20009694788E-01 0.  0.
         14    1    1    2    0    0  0.11976755756E-01  0.72324912935E-02 -0.18698620565E-01  0.23353586871E-01  0.00000000000E+00 0. -1.
     999901    1    3    3    0    0  0.10337961322E+00  0.10271636645E-01 -0.42860482499E-01  0.88714704075E+00  0.88000000000E+00 0. -1.
        -11    1    4    4    0    0 -0.59893254719E-01  0.78831267400E-03  0.28785478150E-01  0.66458169332E-01  0.51100000000E-03 0. -1.
         11    1    4    4    0    0 -0.55463114257E-01 -0.18292440613E-01  0.32773624913E-01  0.66971203047E-01  0.51100000000E-03 0.  1.
</event>
<event>
 8    1  0.1064884E+005  0.1043930E+01  0.7957747E-01            NaN
         13   -1    0    0    0    0  0.00000000000E+00  0.00000000000E+00  0.74505805969E-08  0.10566000000E+00  0.10566000000E+00 0. -1.
     999900   -1    0    0    0    0 -0.00000000000E+00 -0.00000000000E+00 -0.74505805969E-08  0.93827000000E+00  0.93827000000E+00 0. -1.
     999902    2    1    2    0    0  0.28574252179E-03 -0.16168520515E-01 -0.11907115188E-01  0.10238481152E+01  0.10236511520E+01 0.  0.
     999903    2    3    3    0    0  0.12925249985E+00  0.24381215583E-01 -0.11453719300E-01  0.13352406681E+00  0.19920751549E-01 0.  0.
         14    1    1    2    0    0 -0.28574252179E-03  0.16168520515E-01  0.11907115188E-01  0.20081884786E-01  0.00000000000E+00 0. -1.
     999901    1    3    3    0    0 -0.12896675733E+00 -0.40549736098E-01 -0.45339588843E-03  0.89032404840E+00  0.88000000000E+00 0.  1.
        -11    1    4    4    0    0  0.45874527667E-01  0.96703466611E-02 -0.13637484879E-01  0.48828577780E-01  0.51100000000E-03 0.  1.
         11    1    4    4    0    0  0.83377972181E-01  0.14710868922E-01  0.21837655787E-02  0.84695489033E-01  0.51100000000E-03 0. -1.
</event>
<event>
 8    1  0.1064884E+005  0.1043930E+01  0.7957747E-01            NaN
         13   -1    0    0    0    0  0.00000000000E+00  0.00000000000E+00  0.74505805969E-08  0.10566000000E+00  0.10566000000E+00 0.  1.
     999900   -1    0    0    0    0 -0.00000000000E+00 -0.00000000000E+00 -0.74505805969E-08  0.93827000000E+00  0.93827000000E+00 0.  1.
     999902    2    1    2    0    0 -0.58592375078E-02 -0.45738040569E-02 -0.22442220232E-01  0.10202888580E+01  0.10200149264E+01 0.  0.
     999903    2    3    3    0    0 -0.79574210568E-01  0.97368966408E-01 -0.34142997765E-01  0.13126516093E+00  0.15875376207E-01 0.  0.
         14    1    1    2    0    0  0.58592375078E-02  0.45738040569E-02  0.22442220232E-01  0.23641142034E-01  0.00000000000E+00 0.  1.
     999901    1    3    3    0    0  0.73714973060E-01 -0.10194277046E+00  0.11700777533E-01  0.88902369704E+00  0.88000000000E+00 0. -1.
        -11    1    4    4    0    0 -0.52194753244E-01  0.51528438784E-01 -0.19296154153E-01  0.75842435060E-01  0.51100000000E-03 0.  1.
         11    1    4    4    0    0 -0.27379457324E-01  0.45840527624E-01 -0.14846843612E-01  0.55422725866E-01  0.51100000000E-03 0. -1.
</event>
<event>
 8    1  0.1064884E+005  0.1043930E+01  0.7957747E-01            NaN
         13   -1    0    0    0    0  0.00000000000E+00  0.00000000000E+00  0.74505805969E-08  0.10566000000E+00  0.10566000000E+00 0.  1.
     999900   -1    0    0    0    0 -0.00000000000E+00 -0.00000000000E+00 -0.74505805969E-08  0.93827000000E+00  0.93827000000E+00 0. -1.
     999902    2    1    2    0    0 -0.12343858686E-01  0.15458704798E-01  0.13099108524E-01  0.10202038742E+01  0.10199279464E+01 0.  0.
     999903    2    3    3    0    0 -0.41806126222E-01  0.90115204734E-01  0.86714969951E-01  0.13349032787E+00  0.20776893602E-01 0.  0.
         14    1    1    2    0    0  0.12343858686E-01 -0.15458704798E-01 -0.13099108524E-01  0.23726125799E-01  0.00000000000E+00 0. -1.
     999901    1    3    3    0    0  0.29462267535E-01 -0.74656499935E-01 -0.73615861427E-01  0.88671354633E+00  0.88000000000E+00 0. -1.
        -11    1    4    4    0    0 -0.22754741999E-01  0.39715426227E-01  0.27372092789E-01  0.53334659917E-01  0.51100000000E-03 0. -1.
         11    1    4    4    0    0 -0.19051384223E-01  0.50399778507E-01  0.59342877162E-01  0.80155667954E-01  0.51100000000E-03 0.  1.
</event>
<event>
 8    1  0.1064884E+005  0.1043930E+01  0.7957747E-01            NaN
         13   -1    0    0    0    0  0.00000000000E+00  0.00000000000E+00  0.74505805969E-08  0.10566000000E+00  0.10566000000E+00 0.  1.
     999900   -1    0    0    0    0 -0.00000000000E+00 -0.00000000000E+00 -0.74505805969E-08  0.93827000000E+00  0.93827000000E+00 0.  1.
     999902    2    1    2    0    0  0.13488617786E-01 -0.93490093826E-02  0.16861622516E-01  0.10203999957E+01  0.10201286636E+01 0.  0.
     999903    2    3    3    0    0 -0.15967190570E-01 -0.60321409796E-01 -0.11138206381E+00  0.12915801215E+00  0.19550046250E-01 0.  0.
         14    1    1    2    0    0 -0.13488617786E-01  0.93490093826E-02 -0.16861622516E-01  0.23530004252E-01  0.00000000000E+00 0. -1.
     999901    1    3    3    0    0  0.29455808357E-01  0.50972400413E-01  0.12824368633E+00  0.89124198360E+00  0.88000000000E+00 0. -1.
        -11    1    4    4    0    0 -0.42096628594E-02 -0.40369737707E-01 -0.56335486568E-01  0.69436194824E-01  0.51100000000E-03 0. -1.
         11    1    4    4    0    0 -0.11757527711E-01 -0.19951672089E-01 -0.55046577244E-01  0.59721817323E-01  0.51100000000E-03 0.  1.
</event>
<event>
 8    1  0.1064884E+005  0.1043930E+01  0.7957747E-01            NaN
         13   -1    0    0    0    0  0.00000000000E+00  0.00000000000E+00  0.74505805969E-08  0.10566000000E+00  0.10566000000E+00 0. -1.
     999900   -1    0    0    0    0 -0.00000000000E+00 -0.00000000000E+00 -0.74505805969E-08  0.93827000000E+00  0.93827000000E+00 0.  1.
     999902    2    1    2    0    0 -0.67231553578E-02 -0.41717583769E-02 -0.23274688046E-01  0.10193471708E+01  0.10190507049E+01 0.  0.
     999903    2    3    3    0    0  0.58334435220E-01  0.66300300897E-02 -0.11651758572E+00  0.13196709066E+00  0.19801555624E-01 0.  0.
         14    1    1    2    0    0  0.67231553578E-02  0.41717583769E-02  0.23274688046E-01  0.24582829161E-01  0.00000000000E+00 0. -1.
     999901    1    3    3    0    0 -0.65057590577E-01 -0.10801788467E-01  0.93242897672E-01  0.88738008018E+00  0.88000000000E+00 0.  1.
        -11    1    4    4    0    0  0.16890634708E-01  0.17393833001E-02 -0.16908301142E-01  0.23968119735E-01  0.51100000000E-03 0. -1.
         11    1    4    4    0    0  0.41443800512E-01  0.48906467895E-02 -0.99609284576E-01  0.10799897093E+00  0.51100000000E-03 0.  1.
</event>
<event>
 8    1  0.1064884E+005  0.1043930E+01  0.7957747E-01            NaN
         13   -1    0    0    0    0  0.00000000000E+00  0.00000000000E+00  0.74505805969E-08  0.10566000000E+00  0.10566000000E+00 0. -1.
     999900   -1    0    0    0    0 -0.00000000000E+00 -0.00000000000E+00 -0.74505805969E-08  0.93827000000E+00  0.93827000000E+00 0. -1.
     999902    2    1    2    0    0  0.21819693910E-01  0.34120616434E-02  0.78381570312E-02  0.10204954547E+01  0.10202263451E+01 0.  0.
     999903    2    3    3    0    0 -0.17614466198E-02  0.26721880570E-01  0.12770196055E+00  0.13175097555E+00  0.18258346996E-01 0.  0.
         14    1    1    2    0    0 -0.21819693910E-01 -0.34120616434E-02 -0.78381570312E-02  0.23434545284E-01  0.00000000000E+00 0.  1.
     999901    1    3    3    0    0  0.23581140530E-01 -0.23309818927E-01 -0.11986380352E+00  0.88874447916E+00  0.88000000000E+00 0. -1.
        -11    1    4    4    0    0 -0.66131259300E-02  0.37126828962E-02  0.17710646507E-01  0.19272923223E-01  0.51100000000E-03 0.  1.
         11    1    4    4    0    0  0.48516793102E-02  0.23009197674E-01  0.10999131405E+00  0.11247805233E+00  0.51100000000E-03 0. -1.
</event>
<event>
 8    1  0.1064884E+005  0.1043930E+01  0.7957747E-01            NaN
         13   -1    0    0    0    0  0.00000000000E+00  0.00000000000E+00  0.74505805969E-08  0.10566000000E+00  0.10566000000E+00 0.  1.
     999900   -1    0    0    0    0 -0.00000000000E+00 -0.00000000000E+00 -0.74505805969E-08  0.93827000000E+00  0.93827000000E+00 0.  1.
     999902    2    1    2    0    0  0.46724093586E-02  0.10186753914E-01  0.22366878400E-01  0.10189124339E+01  0.10186052569E+01 0.  0.
     999903    2    3    3    0    0  0.32601221518E-01  0.11541087424E+00 -0.45206708872E-01  0.12963276824E+00  0.19455038877E-01 0.  0.
         14    1    1    2    0    0 -0.46724093586E-02 -0.10186753914E-01 -0.22366878400E-01  0.25017566106E-01  0.00000000000E+00 0. -1.
     999901    1    3    3    0    0 -0.27928812159E-01 -0.10522412033E+00  0.67573587272E-01  0.88927966565E+00  0.88000000000E+00 0. -1.
        -11    1    4    4    0    0  0.17294805145E-01  0.38313781626E-01 -0.23155606790E-01  0.47994785074E-01  0.51100000000E-03 0. -1.
         11    1    4    4    0    0  0.15306416373E-01  0.77097092613E-01 -0.22051102082E-01  0.81637983167E-01  0.51100000000E-03 0.  1.
</event>
<event>
 8    1  0.1064884E+005  0.1043930E+01  0.7957747E-01            NaN
         13   -1    0    0    0    0  0.00000000000E+00  0.00000000000E+00  0.74505805969E-08  0.10566000000E+00  0.10566000000E+00 0. -1.
     999900   -1    0    0    0    0 -0.00000000000E+00 -0.00000000000E+00 -0.74505805969E-08  0.93827000000E+00  0.93827000000E+00 0. -1.
     999902    2    1    2    0    0  0.94935447325E-02  0.15124555749E-01 -0.14546162062E-01  0.10208980568E+01  0.10206382179E+01 0.  0.
     999903    2    3    3    0    0  0.12760252646E+00  0.62716047251E-02 -0.30211619934E-01  0.13282513585E+00  0.20199924462E-01 0.  0.
         14    1    1    2    0    0 -0.94935447325E-02 -0.15124555749E-01  0.14546162062E-01  0.23031943230E-01  0.00000000000E+00 0.  1.
     999901    1    3    3    0    0 -0.11810898173E+00  0.88529510242E-02  0.15665457872E-01  0.88807292092E+00  0.88000000000E+00 0.  1.
        -11    1    4    4    0    0  0.55693769685E-01  0.44149101225E-02 -0.31190499212E-02  0.55957814526E-01  0.51100000000E-03 0.  1.
         11    1    4    4    0    0  0.71908756777E-01  0.18566946027E-02 -0.27092570013E-01  0.76867321320E-01  0.51100000000E-03 0. -1.
</event>
<event>
 8    1  0.1064884E+005  0.1043930E+01  0.7957747E-01            NaN
         13   -1    0    0    0    0  0.00000000000E+00  0.00000000000E+00  0.74505805969E-08  0.10566000000E+00  0.10566000000E+00 0.  1.
     999900   -1    0    0    0    0 -0.00000000000E+00 -0.00000000000E+00 -0.74505805969E-08  0.93827000000E+00  0.93827000000E+00 0.  1.
     999902    2    1    2    0    0 -0.63878136623E-02  0.17304467997E-01 -0.15368098888E-01  0.10199211008E+01  0.10196384774E+01 0.  0.
     999903    2    3    3    0    0  0.45662082209E-01  0.52767606199E-01 -0.11172945105E+00  0.13242330589E+00  0.13528329320E-01 0.  0.
         14    1    1    2    0    0  0.63878136623E-02 -0.17304467997E-01  0.15368098888E-01  0.24008899173E-01  0.00000000000E+00 0.  1.
     999901    1    3    3    0    0 -0.52049895871E-01 -0.35463138202E-01  0.96361352164E-01  0.88749779494E+00  0.88000000000E+00 0. -1.
        -11    1    4    4    0    0  0.43782513276E-01  0.52557863426E-01 -0.10423714748E+00  0.12467911418E+00  0.51100000000E-03 0.  1.
         11    1    4    4    0    0  0.18795689335E-02  0.20974277321E-03 -0.74923035738E-02  0.77441917105E-02  0.51100000000E-03 0. -1.
</event>
<event>
 8    1  0.1368638E+005  0.1043930E+01  0.7957747E-01            NaN
         13   -1    0    0    0    0  0.00000000000E+00  0.00000000000E+00  0.74505805969E-08  0.10566000000E+00  0.10566000000E+00 0.  1.
     999900   -1    0    0    0    0 -0.00000000000E+00 -0.00000000000E+00 -0.74505805969E-08  0.93827000000E+00  0.93827000000E+00 0. -1.
     999902    2    1    2    0    0  0.17149998494E-02 -0.78845500170E-02 -0.22737675579E-01  0.10198030598E+01  0.10195176171E+01 0.  0.
     999903    2    3    3    0    0  0.10505170479E+00 -0.28356810954E-01 -0.72339196877E-01  0.13213313297E+00  0.19652888233E-01 0.  0.
         14    1    1    2    0    0 -0.17149998494E-02  0.78845500170E-02  0.22737675579E-01  0.24126940217E-01  0.00000000000E+00 0.  1.
     999901    1    3    3    0    0 -0.10333670494E+00  0.20472260937E-01  0.49601521297E-01  0.88766992681E+00  0.88000000000E+00 0.  1.
        -11    1    4    4    0    0  0.58143651648E-01 -0.25588025285E-01 -0.43590347597E-01  0.77044213213E-01  0.51100000000E-03 0. -1.
         11    1    4    4    0    0  0.46908053145E-01 -0.27687856691E-02 -0.28748849280E-01  0.55088919756E-01  0.51100000000E-03 0.  1.
</event>
<event>
 8    1  0.1064884E+005  0.1043930E+01  0.7957747E-01            NaN
         13   -1    0    0    0    0  0.00000000000E+00  0.00000000000E+00  0.74505805969E-08  0.10566000000E+00  0.10566000000E+00 0.  1.
     999900   -1    0    0    0    0 -0.00000000000E+00 -0.00000000000E+00 -0.74505805969E-08  0.93827000000E+00  0.93827000000E+00 0. -1.
     999902    2    1    2    0    0  0.19417775752E-01  0.82951430878E-02  0.99540825501E-02  0.10205859821E+01  0.10203189715E+01 0.  0.
     999903    2    3    3    0    0  0.11403693810E+00  0.29639824302E-01  0.60309666973E-01  0.13382554870E+00  0.19725088524E-01 0.  0.
         14    1    1    2    0    0 -0.19417775752E-01 -0.82951430878E-02 -0.99540825501E-02  0.23344017936E-01  0.00000000000E+00 0. -1.
     999901    1    3    3    0    0 -0.94619162351E-01 -0.21344681214E-01 -0.50355584423E-01  0.88676043337E+00  0.88000000000E+00 0. -1.
        -11    1    4    4    0    0  0.10766254260E+00  0.30805768259E-01  0.60579094419E-01  0.12731970090E+00  0.51100000000E-03 0.  1.
         11    1    4    4    0    0  0.63743955065E-02 -0.11659439563E-02 -0.26942744598E-03  0.65058477950E-02  0.51100000000E-03 0. -1.
</event>
<event>
 8    1  0.1064884E+005  0.1043930E+01  0.7957747E-01            NaN
         13   -1    0    0    0    0  0.00000000000E+00  0.00000000000E+00  0.74505805969E-08  0.10566000000E+00  0.10566000000E+00 0.  1.
     999900   -1    0    0    0    0 -0.00000000000E+00 -0.00000000000E+00 -0.74505805969E-08  0.93827000000E+00  0.93827000000E+00 0. -1.
     999902    2    1    2    0    0 -0.20384637430E-01 -0.13155956670E-01 -0.18932882078E-02  0.10195948982E+01  0.10193044488E+01 0.  0.
     999903    2    3    3    0    0  0.10199424529E+00  0.47061826503E-01  0.58310141037E-01  0.12705513705E+00  0.11193467597E-01 0.  0.
         14    1    1    2    0    0  0.20384637430E-01  0.13155956670E-01  0.18932882078E-02  0.24335101794E-01  0.00000000000E+00 0.  1.
     999901    1    3    3    0    0 -0.12237888272E+00 -0.60217783173E-01 -0.60203429244E-01  0.89253976115E+00  0.88000000000E+00 0. -1.
        -11    1    4    4    0    0  0.26392757654E-01  0.16856637549E-01  0.13298997566E-01  0.34027170663E-01  0.51100000000E-03 0.  1.
         11    1    4    4    0    0  0.75601487640E-01  0.30205188954E-01  0.45011143470E-01  0.93027966390E-01  0.51100000000E-03 0. -1.
</event>
<event>
 8    1  0.1064884E+005  0.1043930E+01  0.7957747E-01            NaN
         13   -1    0    0    0    0  0.00000000000E+00  0.00000000000E+00  0.74505805969E-08  0.10566000000E+00  0.10566000000E+00 0. -1.
     999900   -1    0    0    0    0 -0.00000000000E+00 -0.00000000000E+00 -0.74505805969E-08  0.93827000000E+00  0.93827000000E+00 0. -1.
     999902    2    1    2    0    0 -0.34967033007E-02 -0.45728766763E-02  0.21045404927E-01  0.10221114940E+01  0.10218785931E+01 0.  0.
     999903    2    3    3    0    0  0.93679823895E-01  0.33973978648E-01  0.86801763387E-01  0.13348725612E+00  0.18819160143E-01 0.  0.
         14    1    1    2    0    0  0.34967033007E-02  0.45728766763E-02 -0.21045404927E-01  0.21818505989E-01  0.00000000000E+00 0.  1.
     999901    1    3    3    0    0 -0.97176527196E-01 -0.38546855325E-01 -0.65756358461E-01  0.88862423789E+00  0.88000000000E+00 0. -1.
        -11    1    4    4    0    0  0.64758864804E-01  0.29892233106E-01  0.53321478849E-01  0.89054463102E-01  0.51100000000E-03 0. -1.
         11    1    4    4    0    0  0.28920959091E-01  0.40817455428E-02  0.33480284538E-01  0.44432793016E-01  0.51100000000E-03 0.  1.
</event>
<event>
 8    1  0.1064884E+005  0.1043930E+01  0.7957747E-01            NaN
         13   -1    0    0    0    0  0.00000000000E+00  0.00000000000E+00  0.74505805969E-08  0.10566000000E+00  0.10566000000E+00 0. -1.
     999900   -1    0    0    0    0 -0.00000000000E+00 -0.00000000000E+00 -0.74505805969E-08  0.93827000000E+00  0.93827000000E+00 0.  1.
     999902    2    1    2    0    0  0.11061417563E-01  0.73717647150E-02  0.17689004036E-01  0.10218031218E+01  0.10215635179E+01 0.  0.
     999903    2    3    3    0    0 -0.29818484816E-01  0.95594274116E-01  0.86234918442E-01  0.13379809935E+00  0.20929953410E-01 0.  0.
         14    1    1    2    0    0 -0.11061417563E-01 -0.73717647150E-02 -0.17689004036E-01  0.22126878164E-01  0.00000000000E+00 0.  1.
     999901    1    3    3    0    0  0.40879902379E-01 -0.88222509401E-01 -0.68545914406E-01  0.88800502249E+00  0.88000000000E+00 0.  1.
        -11    1    4    4    0    0 -0.10396963191E-01  0.17015260523E-01  0.88797230013E-02  0.21834068238E-01  0.51100000000E-03 0.  1.
         11    1    4    4    0    0 -0.19421521625E-01  0.78579013594E-01  0.77355195440E-01  0.11196403111E+00  0.51100000000E-03 0. -1.
</event>
<event>
 8    1  0.1064884E+005  0.1043930E+01  0.7957747E-01            NaN
         13   -1    0    0    0    0  0.00000000000E+00  0.00000000000E+00  0.74505805969E-08  0.10566000000E+00  0.10566000000E+00 0.  1.
     999900   -1    0    0    0    0 -0.00000000000E+00 -0.00000000000E+00 -0.74505805969E-08  0.93827000000E+00  0.93827000000E+00 0.  1.
     999902    2    1    2    0    0  0.19060992773E-01 -0.28404753188E-01  0.72391602939E-02  0.10089649190E+01  0.10083588899E+01 0.  0.
     999903    2    3    3    0    0 -0.31667930911E-01  0.17467021097E-01 -0.11101812567E+00  0.11842439264E+00  0.19782766992E-01 0.  0.
         14    1    1    2    0    0 -0.19060992773E-01  0.28404753188E-01 -0.72391602939E-02  0.34965081023E-01  0.00000000000E+00 0.  1.
     999901    1    3    3    0    0  0.50728923683E-01 -0.45871774285E-01  0.11825728596E+00  0.89054052634E+00  0.88000000000E+00 0. -1.
        -11    1    4    4    0    0 -0.14819103649E-01  0.19151143805E-01 -0.62109578384E-01  0.66665080740E-01  0.51100000000E-03 0. -1.
         11    1    4    4    0    0 -0.16848827262E-01 -0.16841227084E-02 -0.48908547285E-01  0.51759311896E-01  0.51100000000E-03 0.  1.
</event>
<event>
 8    1  0.1064884E+005  0.1043930E+01  0.7957747E-01            NaN
         13   -1    0    0    0    0  0.00000000000E+00  0.00000000000E+00  0.74505805969E-08  0.10566000000E+00  0.10566000000E+00 0. -1.
     999900   -1    0    0    0    0 -0.00000000000E+00 -0.00000000000E+00 -0.74505805969E-08  0.93827000000E+00  0.93827000000E+00 0.  1.
     999902    2    1    2    0    0  0.12598683892E-01  0.13887972209E-01  0.13567525008E-01  0.10207852308E+01  0.10205228106E+01 0.  0.
     999903    2    3    3    0    0  0.48559025419E-01  0.59641099020E-01 -0.10392511025E+00  0.13107122385E+00  0.21545243985E-01 0.  0.
         14    1    1    2    0    0 -0.12598683892E-01 -0.13887972209E-01 -0.13567525008E-01  0.23144769230E-01  0.00000000000E+00 0.  1.
     999901    1    3    3    0    0 -0.35960341526E-01 -0.45753126811E-01  0.11749263526E+00  0.88971400692E+00  0.88000000000E+00 0. -1.
        -11    1    4    4    0    0  0.27089818243E-01  0.30503568929E-01 -0.72243485070E-01  0.82968115719E-01  0.51100000000E-03 0.  1.
         11    1    4    4    0    0  0.21469207176E-01  0.29137530091E-01 -0.31681625179E-01  0.48103108128E-01  0.51100000000E-03 0. -1.
</event>
<event>
 8    1  0.1331355E+005  0.1043930E+01  0.7957747E-01            NaN
         13   -1    0    0    0    0  0.00000000000E+00  0.00000000000E+00  0.74505805969E-08  0.10566000000E+00  0.10566000000E+00 0. -1.
     999900   -1    0    0    0    0 -0.00000000000E+00 -0.00000000000E+00 -0.74505805969E-08  0.93827000000E+00  0.93827000000E+00 0.  1.
     999902    2    1    2    0    0 -0.87261076660E-02 -0.14007364376E-01  0.17102987399E-01  0.10201631451E+01  0.10198862580E+01 0.  0.
     999903    2    3    3    0    0 -0.64376770246E-01  0.54834205631E-01  0.99203512332E-01  0.13191956695E+00  0.20255286503E-01 0.  0.
         14    1    1    2    0    0  0.87261076660E-02  0.14007364376E-01 -0.17102987399E-01  0.23766854856E-01  0.00000000000E+00 0. -1.
     999901    1    3    3    0    0  0.55650662580E-01 -0.68841570007E-01 -0.82100524933E-01  0.88824357819E+00  0.88000000000E+00 0.  1.
        -11    1    4    4    0    0 -0.41768739861E-01  0.45514306303E-01  0.63061144957E-01  0.88278813042E-01  0.51100000000E-03 0.  1.
         11    1    4    4    0    0 -0.22608030385E-01  0.93198993284E-02  0.36142367375E-01  0.43640753910E-01  0.51100000000E-03 0. -1.
</event>
<event>
 8    1  0.1064884E+005  0.1043930E+01  0.7957747E-01            NaN
         13   -1    0    0    0    0  0.00000000000E+00  0.00000000000E+00  0.74505805969E-08  0.10566000000E+00  0.10566000000E+00 0.  1.
     999900   -1    0    0    0    0 -0.00000000000E+00 -0.00000000000E+00 -0.74505805969E-08  0.93827000000E+00  0.93827000000E+00 0. -1.
     999902    2    1    2    0    0 -0.12642542852E-02 -0.16407211578E-01  0.13191393519E-01  0.10228395331E+01  0.10226220723E+01 0.  0.
     999903    2    3    3    0    0 -0.32067886089E-01 -0.84279387754E-01 -0.95676522459E-01  0.13300375098E+00  0.20115573718E-01 0.  0.
         14    1    1    2    0    0  0.12642542852E-02  0.16407211578E-01 -0.13191393519E-01  0.21090466890E-01  0.00000000000E+00 0. -1.
     999901    1    3    3    0    0  0.30803631804E-01  0.67872176176E-01  0.10886791598E+00  0.88983578213E+00  0.88000000000E+00 0.  1.
        -11    1    4    4    0    0 -0.28721492501E-01 -0.63816397136E-01 -0.62239066989E-01  0.93655855426E-01  0.51100000000E-03 0.  1.
         11    1    4    4    0    0 -0.33463935881E-02 -0.20462990618E-01 -0.33437455471E-01  0.39347895553E-01  0.51100000000E-03 0. -1.
</event>
<event>
 8    1  0.1064884E+005  0.1043930E+01  0.7957747E-01            NaN
         13   -1    0    0    0    0  0.00000000000E+00  0.00000000000E+00  0.74505805969E-08  0.10566000000E+00  0.10566000000E+00 0.  1.
     999900   -1    0    0    0    0 -0.00000000000E+00 -0.00000000000E+00 -0.74505805969E-08  0.93827000000E+00  0.93827000000E+00 0.  1.
     999902    2    1    2    0    0  0.18269048138E-01 -0.10985240260E-01  0.74147149537E-02  0.10213598511E+01  0.10211104415E+01 0.  0.
     999903    2    3    3    0    0  0.12650152950E+00  0.49027752813E-02  0.40500639192E-01  0.13396964525E+00  0.16759770384E-01 0.  0.
         14    1    1    2    0    0 -0.18269048138E-01  0.10985240260E-01 -0.74147149537E-02  0.22570148898E-01  0.00000000000E+00 0. -1.
     999901    1    3    3    0    0 -0.10823248136E+00 -0.15888015541E-01 -0.33085924238E-01  0.88739020585E+00  0.88000000000E+00 0.  1.
        -11    1    4    4    0    0  0.75843543783E-01 -0.44614057169E-02  0.20389936714E-01  0.78664845482E-01  0.51100000000E-03 0.  1.
         11    1    4    4    0    0  0.50657985713E-01  0.93641809982E-02  0.20110702477E-01  0.55304799768E-01  0.51100000000E-03 0. -1.
</event>
<event>
 8    1  0.1064884E+005  0.1043930E+01  0.7957747E-01            NaN
         13   -1    0    0    0    0  0.00000000000E+00  0.00000000000E+00  0.74505805969E-08  0.10566000000E+00  0.10566000000E+00 0. -1.
     999900   -1    0    0    0    0 -0.00000000000E+00 -0.00000000000E+00 -0.74505805969E-08  0.93827000000E+00  0.93827000000E+00 0. -1.
     999902    2    1    2    0    0  0.22285488656E-01  0.19959727742E-02 -0.83496953249E-02  0.10200481172E+01  0.10197685116E+01 0.  0.
     999903    2    3    3    0    0  0.63554936231E-01  0.11509790925E+00  0.56198356705E-02  0.13174053361E+00  0.61013941682E-02 0.  0.
         14    1    1    2    0    0 -0.22285488656E-01 -0.19959727742E-02  0.83496953249E-02  0.23881882756E-01  0.00000000000E+00 0. -1.
     999901    1    3    3    0    0 -0.41269447575E-01 -0.11310193648E+00 -0.13969530995E-01  0.88830758363E+00  0.88000000000E+00 0. -1.
        -11    1    4    4    0    0  0.41294250007E-01  0.73605717158E-01  0.64319309582E-02  0.84644241026E-01  0.51100000000E-03 0. -1.
         11    1    4    4    0    0  0.22260686224E-01  0.41492192092E-01 -0.81209528765E-03  0.47096292588E-01  0.51100000000E-03 0.  1.
</event>
<event>
 8    1  0.1064884E+005  0.1043930E+01  0.7957747E-01            NaN
         13   -1    0    0    0    0  0.00000000000E+00  0.00000000000E+00  0.74505805969E-08  0.10566000000E+00  0.10566000000E+00 0.  1.
     999900   -1    0    0    0    0 -0.00000000000E+00 -0.00000000000E+00 -0.74505805969E-08  0.93827000000E+00  0.93827000000E+00 0.  1.
     999902    2    1    2    0    0 -0.18728132996E-01  0.11578581955E-01 -0.88455397657E-02  0.10202013233E+01  0.10199253355E+01 0.  0.
     999903    2    3    3    0    0 -0.12566748529E+00  0.44552206336E-02  0.36743383871E-01  0.13252733058E+00  0.20031256605E-01 0.  0.
         14    1    1    2    0    0  0.18728132996E-01 -0.11578581955E-01  0.88455397657E-02  0.23728676730E-01  0.00000000000E+00 0.  1.
     999901    1    3    3    0    0  0.10693935229E+00  0.71233613217E-02 -0.45588923637E-01  0.88767399269E+00  0.88000000000E+00 0.  1.
        -11    1    4    4    0    0 -0.60879217425E-01 -0.32781214638E-02  0.90254287791E-02  0.61633957201E-01  0.51100000000E-03 0. -1.
         11    1    4    4    0    0 -0.64788267865E-01  0.77333420975E-02  0.27717955092E-01  0.70893373375E-01  0.51100000000E-03 0.  1.
</event>
<event>
 8    1  0.1064884E+005  0.1043930E+01  0.7957747E-01            NaN
         13   -1    0    0    0    0  0.00000000000E+00  0.00000000000E+00  0.74505805969E-08  0.10566000000E+00  0.10566000000E+00 0. -1.
     999900   -1    0    0    0    0 -0.00000000000E+00 -0.00000000000E+00 -0.74505805969E-08  0.93827000000E+00  0.93827000000E+00 0. -1.
     999902    2    1    2    0    0 -0.18718655125E-01 -0.10043481299E-01  0.10018455554E-01  0.10204432161E+01  0.10201728914E+01 0.  0.
     999903    2    3    3    0    0  0.12541280182E+00  0.16820309798E-01  0.74331421641E-02  0.12830969246E+00  0.19920639950E-01 0.  0.
         14    1    1    2    0    0  0.18718655125E-01  0.10043481299E-01 -0.10018455554E-01  0.23486783901E-01  0.00000000000E+00 0.  1.
     999901    1    3    3    0    0 -0.14413145694E+00 -0.26863791097E-01  0.25853133900E-02  0.89213352364E+00  0.88000000000E+00 0. -1.
        -11    1    4    4    0    0  0.33214534130E-01  0.13326353841E-01  0.70446982974E-03  0.35798804210E-01  0.51100000000E-03 0.  1.
         11    1    4    4    0    0  0.92198267687E-01  0.34939559571E-02  0.67286723344E-02  0.92510888252E-01  0.51100000000E-03 0. -1.
</event>
<event>
 8    1  0.1064884E+005  0.1043930E+01  0.7957747E-01            NaN
         13   -1    0    0    0    0  0.00000000000E+00  0.00000000000E+00  0.74505805969E-08  0.10566000000E+00  0.10566000000E+00 0. -1.
     999900   -1    0    0    0    0 -0.00000000000E+00 -0.00000000000E+00 -0.74505805969E-08  0.93827000000E+00  0.93827000000E+00 0.  1.
     999902    2    1    2    0    0  0.15849382677E-02 -0.22130945849E-01 -0.66497929620E-02  0.10207673028E+01  0.10205044713E+01 0.  0.
     999903    2    3    3    0    0 -0.37173907564E-01 -0.12664483792E+00 -0.12118663378E-01  0.13371865123E+00  0.17691843008E-01 0.  0.
         14    1    1    2    0    0 -0.15849382677E-02  0.22130945849E-01  0.66497929620E-02  0.23162697164E-01  0.00000000000E+00 0. -1.
     999901    1    3    3    0    0  0.38758845832E-01  0.10451389208E+00  0.54688704160E-02  0.88704865160E+00  0.88000000000E+00 0. -1.
        -11    1    4    4    0    0 -0.34100430393E-01 -0.88505976778E-01 -0.69245356298E-02  0.95101827496E-01  0.51100000000E-03 0. -1.
         11    1    4    4    0    0 -0.30734771714E-02 -0.38138861146E-01 -0.51941277481E-02  0.38616823737E-01  0.51100000000E-03 0.  1.
</event>
<event>
 8    1  0.1064884E+005  0.1043930E+01  0.7957747E-01            NaN
         13   -1    0    0    0    0  0.00000000000E+00  0.00000000000E+00  0.74505805969E-08  0.10566000000E+00  0.10566000000E+00 0.  1.
     999900   -1    0    0    0    0 -0.00000000000E+00 -0.00000000000E+00 -0.74505805969E-08  0.93827000000E+00  0.93827000000E+00 0.  1.
     999902    2    1    2    0    0  0.88273607051E-02 -0.21594802701E-01 -0.46186643354E-02  0.10201478668E+01  0.10198706194E+01 0.  0.
     999903    2    3    3    0    0  0.12441463617E+00  0.11503987184E-01 -0.36412172690E-01  0.13140337294E+00  0.18156450254E-01 0.  0.
         14    1    1    2    0    0 -0.88273607051E-02  0.21594802701E-01  0.46186643354E-02  0.23782133230E-01  0.00000000000E+00 0.  1.
     999901    1    3    3    0    0 -0.11558727546E+00 -0.33098789886E-01  0.31793508355E-01  0.88874449383E+00  0.88000000000E+00 0. -1.
        -11    1    4    4    0    0  0.48212952725E-01 -0.10017505391E-02 -0.21278295463E-01  0.52711661836E-01  0.51100000000E-03 0.  1.
         11    1    4    4    0    0  0.76201683443E-01  0.12505737724E-01 -0.15133877227E-01  0.78691711104E-01  0.51100000000E-03 0. -1.
</event>
<event>
 8    1  0.1142737E+005  0.1043930E+01  0.7957747E-01            NaN
         13   -1    0    0    0    0  0.00000000000E+00  0.00000000000E+00  0.74505805969E-08  0.10566000000E+00  0.10566000000E+00 0. -1.
     999900   -1    0    0    0    0 -0.00000000000E+00 -0.00000000000E+00 -0.74505805969E-08  0.93827000000E+00  0.93827000000E+00 0. -1.
     999902    2    1    2    0    0  0.13102488556E-01  0.12738080993E-01 -0.15652902819E-01  0.10198686767E+01  0.10195848029E+01 0.  0.
     999903    2    3    3    0    0  0.68511221449E-01 -0.61418314259E-02 -0.11166785288E+00  0.13271285642E+00  0.20285051953E-01 0.  0.
         14    1    1    2    0    0 -0.13102488556E-01 -0.12738080993E-01  0.15652902819E-01  0.24061323330E-01  0.00000000000E+00 0. -1.
     999901    1    3    3    0    0 -0.55408732894E-01  0.18879912418E-01  0.96014950066E-01  0.88715582025E+00  0.88000000000E+00 0.  1.
        -11    1    4    4    0    0  0.32840265509E-01  0.42133207012E-02 -0.39483143145E-01  0.51530717283E-01  0.51100000000E-03 0. -1.
         11    1    4    4    0    0  0.35670955941E-01 -0.10355152127E-01 -0.72184709739E-01  0.81182139134E-01  0.51100000000E-03 0.  1.
</event>
<event>
 8    1  0.1064884E+005  0.1043930E+01  0.7957747E-01            NaN
         13   -1    0    0    0    0  0.00000000000E+00  0.00000000000E+00  0.74505805969E-08  0.10566000000E+00  0.10566000000E+00 0. -1.
     999900   -1    0    0    0    0 -0.00000000000E+00 -0.00000000000E+00 -0.74505805969E-08  0.93827000000E+00  0.93827000000E+00 0.  1.
     999902    2    1    2    0    0  0.11125296809E-01  0.17327822066E-01 -0.10750027060E-01  0.10207009508E+01  0.10204365939E+01 0.  0.
     999903    2    3    3    0    0  0.42465877079E-01 -0.11919748011E+00  0.17383093746E-01  0.12917817338E+00  0.19324558155E-01 0.  0.
         14    1    1    2    0    0 -0.11125296809E-01 -0.17327822066E-01  0.10750027060E-01  0.23229049236E-01  0.00000000000E+00 0.  1.
     999901    1    3    3    0    0 -0.31340580270E-01  0.13652530218E+00 -0.28133120806E-01  0.89152277738E+00  0.88000000000E+00 0. -1.
        -11    1    4    4    0    0  0.16132874516E-01 -0.53308615907E-01 -0.16112849264E-02  0.55721948371E-01  0.51100000000E-03 0.  1.
         11    1    4    4    0    0  0.26333002563E-01 -0.65888864208E-01  0.18994378672E-01  0.73456225010E-01  0.51100000000E-03 0. -1.
</event>
<event>
 8    1  0.1064884E+005  0.1043930E+01  0.7957747E-01            NaN
         13   -1    0    0    0    0  0.00000000000E+00  0.00000000000E+00  0.74505805969E-08  0.10566000000E+00  0.10566000000E+00 0. -1.
     999900   -1    0    0    0    0 -0.00000000000E+00 -0.00000000000E+00 -0.74505805969E-08  0.93827000000E+00  0.93827000000E+00 0. -1.
     999902    2    1    2    0    0 -0.86375365527E-02  0.11834772024E-01  0.18804243816E-01  0.10200916181E+01  0.10198130421E+01 0.  0.
     999903    2    3    3    0    0  0.23902597187E-01  0.10087719515E+00 -0.77729067671E-01  0.12975118115E+00  0.67836860394E-02 0.  0.
         14    1    1    2    0    0  0.86375365527E-02 -0.11834772024E-01 -0.18804243816E-01  0.23838381909E-01  0.00000000000E+00 0.  1.
     999901    1    3    3    0    0 -0.32540133740E-01 -0.89042423125E-01  0.96533311486E-01  0.89034043694E+00  0.88000000000E+00 0.  1.
        -11    1    4    4    0    0  0.17961341767E-01  0.84960110595E-01 -0.63412687764E-01  0.10752795116E+00  0.51100000000E-03 0. -1.
         11    1    4    4    0    0  0.59412554196E-02  0.15917084554E-01 -0.14316379907E-01  0.22223229992E-01  0.51100000000E-03 0.  1.
</event>
<event>
 8    1  0.1064884E+005  0.1043930E+01  0.7957747E-01            NaN
         13   -1    0    0    0    0  0.00000000000E+00  0.00000000000E+00  0.74505805969E-08  0.10566000000E+00  0.10566000000E+00 0. -1.
     999900   -1    0    0    0    0 -0.00000000000E+00 -0.00000000000E+00 -0.74505805969E-08  0.93827000000E+00  0.93827000000E+00 0. -1.
     999902    2    1    2    0    0  0.22688011884E-03 -0.14321605353E-01 -0.18007369832E-01  0.10209207579E+01  0.10206614368E+01 0.  0.
     999903    2    3    3    0    0 -0.10610588346E+00 -0.50384417199E-01 -0.58995168880E-01  0.13284014067E+00  0.19210023933E-01 0.  0.
         14    1    1    2    0    0 -0.22688011884E-03  0.14321605353E-01  0.18007369832E-01  0.23009242116E-01  0.00000000000E+00 0. -1.
     999901    1    3    3    0    0  0.10633276358E+00  0.36062811846E-01  0.40987799048E-01  0.88808061722E+00  0.88000000000E+00 0.  1.
        -11    1    4    4    0    0 -0.53071604698E-01 -0.32193190894E-01 -0.22937080051E-01  0.66176789945E-01  0.51100000000E-03 0. -1.
         11    1    4    4    0    0 -0.53034278762E-01 -0.18191226305E-01 -0.36058088829E-01  0.66663350720E-01  0.51100000000E-03 0.  1.
</event>
<event>
 8    1  0.1064884E+005  0.1043930E+01  0.7957747E-01            NaN
         13   -1    0    0    0    0  0.00000000000E+00  0.00000000000E+00  0.74505805969E-08  0.10566000000E+00  0.10566000000E+00 0. -1.
     999900   -1    0    0    0    0 -0.00000000000E+00 -0.00000000000E+00 -0.74505805969E-08  0.93827000000E+00  0.93827000000E+00 0.  1.
     999902    2    1    2    0    0  0.10601752043E-01 -0.61490611406E-02  0.21769610241E-01  0.10189475256E+01  0.10186412204E+01 0.  0.
     999903    2    3    3    0    0 -0.10015338359E+00  0.65756318134E-01 -0.37656874933E-01  0.12711312906E+00  0.19624314741E-01 0.  0.
         14    1    1    2    0    0 -0.10601752043E-01  0.61490611406E-02 -0.21769610241E-01  0.24982474444E-01  0.00000000000E+00 0.  1.
     999901    1    3    3    0    0  0.11075513564E+00 -0.71905379275E-01  0.59426485173E-01  0.89183439650E+00  0.88000000000E+00 0.  1.
        -11    1    4    4    0    0 -0.90038544503E-01  0.54012235747E-01 -0.27379308722E-01  0.10850874976E+00  0.51100000000E-03 0.  1.
         11    1    4    4    0    0 -0.10114839092E-01  0.11744082387E-01 -0.10277566210E-01  0.18604379301E-01  0.51100000000E-03 0. -1.
</event>
<event>
 7    1  0.1064884E+005  0.1043930E+01  0.7957747E-01            NaN
         13   -1    0    0    0    0  0.00000000000E+00  0.00000000000E+00  0.74505805969E-08  0.10566000000E+00  0.10566000000E+00 0.  1.
     999900   -1    0    0    0    0 -0.00000000000E+00 -0.00000000000E+00 -0.74505805969E-08  0.93827000000E+00  0.93827000000E+00 0.  1.
     999903    2    1    2    0    0  0.15227183481E-01 -0.37076876799E-01 -0.83925266933E-01  0.95273537947E-01  0.20664817767E-01 0.  0.
         14    1    1    2    0    0  0.47683923476E-01  0.70267154274E-02  0.43576601740E-01  0.64977315326E-01  0.00000000000E+00 0. -1.
     999901    1    1    2    0    0 -0.62911106957E-01  0.30050161371E-01  0.40348665193E-01  0.88367914673E+00  0.88000000000E+00 0. -1.
        -11    1    3    3    0    0  0.17877125634E-01 -0.34167660259E-01 -0.62175309450E-01  0.73164546433E-01  0.51100000000E-03 0. -1.
         11    1    3    3    0    0 -0.26499421532E-02 -0.29092165400E-02 -0.21749957483E-01  0.22108991515E-01  0.51100000000E-03 0.  1.
</event>
<event>
 8    1  0.1064884E+005  0.1043930E+01  0.7957747E-01            NaN
         13   -1    0    0    0    0  0.00000000000E+00  0.00000000000E+00  0.74505805969E-08  0.10566000000E+00  0.10566000000E+00 0.  1.
     999900   -1    0    0    0    0 -0.00000000000E+00 -0.00000000000E+00 -0.74505805969E-08  0.93827000000E+00  0.93827000000E+00 0. -1.
     999902    2    1    2    0    0  0.51045037463E-02 -0.22544218723E-01 -0.30655543585E-02  0.10206127236E+01  0.10203463315E+01 0.  0.
     999903    2    3    3    0    0  0.30269983575E-01 -0.42734346286E-01 -0.11992636723E+00  0.13230118351E+00  0.19462100158E-01 0.  0.
         14    1    1    2    0    0 -0.51045037463E-02  0.22544218723E-01  0.30655543585E-02  0.23317276424E-01  0.00000000000E+00 0.  1.
     999901    1    3    3    0    0 -0.25165479829E-01  0.20190127563E-01  0.11686081287E+00  0.88831154006E+00  0.88000000000E+00 0.  1.
        -11    1    4    4    0    0  0.17997734926E-01 -0.35544760984E-01 -0.71804610043E-01  0.82118887233E-01  0.51100000000E-03 0.  1.
         11    1    4    4    0    0  0.12272248649E-01 -0.71895853022E-02 -0.48121757190E-01  0.50182296279E-01  0.51100000000E-03 0. -1.
</event>
<event>
 8    1  0.1064884E+005  0.1043930E+01  0.7957747E-01            NaN
         13   -1    0    0    0    0  0.00000000000E+00  0.00000000000E+00  0.74505805969E-08  0.10566000000E+00  0.10566000000E+00 0.  1.
     999900   -1    0    0    0    0 -0.00000000000E+00 -0.00000000000E+00 -0.74505805969E-08  0.93827000000E+00  0.93827000000E+00 0. -1.
     999902    2    1    2    0    0 -0.15432905645E-01 -0.13564430177E-02  0.18317977292E-01  0.10199391099E+01  0.10196569154E+01 0.  0.
     999903    2    3    3    0    0 -0.60573837925E-01 -0.76012476386E-01 -0.83574730399E-01  0.12977432127E+00  0.20237403315E-01 0.  0.
         14    1    1    2    0    0  0.15432905645E-01  0.13564430177E-02 -0.18317977292E-01  0.23990890070E-01  0.00000000000E+00 0. -1.
     999901    1    3    3    0    0  0.45140932280E-01  0.74656033369E-01  0.10189270769E+00  0.89016478866E+00  0.88000000000E+00 0.  1.
        -11    1    4    4    0    0 -0.48985454386E-01 -0.55764343291E-01 -0.52512786495E-01  0.90923542554E-01  0.51100000000E-03 0. -1.
         11    1    4    4    0    0 -0.11588383539E-01 -0.20248133096E-01 -0.31061943904E-01  0.38850778718E-01  0.51100000000E-03 0.  1.
</event>
<event>
 8    1  0.1064884E+005  0.1043930E+01  0.7957747E-01            NaN
         13   -1    0    0    0    0  0.00000000000E+00  0.00000000000E+00  0.74505805969E-08  0.10566000000E+00  0.10566000000E+00 0.  1.
     999900   -1    0    0    0    0 -0.00000000000E+00 -0.00000000000E+00 -0.74505805969E-08  0.93827000000E+00  0.93827000000E+00 0. -1.
     999902    2    1    2    0    0  0.11646426097E-01  0.19092416039E-01  0.99283530282E-02  0.10194610036E+01  0.10191673101E+01 0.  0.
     999903    2    3    3    0    0  0.10606240926E-01  0.32809505293E-01  0.12562426429E+00  0.13178156574E+00  0.19898977504E-01 0.  0.
         14    1    1    2    0    0 -0.11646426097E-01 -0.19092416039E-01 -0.99283530282E-02  0.24468996402E-01  0.00000000000E+00 0. -1.
     999901    1    3    3    0    0  0.10401851709E-02 -0.13717089254E-01 -0.11569591126E+00  0.88767943786E+00  0.88000000000E+00 0. -1.
        -11    1    4    4    0    0 -0.24072127372E-02  0.12697765274E-01  0.70478190389E-01  0.71655176768E-01  0.51100000000E-03 0. -1.
         11    1    4    4    0    0  0.13013453664E-01  0.20111740019E-01  0.55146073898E-01  0.60126388967E-01  0.51100000000E-03 0.  1.
</event>
<event>
 8    1  0.1064884E+005  0.1043930E+01  0.7957747E-01            NaN
         13   -1    0    0    0    0  0.00000000000E+00  0.00000000000E+00  0.74505805969E-08  0.10566000000E+00  0.10566000000E+00 0.  1.
     999900   -1    0    0    0    0 -0.00000000000E+00 -0.00000000000E+00 -0.74505805969E-08  0.93827000000E+00  0.93827000000E+00 0. -1.
     999902    2    1    2    0    0  0.37704430892E-02 -0.22323648898E-01  0.98439272467E-02  0.10192426663E+01  0.10189436434E+01 0.  0.
     999903    2    3    3    0    0  0.11922081811E+00  0.38239157797E-01  0.26675242387E-01  0.12947868872E+00  0.19424871084E-01 0.  0.
         14    1    1    2    0    0 -0.37704430892E-02  0.22323648898E-01 -0.98439272467E-02  0.24687333693E-01  0.00000000000E+00 0.  1.
     999901    1    3    3    0    0 -0.11545037502E+00 -0.60562806696E-01 -0.16831315140E-01  0.88976397759E+00  0.88000000000E+00 0. -1.
        -11    1    4    4    0    0  0.52916416047E-01  0.27065377876E-01  0.11333213801E-01  0.60509376322E-01  0.51100000000E-03 0. -1.
         11    1    4    4    0    0  0.66304402059E-01  0.11173779921E-01  0.15342028586E-01  0.68969312395E-01  0.51100000000E-03 0.  1.
</event>
<event>
 8    1  0.1064884E+005  0.1043930E+01  0.7957747E-01            NaN
         13   -1    0    0    0    0  0.00000000000E+00  0.00000000000E+00  0.74505805969E-08  0.10566000000E+00  0.10566000000E+00 0. -1.
     999900   -1    0    0    0    0 -0.00000000000E+00 -0.00000000000E+00 -0.74505805969E-08  0.93827000000E+00  0.93827000000E+00 0.  1.
     999902    2    1    2    0    0  0.11720739232E-01 -0.11965503229E-02  0.21011511771E-01  0.10198407682E+01  0.10195562277E+01 0.  0.
     999903    2    3    3    0    0  0.10581449378E+00 -0.34242880682E-01  0.71501030724E-01  0.13276980932E+00  0.12088957827E-01 0.  0.
         14    1    1    2    0    0 -0.11720739232E-01  0.11965503229E-02 -0.21011511771E-01  0.24089231779E-01  0.00000000000E+00 0. -1.
     999901    1    3    3    0    0 -0.94093754550E-01  0.33046330359E-01 -0.50489518953E-01  0.88707095890E+00  0.88000000000E+00 0. -1.
        -11    1    4    4    0    0  0.71099353418E-01 -0.28402646281E-01  0.46329432044E-01  0.89490255149E-01  0.51100000000E-03 0.  1.
         11    1    4    4    0    0  0.34715140364E-01 -0.58402344014E-02  0.25171598681E-01  0.43279554174E-01  0.51100000000E-03 0. -1.
</event>
<event>
 8    1  0.1064884E+005  0.1043930E+01  0.7957747E-01            NaN
         13   -1    0    0    0    0  0.00000000000E+00  0.00000000000E+00  0.74505805969E-08  0.10566000000E+00  0.10566000000E+00 0. -1.
     999900   -1    0    0    0    0 -0.00000000000E+00 -0.00000000000E+00 -0.74505805969E-08  0.93827000000E+00  0.93827000000E+00 0. -1.
     999902    2    1    2    0    0  0.14775249508E-01  0.91223634583E-02 -0.16458912296E-01  0.10200046723E+01  0.10197240363E+01 0.  0.
     999903    2    3    3    0    0  0.55302802122E-01 -0.73237148639E-01  0.87847435062E-01  0.12910322662E+00  0.22986766068E-01 0.  0.
         14    1    1    2    0    0 -0.14775249508E-01 -0.91223634583E-02  0.16458912296E-01  0.23925327731E-01  0.00000000000E+00 0. -1.
     999901    1    3    3    0    0 -0.40527552614E-01  0.82359512097E-01 -0.10430634736E+00  0.89090144565E+00  0.88000000000E+00 0. -1.
        -11    1    4    4    0    0  0.21981151677E-01 -0.14562120425E-01  0.32328332145E-01  0.41720601153E-01  0.51100000000E-03 0. -1.
         11    1    4    4    0    0  0.33321650445E-01 -0.58675028214E-01  0.55519102917E-01  0.87382625470E-01  0.51100000000E-03 0.  1.
</event>
<event>
 8    1  0.1064884E+005  0.1043930E+01  0.7957747E-01            NaN
         13   -1    0    0    0    0  0.00000000000E+00  0.00000000000E+00  0.74505805969E-08  0.10566000000E+00  0.10566000000E+00 0. -1.
     999900   -1    0    0    0    0 -0.00000000000E+00 -0.00000000000E+00 -0.74505805969E-08  0.93827000000E+00  0.93827000000E+00 0. -1.
     999902    2    1    2    0    0  0.21623597974E-01  0.91133532759E-02  0.14369830787E-02  0.10204204675E+01  0.10201496128E+01 0.  0.
     999903    2    3    3    0    0  0.11466991785E+00  0.29383899883E-01 -0.57867469254E-01  0.13329841798E+00  0.20179707781E-01 0.  0.
         14    1    1    2    0    0 -0.21623597974E-01 -0.91133532759E-02 -0.14369830787E-02  0.23509532485E-01  0.00000000000E+00 0.  1.
     999901    1    3    3    0    0 -0.93046319877E-01 -0.20270546608E-01  0.59304452333E-01  0.88712204953E+00  0.88000000000E+00 0. -1.
        -11    1    4    4    0    0  0.58862870292E-01  0.18023719649E-01 -0.40750897719E-01  0.73828102744E-01  0.51100000000E-03 0. -1.
         11    1    4    4    0    0  0.55807047560E-01  0.11360180234E-01 -0.17116571535E-01  0.59470315237E-01  0.51100000000E-03 0.  1.
</event>
<event>
 8    1  0.1064884E+005  0.1043930E+01  0.7957747E-01            NaN
         13   -1    0    0    0    0  0.00000000000E+00  0.00000000000E+00  0.74505805969E-08  0.10566000000E+00  0.10566000000E+00 0. -1.
     999900   -1    0    0    0    0 -0.00000000000E+00 -0.00000000000E+00 -0.74505805969E-08  0.93827000000E+00  0.93827000000E+00 0.  1.
     999902    2    1    2    0    0 -0.14572435193E-01 -0.17925535763E-01  0.70672315434E-02  0.10197716379E+01  0.10194854422E+01 0.  0.
     999903    2    3    3    0    0  0.88950993125E-01  0.83961699613E-01  0.29991773034E-01  0.12757006671E+00  0.20316724436E-01 0.  0.
         14    1    1    2    0    0  0.14572435193E-01  0.17925535763E-01 -0.70672315434E-02  0.24158362146E-01  0.00000000000E+00 0.  1.
     999901    1    3    3    0    0 -0.10352342832E+00 -0.10188723538E+00 -0.22924541490E-01  0.89220157114E+00  0.88000000000E+00 0.  1.
        -11    1    4    4    0    0  0.15405011265E-01  0.24130797214E-01  0.19500725528E-02  0.28699715159E-01  0.51100000000E-03 0. -1.
         11    1    4    4    0    0  0.73545981860E-01  0.59830902399E-01  0.28041700481E-01  0.98870351554E-01  0.51100000000E-03 0.  1.
</event>
<event>
 8    1  0.1064884E+005  0.1043930E+01  0.7957747E-01            NaN
         13   -1    0    0    0    0  0.00000000000E+00  0.00000000000E+00  0.74505805969E-08  0.10566000000E+00  0.10566000000E+00 0. -1.
     999900   -1    0    0    0    0 -0.00000000000E+00 -0.00000000000E+00 -0.74505805969E-08  0.93827000000E+00  0.93827000000E+00 0. -1.
     999902    2    1    2    0    0  0.20760819268E-01  0.11182883105E-01  0.66339508263E-02  0.10194335146E+01  0.10191391529E+01 0.  0.
     999903    2    3    3    0    0 -0.12378497846E+00  0.51118081849E-02 -0.22666730828E-01  0.12713935040E+00  0.17371881272E-01 0.  0.
         14    1    1    2    0    0 -0.20760819268E-01 -0.11182883105E-01 -0.66339508263E-02  0.24496485356E-01  0.00000000000E+00 0. -1.
     999901    1    3    3    0    0  0.14454579773E+00  0.60710749200E-02  0.29300681655E-01  0.89229416424E+00  0.88000000000E+00 0.  1.
        -11    1    4    4    0    0 -0.10585439062E+00  0.34593064515E-02 -0.13032259062E-01  0.10671091655E+00  0.51100000000E-03 0. -1.
         11    1    4    4    0    0 -0.17930587845E-01  0.16525017334E-02 -0.96344717660E-02  0.20428433852E-01  0.51100000000E-03 0.  1.
</event>
<event>
 8    1  0.1064884E+005  0.1043930E+01  0.7957747E-01            NaN
         13   -1    0    0    0    0  0.00000000000E+00  0.00000000000E+00  0.74505805969E-08  0.10566000000E+00  0.10566000000E+00 0. -1.
     999900   -1    0    0    0    0 -0.00000000000E+00 -0.00000000000E+00 -0.74505805969E-08  0.93827000000E+00  0.93827000000E+00 0. -1.
     999902    2    1    2    0    0  0.56113407235E-02 -0.16027578859E-01 -0.68195459995E-02  0.10256303651E+01  0.10254670981E+01 0.  0.
     999903    2    3    3    0    0  0.17250019002E-01  0.12718331206E+00 -0.31879714652E-01  0.13362541550E+00  0.19138376070E-01 0.  0.
         14    1    1    2    0    0 -0.56113407235E-02  0.16027578859E-01  0.68195459995E-02  0.18299634872E-01  0.00000000000E+00 0. -1.
     999901    1    3    3    0    0 -0.11638678279E-01 -0.14321089092E+00  0.25060168652E-01  0.89200494963E+00  0.88000000000E+00 0. -1.
        -11    1    4    4    0    0 -0.24170019041E-03  0.57310588051E-01 -0.19492114787E-01  0.60537307354E-01  0.51100000000E-03 0.  1.
         11    1    4    4    0    0  0.17491719193E-01  0.69872724010E-01 -0.12387599865E-01  0.73088108145E-01  0.51100000000E-03 0. -1.
</event>
<event>
 8    1  0.1064884E+005  0.1043930E+01  0.7957747E-01            NaN
         13   -1    0    0    0    0  0.00000000000E+00  0.00000000000E+00  0.74505805969E-08  0.10566000000E+00  0.10566000000E+00 0.  1.
     999900   -1    0    0    0    0 -0.00000000000E+00 -0.00000000000E+00 -0.74505805969E-08  0.93827000000E+00  0.93827000000E+00 0.  1.
     999902    2    1    2    0    0 -0.22538986142E-01  0.70581860870E-02 -0.29499735645E-02  0.10201281885E+01  0.10198504766E+01 0.  0.
     999903    2    3    3    0    0 -0.54590599497E-01  0.11797957078E+00  0.14967796503E-01  0.13240531169E+00  0.20194527933E-01 0.  0.
         14    1    1    2    0    0  0.22538986142E-01 -0.70581860870E-02  0.29499735645E-02  0.23801811511E-01  0.00000000000E+00 0.  1.
     999901    1    3    3    0    0  0.32051613355E-01 -0.11092138469E+00 -0.17917770067E-01  0.88772287679E+00  0.88000000000E+00 0.  1.
        -11    1    4    4    0    0 -0.54595929404E-02  0.24799357120E-01 -0.28878343792E-02  0.25562002602E-01  0.51100000000E-03 0.  1.
         11    1    4    4    0    0 -0.49131006556E-01  0.93180213658E-01  0.17855630882E-01  0.10684330909E+00  0.51100000000E-03 0. -1.
</event>
<event>
 8    1  0.1064884E+005  0.1043930E+01  0.7957747E-01            NaN
         13   -1    0    0    0    0  0.00000000000E+00  0.00000000000E+00  0.74505805969E-08  0.10566000000E+00  0.10566000000E+00 0.  1.
     999900   -1    0    0    0    0 -0.00000000000E+00 -0.00000000000E+00 -0.74505805969E-08  0.93827000000E+00  0.93827000000E+00 0.  1.
     999902    2    1    2    0    0  0.15815032687E-01  0.13473040867E-02 -0.29517788016E-01  0.10104153719E+01  0.10098593929E+01 0.  0.
     999903    2    3    3    0    0  0.15608141140E-01 -0.78968512006E-01 -0.92801748031E-01  0.12449464593E+00  0.20177028239E-01 0.  0.
         14    1    1    2    0    0 -0.15815032687E-01 -0.13473040867E-02  0.29517788016E-01  0.33514628098E-01  0.00000000000E+00 0.  1.
     999901    1    3    3    0    0  0.20689154703E-03  0.80315816092E-01  0.63283960015E-01  0.88592072598E+00  0.88000000000E+00 0. -1.
        -11    1    4    4    0    0  0.14110177401E-01 -0.23489638559E-01 -0.28161095055E-01  0.39295911004E-01  0.51100000000E-03 0.  1.
         11    1    4    4    0    0  0.14979637382E-02 -0.55478873447E-01 -0.64640652975E-01  0.85198734922E-01  0.51100000000E-03 0. -1.
</event>
<event>
 8    1  0.1064884E+005  0.1043930E+01  0.7957747E-01            NaN
         13   -1    0    0    0    0  0.00000000000E+00  0.00000000000E+00  0.74505805969E-08  0.10566000000E+00  0.10566000000E+00 0.  1.
     999900   -1    0    0    0    0 -0.00000000000E+00 -0.00000000000E+00 -0.74505805969E-08  0.93827000000E+00  0.93827000000E+00 0.  1.
     999902    2    1    2    0    0 -0.49592775812E-02 -0.18259847718E-01 -0.13149559771E-01  0.10208881382E+01  0.10206280730E+01 0.  0.
     999903    2    3    3    0    0 -0.10676285424E+00 -0.75288844631E-01  0.12291606014E-01  0.13282083916E+00  0.20580927247E-01 0.  0.
         14    1    1    2    0    0  0.49592775812E-02  0.18259847718E-01  0.13149559771E-01  0.23041861795E-01  0.00000000000E+00 0. -1.
     999901    1    3    3    0    0  0.10180357666E+00  0.57028996913E-01 -0.25441165785E-01  0.88806729904E+00  0.88000000000E+00 0.  1.
        -11    1    4    4    0    0 -0.49551210166E-01 -0.46591404071E-01  0.24526599054E-02  0.68061428311E-01  0.51100000000E-03 0. -1.
         11    1    4    4    0    0 -0.57211644075E-01 -0.28697440561E-01  0.98389461085E-02  0.64759410853E-01  0.51100000000E-03 0.  1.
</event>
<event>
 8    1  0.1064884E+005  0.1043930E+01  0.7957747E-01            NaN
         13   -1    0    0    0    0  0.00000000000E+00  0.00000000000E+00  0.74505805969E-08  0.10566000000E+00  0.10566000000E+00 0.  1.
     999900   -1    0    0    0    0 -0.00000000000E+00 -0.00000000000E+00 -0.74505805969E-08  0.93827000000E+00  0.93827000000E+00 0.  1.
     999902    2    1    2    0    0  0.21728863331E-01  0.31597434294E-02  0.10740761129E-01  0.10194863622E+01  0.10191932845E+01 0.  0.
     999903    2    3    3    0    0 -0.11588084452E-01 -0.71413711941E-01 -0.10394020258E+00  0.12829449581E+00  0.20535578547E-01 0.  0.
         14    1    1    2    0    0 -0.21728863331E-01 -0.31597434294E-02 -0.10740761129E-01  0.24443637820E-01  0.00000000000E+00 0. -1.
     999901    1    3    3    0    0  0.33316947783E-01  0.74573455371E-01  0.11468096371E+00  0.89119186638E+00  0.88000000000E+00 0. -1.
        -11    1    4    4    0    0  0.39296082220E-02 -0.12009670077E-01 -0.27344025542E-01  0.30126912387E-01  0.51100000000E-03 0. -1.
         11    1    4    4    0    0 -0.15517692674E-01 -0.59404041864E-01 -0.76596177042E-01  0.98167583418E-01  0.51100000000E-03 0.  1.
</event>
<event>
 8    1  0.1064884E+005  0.1043930E+01  0.7957747E-01            NaN
         13   -1    0    0    0    0  0.00000000000E+00  0.00000000000E+00  0.74505805969E-08  0.10566000000E+00  0.10566000000E+00 0.  1.
     999900   -1    0    0    0    0 -0.00000000000E+00 -0.00000000000E+00 -0.74505805969E-08  0.93827000000E+00  0.93827000000E+00 0.  1.
     999902    2    1    2    0    0 -0.31452844778E-02 -0.17076391100E-01  0.17040374530E-01  0.10196016151E+01  0.10193113279E+01 0.  0.
     999903    2    3    3    0    0  0.12108467747E+00 -0.15871429216E-01  0.41735223596E-01  0.13053223033E+00  0.19581442320E-01 0.  0.
         14    1    1    2    0    0  0.31452844778E-02  0.17076391100E-01 -0.17040374530E-01  0.24328384894E-01  0.00000000000E+00 0. -1.
     999901    1    3    3    0    0 -0.12422996194E+00 -0.12049618832E-02 -0.24694849067E-01  0.88906938478E+00  0.88000000000E+00 0.  1.
        -11    1    4    4    0    0  0.86661005220E-01 -0.14518673245E-01  0.21088241249E-01  0.90365351427E-01  0.51100000000E-03 0. -1.
         11    1    4    4    0    0  0.34423672247E-01 -0.13527559719E-02  0.20646982347E-01  0.40166878902E-01  0.51100000000E-03 0.  1.
</event>
<event>
 8    1  0.1064884E+005  0.1043930E+01  0.7957747E-01            NaN
         13   -1    0    0    0    0  0.00000000000E+00  0.00000000000E+00  0.74505805969E-08  0.10566000000E+00  0.10566000000E+00 0. -1.
     999900   -1    0    0    0    0 -0.00000000000E+00 -0.00000000000E+00 -0.74505805969E-08  0.93827000000E+00  0.93827000000E+00 0.  1.
     999902    2    1    2    0    0  0.23377948602E-01 -0.24914115360E-02  0.39837877871E-02  0.10200845355E+01  0.10198057920E+01 0.  0.
     999903    2    3    3    0    0  0.58235569074E-01 -0.92866151607E-01  0.71573950776E-01  0.13219316969E+00  0.18349388605E-01 0.  0.
         14    1    1    2    0    0 -0.23377948602E-01  0.24914115360E-02 -0.39837877871E-02  0.23845464504E-01  0.00000000000E+00 0.  1.
     999901    1    3    3    0    0 -0.34857620472E-01  0.90374740071E-01 -0.67590162989E-01  0.88789136581E+00  0.88000000000E+00 0.  1.
        -11    1    4    4    0    0  0.41032119035E-01 -0.61425820285E-01  0.57791598285E-01  0.93791770127E-01  0.51100000000E-03 0. -1.
         11    1    4    4    0    0  0.17203450039E-01 -0.31440331322E-01  0.13782352491E-01  0.38401399559E-01  0.51100000000E-03 0.  1.
</event>
<event>
 8    1  0.1064884E+005  0.1043930E+01  0.7957747E-01            NaN
         13   -1    0    0    0    0  0.00000000000E+00  0.00000000000E+00  0.74505805969E-08  0.10566000000E+00  0.10566000000E+00 0.  1.
     999900   -1    0    0    0    0 -0.00000000000E+00 -0.00000000000E+00 -0.74505805969E-08  0.93827000000E+00  0.93827000000E+00 0. -1.
     999902    2    1    2    0    0  0.22725187194E-01 -0.76068674092E-02  0.27485100312E-02  0.10198083734E+01  0.10195230578E+01 0.  0.
     999903    2    3    3    0    0  0.10369424300E+00  0.78670990918E-01  0.88505109944E-02  0.13186857176E+00  0.19218944573E-01 0.  0.
         14    1    1    2    0    0 -0.22725187194E-01  0.76068674092E-02 -0.27485100312E-02  0.24121626649E-01  0.00000000000E+00 0.  1.
     999901    1    3    3    0    0 -0.80969055802E-01 -0.86277858327E-01 -0.61020009632E-02  0.88793980159E+00  0.88000000000E+00 0. -1.
        -11    1    4    4    0    0  0.49148796304E-01  0.30175302429E-01  0.11593235078E-01  0.58828711319E-01  0.51100000000E-03 0.  1.
         11    1    4    4    0    0  0.54545446692E-01  0.48495688489E-01 -0.27427240834E-02  0.73039860441E-01  0.51100000000E-03 0. -1.
</event>
<event>
 8    1  0.1064884E+005  0.1043930E+01  0.7957747E-01            NaN
         13   -1    0    0    0    0  0.00000000000E+00  0.00000000000E+00  0.74505805969E-08  0.10566000000E+00  0.10566000000E+00 0. -1.
     999900   -1    0    0    0    0 -0.00000000000E+00 -0.00000000000E+00 -0.74505805969E-08  0.93827000000E+00  0.93827000000E+00 0.  1.
     999902    2    1    2    0    0  0.11401205169E-01 -0.20141433294E-01  0.72243390248E-02  0.10196842604E+01  0.10193959658E+01 0.  0.
     999903    2    3    3    0    0 -0.20418752209E-01 -0.11989352191E+00  0.48719872559E-01  0.13250622405E+00  0.19821488189E-01 0.  0.
         14    1    1    2    0    0 -0.11401205169E-01  0.20141433294E-01 -0.72243390248E-02  0.24245739601E-01  0.00000000000E+00 0. -1.
     999901    1    3    3    0    0  0.31819957378E-01  0.99752088612E-01 -0.41495533534E-01  0.88717803635E+00  0.88000000000E+00 0. -1.
        -11    1    4    4    0    0 -0.46721555640E-03 -0.59630396712E-01  0.20827702546E-01  0.63166896527E-01  0.51100000000E-03 0. -1.
         11    1    4    4    0    0 -0.19951536653E-01 -0.60263125194E-01  0.27892170012E-01  0.69339327527E-01  0.51100000000E-03 0.  1.
</event>
<event>
 8    1  0.1064884E+005  0.1043930E+01  0.7957747E-01            NaN
         13   -1    0    0    0    0  0.00000000000E+00  0.00000000000E+00  0.74505805969E-08  0.10566000000E+00  0.10566000000E+00 0.  1.
     999900   -1    0    0    0    0 -0.00000000000E+00 -0.00000000000E+00 -0.74505805969E-08  0.93827000000E+00  0.93827000000E+00 0. -1.
     999902    2    1    2    0    0 -0.12632737057E-01 -0.79935070738E-02 -0.17094915670E-01  0.10212205671E+01  0.10209680349E+01 0.  0.
     999903    2    3    3    0    0 -0.11292576997E+00 -0.23371905977E-01  0.60797609826E-01  0.13197232666E+00  0.20539477372E-01 0.  0.
         14    1    1    2    0    0  0.12632737057E-01  0.79935070738E-02  0.17094915670E-01  0.22709432900E-01  0.00000000000E+00 0.  1.
     999901    1    3    3    0    0  0.10029303291E+00  0.15378398903E-01 -0.77892525496E-01  0.88924824044E+00  0.88000000000E+00 0. -1.
        -11    1    4    4    0    0 -0.38186917856E-01 -0.17892120192E-01  0.23033212678E-01  0.48053706076E-01  0.51100000000E-03 0. -1.
         11    1    4    4    0    0 -0.74738852112E-01 -0.54797857849E-02  0.37764397148E-01  0.83918620581E-01  0.51100000000E-03 0.  1.
</event>
<event>
 8    1  0.1064884E+005  0.1043930E+01  0.7957747E-01            NaN
         13   -1    0    0    0    0  0.00000000000E+00  0.00000000000E+00  0.74505805969E-08  0.10566000000E+00  0.10566000000E+00 0. -1.
     999900   -1    0    0    0    0 -0.00000000000E+00 -0.00000000000E+00 -0.74505805969E-08  0.93827000000E+00  0.93827000000E+00 0. -1.
     999902    2    1    2    0    0  0.13913934927E-01  0.14033820453E-01 -0.13016344768E-01  0.10202662950E+01  0.10199918342E+01 0.  0.
     999903    2    3    3    0    0 -0.11175821535E+00 -0.51540308577E-01 -0.31487547077E-01  0.12873130353E+00  0.20832205377E-01 0.  0.
         14    1    1    2    0    0 -0.13913934927E-01 -0.14033820453E-01  0.13016344768E-01  0.23663704968E-01  0.00000000000E+00 0.  1.
     999901    1    3    3    0    0  0.12567215028E+00  0.65574129030E-01  0.18471202310E-01  0.89153499150E+00  0.88000000000E+00 0. -1.
        -11    1    4    4    0    0 -0.17348783085E-01 -0.74948618598E-02 -0.12949459780E-01  0.22915122920E-01  0.51100000000E-03 0.  1.
         11    1    4    4    0    0 -0.94409432269E-01 -0.44045446717E-01 -0.18538087298E-01  0.10581618061E+00  0.51100000000E-03 0. -1.
</event>
<event>
 8    1  0.1064884E+005  0.1043930E+01  0.7957747E-01            NaN
         13   -1    0    0    0    0  0.00000000000E+00  0.00000000000E+00  0.74505805969E-08  0.10566000000E+00  0.10566000000E+00 0.  1.
     999900   -1    0    0    0    0 -0.00000000000E+00 -0.00000000000E+00 -0.74505805969E-08  0.93827000000E+00  0.93827000000E+00 0. -1.
     999902    2    1    2    0    0  0.38352999052E-02  0.76744767257E-02  0.22292983245E-01  0.10200430952E+01  0.10197633705E+01 0.  0.
     999903    2    3    3    0    0 -0.12241699392E+00 -0.99726256084E-02 -0.34572355014E-01  0.12904100284E+00  0.19260296482E-01 0.  0.
         14    1    1    2    0    0 -0.38352999052E-02 -0.76744767257E-02 -0.22292983245E-01  0.23886904788E-01  0.00000000000E+00 0. -1.
     999901    1    3    3    0    0  0.12625229383E+00  0.17647102334E-01  0.56865338259E-01  0.89100209237E+00  0.88000000000E+00 0.  1.
        -11    1    4    4    0    0 -0.37325140567E-01  0.48340842526E-02 -0.14724259154E-01  0.40417810648E-01  0.51100000000E-03 0. -1.
         11    1    4    4    0    0 -0.85091853353E-01 -0.14806709861E-01 -0.19848095860E-01  0.88623192192E-01  0.51100000000E-03 0.  1.
</event>
<event>
 8    1  0.1064884E+005  0.1043930E+01  0.7957747E-01            NaN
         13   -1    0    0    0    0  0.00000000000E+00  0.00000000000E+00  0.74505805969E-08  0.10566000000E+00  0.10566000000E+00 0.  1.
     999900   -1    0    0    0    0 -0.00000000000E+00 -0.00000000000E+00 -0.74505805969E-08  0.93827000000E+00  0.93827000000E+00 0. -1.
     999902    2    1    2    0    0 -0.11722207318E-01 -0.16579873090E-01 -0.12949220440E-01  0.10198471296E+01  0.10195627411E+01 0.  0.
     999903    2    3    3    0    0 -0.11775055704E+00 -0.57496371367E-01 -0.16823816870E-03  0.13244669898E+00  0.19263264621E-01 0.  0.
         14    1    1    2    0    0  0.11722207318E-01  0.16579873090E-01  0.12949220440E-01  0.24082870387E-01  0.00000000000E+00 0.  1.
     999901    1    3    3    0    0  0.10602834972E+00  0.40916498277E-01 -0.12780982271E-01  0.88740043063E+00  0.88000000000E+00 0. -1.
        -11    1    4    4    0    0 -0.61810434112E-01 -0.35725646064E-01 -0.82766017407E-02  0.71872211662E-01  0.51100000000E-03 0.  1.
         11    1    4    4    0    0 -0.55940122927E-01 -0.21770725303E-01  0.81083635720E-02  0.60574487320E-01  0.51100000000E-03 0. -1.
</event>
<event>
 8    1  0.1064884E+005  0.1043930E+01  0.7957747E-01            NaN
         13   -1    0    0    0    0  0.00000000000E+00  0.00000000000E+00  0.74505805969E-08  0.10566000000E+00  0.10566000000E+00 0. -1.
     999900   -1    0    0    0    0 -0.00000000000E+00 -0.00000000000E+00 -0.74505805969E-08  0.93827000000E+00  0.93827000000E+00 0. -1.
     999902    2    1    2    0    0 -0.76956560733E-02 -0.97285506745E-02  0.20195476711E-01  0.10202292595E+01  0.10199539288E+01 0.  0.
     999903    2    3    3    0    0 -0.12526166488E+00  0.34091329621E-01  0.70242988048E-02  0.13123239322E+00  0.17885659358E-01 0.  0.
         14    1    1    2    0    0  0.76956560733E-02  0.97285506745E-02 -0.20195476711E-01  0.23700740499E-01  0.00000000000E+00 0.  1.
     999901    1    3    3    0    0  0.11756600881E+00 -0.43819880296E-01  0.13171177906E-01  0.88899686628E+00  0.88000000000E+00 0.  1.
        -11    1    4    4    0    0 -0.52610068956E-01  0.58150018674E-02 -0.23244426319E-03  0.52933437010E-01  0.51100000000E-03 0. -1.
         11    1    4    4    0    0 -0.72651595928E-01  0.28276327754E-01  0.72567430680E-02  0.78298956207E-01  0.51100000000E-03 0.  1.
</event>
<event>
 8    1  0.1064884E+005  0.1043930E+01  0.7957747E-01            NaN
         13   -1    0    0    0    0  0.00000000000E+00  0.00000000000E+00  0.74505805969E-08  0.10566000000E+00  0.10566000000E+00 0.  1.
     999900   -1    0    0    0    0 -0.00000000000E+00 -0.00000000000E+00 -0.74505805969E-08  0.93827000000E+00  0.93827000000E+00 0. -1.
     999902    2    1    2    0    0 -0.53254776297E-02  0.21257497975E-01 -0.12725397654E-01  0.10185887751E+01  0.10182734972E+01 0.  0.
     999903    2    3    3    0    0 -0.10582743172E+00 -0.60035427419E-01  0.33408043865E-01  0.12794997241E+00  0.21246180711E-01 0.  0.
         14    1    1    2    0    0  0.53254776297E-02 -0.21257497975E-01  0.12725397654E-01  0.25341224864E-01  0.00000000000E+00 0.  1.
     999901    1    3    3    0    0  0.10050195409E+00  0.81292925395E-01 -0.46133441519E-01  0.89063880273E+00  0.88000000000E+00 0. -1.
        -11    1    4    4    0    0 -0.51181652107E-01 -0.40608419461E-01  0.21107168509E-01  0.68661335022E-01  0.51100000000E-03 0.  1.
         11    1    4    4    0    0 -0.54645779614E-01 -0.19427007958E-01  0.12300875356E-01  0.59288637388E-01  0.51100000000E-03 0. -1.
</event>
<event>
 8    1  0.1064884E+005  0.1043930E+01  0.7957747E-01            NaN
         13   -1    0    0    0    0  0.00000000000E+00  0.00000000000E+00  0.74505805969E-08  0.10566000000E+00  0.10566000000E+00 0. -1.
     999900   -1    0    0    0    0 -0.00000000000E+00 -0.00000000000E+00 -0.74505805969E-08  0.93827000000E+00  0.93827000000E+00 0. -1.
     999902    2    1    2    0    0  0.38649571090E-02 -0.17903619290E-01 -0.11385600725E-01  0.10223636053E+01  0.10221361123E+01 0.  0.
     999903    2    3    3    0    0  0.12682877480E+00 -0.48631098328E-02 -0.37098225703E-01  0.13334656696E+00  0.17200017877E-01 0.  0.
         14    1    1    2    0    0 -0.38649571090E-02  0.17903619290E-01  0.11385600725E-01  0.21566394715E-01  0.00000000000E+00 0. -1.
     999901    1    3    3    0    0 -0.12296381769E+00 -0.13040509458E-01  0.25712624978E-01  0.88901703832E+00  0.88000000000E+00 0.  1.
        -11    1    4    4    0    0  0.38999350603E-01  0.60343966547E-02 -0.88899318006E-02  0.40455596632E-01  0.51100000000E-03 0. -1.
         11    1    4    4    0    0  0.87829424198E-01 -0.10897506488E-01 -0.28208293902E-01  0.92890970328E-01  0.51100000000E-03 0.  1.
</event>
<event>
 8    1  0.1064884E+005  0.1043930E+01  0.7957747E-01            NaN
         13   -1    0    0    0    0  0.00000000000E+00  0.00000000000E+00  0.74505805969E-08  0.10566000000E+00  0.10566000000E+00 0.  1.
     999900   -1    0    0    0    0 -0.00000000000E+00 -0.00000000000E+00 -0.74505805969E-08  0.93827000000E+00  0.93827000000E+00 0. -1.
     999902    2    1    2    0    0  0.22849594062E-02 -0.24544127335E-01 -0.71042052235E-04  0.10192796395E+01  0.10189815225E+01 0.  0.
     999903    2    3    3    0    0  0.40704877621E-01  0.11849853371E+00  0.52912809671E-02  0.12688620188E+00  0.19321517008E-01 0.  0.
         14    1    1    2    0    0 -0.22849594062E-02  0.24544127335E-01  0.71042052235E-04  0.24650360506E-01  0.00000000000E+00 0.  1.
     999901    1    3    3    0    0 -0.38419918215E-01 -0.14304266104E+00 -0.53623230193E-02  0.89239343762E+00  0.88000000000E+00 0.  1.
        -11    1    4    4    0    0  0.17350764709E-01  0.34043154281E-01  0.87095606052E-02  0.39193149355E-01  0.51100000000E-03 0.  1.
         11    1    4    4    0    0  0.23354112911E-01  0.84455379426E-01 -0.34182796381E-02  0.87693052522E-01  0.51100000000E-03 0. -1.
</event>
<event>
 8    1  0.1064884E+005  0.1043930E+01  0.7957747E-01            NaN
         13   -1    0    0    0    0  0.00000000000E+00  0.00000000000E+00  0.74505805969E-08  0.10566000000E+00  0.10566000000E+00 0.  1.
     999900   -1    0    0    0    0 -0.00000000000E+00 -0.00000000000E+00 -0.74505805969E-08  0.93827000000E+00  0.93827000000E+00 0.  1.
     999902    2    1    2    0    0 -0.17973393210E-01 -0.14257691897E-01 -0.57966750426E-02  0.10202672427E+01  0.10199928041E+01 0.  0.
     999903    2    3    3    0    0  0.42402465396E-01  0.10768762917E+00  0.50695706980E-01  0.12801879363E+00  0.20595200101E-01 0.  0.
         14    1    1    2    0    0  0.17973393210E-01  0.14257691897E-01  0.57966750426E-02  0.23662757305E-01  0.00000000000E+00 0. -1.
     999901    1    3    3    0    0 -0.60375858606E-01 -0.12194532107E+00 -0.56492382023E-01  0.89224844907E+00  0.88000000000E+00 0.  1.
        -11    1    4    4    0    0  0.36516912363E-02  0.29456260397E-01  0.18436321803E-01  0.34945174317E-01  0.51100000000E-03 0. -1.
         11    1    4    4    0    0  0.38750774160E-01  0.78231368778E-01  0.32259385177E-01  0.93073619312E-01  0.51100000000E-03 0.  1.
</event>
<event>
 8    1  0.1064884E+005  0.1043930E+01  0.7957747E-01            NaN
         13   -1    0    0    0    0  0.00000000000E+00  0.00000000000E+00  0.74505805969E-08  0.10566000000E+00  0.10566000000E+00 0.  1.
     999900   -1    0    0    0    0 -0.00000000000E+00 -0.00000000000E+00 -0.74505805969E-08  0.93827000000E+00  0.93827000000E+00 0.  1.
     999902    2    1    2    0    0 -0.23792427705E-02  0.23624085002E-01 -0.23506572660E-02  0.10200703316E+01  0.10197912520E+01 0.  0.
     999903    2    3    3    0    0 -0.88438881679E-01 -0.72712575622E-01  0.55401209117E-01  0.12876662816E+00  0.20074763006E-01 0.  0.
         14    1    1    2    0    0  0.23792427705E-02 -0.23624085002E-01  0.23506572660E-02  0.23859668437E-01  0.00000000000E+00 0.  1.
     999901    1    3    3    0    0  0.86059638908E-01  0.96336660624E-01 -0.57751866383E-01  0.89130370340E+00  0.88000000000E+00 0.  1.
        -11    1    4    4    0    0 -0.23969963115E-01 -0.10413061081E-01  0.79000849460E-02  0.27306838630E-01  0.51100000000E-03 0. -1.
         11    1    4    4    0    0 -0.64468918564E-01 -0.62299514541E-01  0.47501124171E-01  0.10145978953E+00  0.51100000000E-03 0.  1.
</event>
<event>
 8    1  0.1064884E+005  0.1043930E+01  0.7957747E-01            NaN
         13   -1    0    0    0    0  0.00000000000E+00  0.00000000000E+00  0.74505805969E-08  0.10566000000E+00  0.10566000000E+00 0. -1.
     999900   -1    0    0    0    0 -0.00000000000E+00 -0.00000000000E+00 -0.74505805969E-08  0.93827000000E+00  0.93827000000E+00 0. -1.
     999902    2    1    2    0    0  0.11359900654E-01  0.12638642419E-01 -0.15730619840E-01  0.10207732510E+01  0.10205105560E+01 0.  0.
     999903    2    3    3    0    0 -0.11613831967E+00 -0.52948683745E-01 -0.64521723625E-02  0.12912108609E+00  0.18410647442E-01 0.  0.
         14    1    1    2    0    0 -0.11359900654E-01 -0.12638642419E-01  0.15730619840E-01  0.23156749029E-01  0.00000000000E+00 0. -1.
     999901    1    3    3    0    0  0.12749822033E+00  0.65587326163E-01 -0.92784474774E-02  0.89165216488E+00  0.88000000000E+00 0. -1.
        -11    1    4    4    0    0 -0.65083687409E-01 -0.35769283299E-01 -0.10922919801E-01  0.75065966273E-01  0.51100000000E-03 0. -1.
         11    1    4    4    0    0 -0.51054632265E-01 -0.17179400446E-01  0.44707474382E-02  0.54055119822E-01  0.51100000000E-03 0.  1.
</event>
<event>
 8    1  0.1064884E+005  0.1043930E+01  0.7957747E-01            NaN
         13   -1    0    0    0    0  0.00000000000E+00  0.00000000000E+00  0.74505805969E-08  0.10566000000E+00  0.10566000000E+00 0.  1.
     999900   -1    0    0    0    0 -0.00000000000E+00 -0.00000000000E+00 -0.74505805969E-08  0.93827000000E+00  0.93827000000E+00 0. -1.
     999902    2    1    2    0    0 -0.22370752333E-01 -0.11937004967E-01 -0.32510515394E-02  0.10183661196E+01  0.10180452060E+01 0.  0.
     999903    2    3    3    0    0 -0.45380060909E-01  0.11789678456E+00  0.44915845379E-02  0.12850872109E+00  0.23136882369E-01 0.  0.
         14    1    1    2    0    0  0.22370752333E-01  0.11937004967E-01  0.32510515394E-02  0.25563880449E-01  0.00000000000E+00 0.  1.
     999901    1    3    3    0    0  0.23009308577E-01 -0.12983378953E+00 -0.77426360773E-02  0.88985739846E+00  0.88000000000E+00 0. -1.
        -11    1    4    4    0    0 -0.13123803813E-01  0.66178983569E-01  0.17395190601E-02  0.67492067240E-01  0.51100000000E-03 0.  1.
         11    1    4    4    0    0 -0.32256257096E-01  0.51717800993E-01  0.27520654778E-02  0.61016653848E-01  0.51100000000E-03 0. -1.
</event>
<event>
 8    1  0.1064884E+005  0.1043930E+01  0.7957747E-01            NaN
         13   -1    0    0    0    0  0.00000000000E+00  0.00000000000E+00  0.74505805969E-08  0.10566000000E+00  0.10566000000E+00 0.  1.
     999900   -1    0    0    0    0 -0.00000000000E+00 -0.00000000000E+00 -0.74505805969E-08  0.93827000000E+00  0.93827000000E+00 0.  1.
     999902    2    1    2    0    0  0.16003253109E-01  0.17040871178E-01  0.44792609656E-02  0.10201274964E+01  0.10198497682E+01 0.  0.
     999903    2    3    3    0    0  0.43733713998E-01  0.95059294991E-01 -0.75648540406E-01  0.13261619082E+00  0.30256323266E-01 0.  0.
         14    1    1    2    0    0 -0.16003253109E-01 -0.17040871178E-01 -0.44792609656E-02  0.23802503637E-01  0.00000000000E+00 0. -1.
     999901    1    3    3    0    0 -0.27730460888E-01 -0.78018423813E-01  0.80127801371E-01  0.88751130554E+00  0.88000000000E+00 0. -1.
        -11    1    4    4    0    0  0.12196535972E-01  0.56224030449E-01 -0.29979326441E-01  0.64876176093E-01  0.51100000000E-03 0. -1.
         11    1    4    4    0    0  0.31537178026E-01  0.38835264543E-01 -0.45669213965E-01  0.67740014726E-01  0.51100000000E-03 0.  1.
</event>
<event>
 8    1  0.1064884E+005  0.1043930E+01  0.7957747E-01            NaN
         13   -1    0    0    0    0  0.00000000000E+00  0.00000000000E+00  0.74505805969E-08  0.10566000000E+00  0.10566000000E+00 0. -1.
     999900   -1    0    0    0    0 -0.00000000000E+00 -0.00000000000E+00 -0.74505805969E-08  0.93827000000E+00  0.93827000000E+00 0.  1.
     999902    2    1    2    0    0  0.19894688439E-01  0.93981525921E-03  0.11887784349E-01  0.10207351450E+01  0.10204715748E+01 0.  0.
     999903    2    3    3    0    0  0.87800012195E-01  0.90083582212E-01 -0.35936759905E-01  0.13234056421E+00  0.19966980172E-01 0.  0.
         14    1    1    2    0    0 -0.19894688439E-01 -0.93981525921E-03 -0.11887784349E-01  0.23194854980E-01  0.00000000000E+00 0. -1.
     999901    1    3    3    0    0 -0.67905323756E-01 -0.89143766953E-01  0.47824544254E-01  0.88839458081E+00  0.88000000000E+00 0. -1.
        -11    1    4    4    0    0  0.22529427263E-01  0.36385222021E-01 -0.13781477427E-01  0.44962759206E-01  0.51100000000E-03 0.  1.
         11    1    4    4    0    0  0.65270584932E-01  0.53698360191E-01 -0.22155282478E-01  0.87377805004E-01  0.51100000000E-03 0. -1.
</event>
<event>
 8    1  0.1064884E+005  0.1043930E+01  0.7957747E-01            NaN
         13   -1    0    0    0    0  0.00000000000E+00  0.00000000000E+00  0.74505805969E-08  0.10566000000E+00  0.10566000000E+00 0. -1.
     999900   -1    0    0    0    0 -0.00000000000E+00 -0.00000000000E+00 -0.74505805969E-08  0.93827000000E+00  0.93827000000E+00 0. -1.
     999902    2    1    2    0    0  0.23093092178E-01  0.45674883225E-02  0.63670453031E-02  0.10195436899E+01  0.10192520019E+01 0.  0.
     999903    2    3    3    0    0 -0.99626612715E-01  0.76935855158E-01 -0.91888731179E-02  0.12795000826E+00  0.21028111056E-01 0.  0.
         14    1    1    2    0    0 -0.23093092178E-01 -0.45674883225E-02 -0.63670453031E-02  0.24386310131E-01  0.00000000000E+00 0. -1.
     999901    1    3    3    0    0  0.12271970489E+00 -0.72368366836E-01  0.15555918421E-01  0.89159368161E+00  0.88000000000E+00 0.  1.
        -11    1    4    4    0    0 -0.28624828886E-01  0.10883215339E-01 -0.30385877271E-02  0.30778553267E-01  0.51100000000E-03 0. -1.
         11    1    4    4    0    0 -0.71001783829E-01  0.66052639819E-01 -0.61502853909E-02  0.97171454993E-01  0.51100000000E-03 0.  1.
</event>
<event>
 8    1  0.1064884E+005  0.1043930E+01  0.7957747E-01            NaN
         13   -1    0    0    0    0  0.00000000000E+00  0.00000000000E+00  0.74505805969E-08  0.10566000000E+00  0.10566000000E+00 0.  1.
     999900   -1    0    0    0    0 -0.00000000000E+00 -0.00000000000E+00 -0.74505805969E-08  0.93827000000E+00  0.93827000000E+00 0.  1.
     999902    2    1    2    0    0  0.62855322494E-02 -0.62831445749E-03 -0.22672054181E-01  0.10203943943E+01  0.10201229314E+01 0.  0.
     999903    2    3    3    0    0  0.12909853507E+00 -0.76190226202E-02 -0.16102215908E-01  0.13181402853E+00  0.19778157046E-01 0.  0.
         14    1    1    2    0    0 -0.62855322494E-02  0.62831445749E-03  0.22672054181E-01  0.23535605696E-01  0.00000000000E+00 0.  1.
     999901    1    3    3    0    0 -0.12281300283E+00  0.69907081627E-02 -0.65698382727E-02  0.88858036577E+00  0.88000000000E+00 0.  1.
        -11    1    4    4    0    0  0.59324237426E-01  0.19855079878E-03  0.18031833265E-02  0.59354167164E-01  0.51100000000E-03 0.  1.
         11    1    4    4    0    0  0.69774297648E-01 -0.78175734189E-02 -0.17905399234E-01  0.72459861366E-01  0.51100000000E-03 0. -1.
</event>
<event>
 8    1  0.1064884E+005  0.1043930E+01  0.7957747E-01            NaN
         13   -1    0    0    0    0  0.00000000000E+00  0.00000000000E+00  0.74505805969E-08  0.10566000000E+00  0.10566000000E+00 0. -1.
     999900   -1    0    0    0    0 -0.00000000000E+00 -0.00000000000E+00 -0.74505805969E-08  0.93827000000E+00  0.93827000000E+00 0.  1.
     999902    2    1    2    0    0  0.10357636582E-01 -0.12667404638E-01  0.17823687785E-01  0.10197343884E+01  0.10194472989E+01 0.  0.
     999903    2    3    3    0    0 -0.12230251457E+00 -0.47389558044E-03  0.37562439996E-01  0.12948890778E+00  0.19957722646E-01 0.  0.
         14    1    1    2    0    0 -0.10357636582E-01  0.12667404638E-01 -0.17823687785E-01  0.24195611629E-01  0.00000000000E+00 0. -1.
     999901    1    3    3    0    0  0.13266015115E+00 -0.12193509057E-01 -0.19738752211E-01  0.89024548059E+00  0.88000000000E+00 0. -1.
        -11    1    4    4    0    0 -0.66613458380E-01  0.91255397286E-02  0.23790596566E-01  0.71322380209E-01  0.51100000000E-03 0.  1.
         11    1    4    4    0    0 -0.55689056191E-01 -0.95994353090E-02  0.13771843431E-01  0.58166527575E-01  0.51100000000E-03 0. -1.
</event>
<event>
 8    1  0.1064884E+005  0.1043930E+01  0.7957747E-01            NaN
         13   -1    0    0    0    0  0.00000000000E+00  0.00000000000E+00  0.74505805969E-08  0.10566000000E+00  0.10566000000E+00 0. -1.
     999900   -1    0    0    0    0 -0.00000000000E+00 -0.00000000000E+00 -0.74505805969E-08  0.93827000000E+00  0.93827000000E+00 0.  1.
     999902    2    1    2    0    0  0.74352940664E-02  0.18948634126E-01  0.11815167745E-01  0.10203942289E+01  0.10201227621E+01 0.  0.
     999903    2    3    3    0    0 -0.34678228180E-01  0.12474964982E+00 -0.19075409269E-01  0.13251944525E+00  0.20796093157E-01 0.  0.
         14    1    1    2    0    0 -0.74352940664E-02 -0.18948634126E-01 -0.11815167745E-01  0.23535771114E-01  0.00000000000E+00 0. -1.
     999901    1    3    3    0    0  0.42113522246E-01 -0.10580101569E+00  0.30890577014E-01  0.88787478364E+00  0.88000000000E+00 0.  1.
        -11    1    4    4    0    0 -0.85746995573E-02  0.37643488014E-01 -0.15221018958E-01  0.41502990272E-01  0.51100000000E-03 0. -1.
         11    1    4    4    0    0 -0.26103528622E-01  0.87106161802E-01 -0.38543903107E-02  0.91016454974E-01  0.51100000000E-03 0.  1.
</event>
<event>
 8    1  0.1064884E+005  0.1043930E+01  0.7957747E-01            NaN
         13   -1    0    0    0    0  0.00000000000E+00  0.00000000000E+00  0.74505805969E-08  0.10566000000E+00  0.10566000000E+00 0. -1.
     999900   -1    0    0    0    0 -0.00000000000E+00 -0.00000000000E+00 -0.74505805969E-08  0.93827000000E+00  0.93827000000E+00 0. -1.
     999902    2    1    2    0    0  0.19551800234E-01 -0.25577375065E-02 -0.14448143406E-01  0.10194848827E+01  0.10191917691E+01 0.  0.
     999903    2    3    3    0    0 -0.11186025468E+00  0.48015784652E-01 -0.34913340754E-01  0.12805589861E+00  0.19003674679E-01 0.  0.
         14    1    1    2    0    0 -0.19551800234E-01  0.25577375065E-02  0.14448143406E-01  0.24445117333E-01  0.00000000000E+00 0. -1.
     999901    1    3    3    0    0  0.13141205492E+00 -0.50573522159E-01  0.20465197348E-01  0.89142898406E+00  0.88000000000E+00 0.  1.
        -11    1    4    4    0    0 -0.63862825396E-01  0.18564395583E-01 -0.13881628555E-01  0.67941577722E-01  0.51100000000E-03 0. -1.
         11    1    4    4    0    0 -0.47997429288E-01  0.29451389069E-01 -0.21031712198E-01  0.60114320884E-01  0.51100000000E-03 0.  1.
</event>
<event>
 8    1  0.1064884E+005  0.1043930E+01  0.7957747E-01            NaN
         13   -1    0    0    0    0  0.00000000000E+00  0.00000000000E+00  0.74505805969E-08  0.10566000000E+00  0.10566000000E+00 0. -1.
     999900   -1    0    0    0    0 -0.00000000000E+00 -0.00000000000E+00 -0.74505805969E-08  0.93827000000E+00  0.93827000000E+00 0.  1.
     999902    2    1    2    0    0  0.16178338727E-01 -0.17578833600E-01 -0.42982881013E-02  0.10196559539E+01  0.10193669776E+01 0.  0.
     999903    2    3    3    0    0 -0.94898700979E-01 -0.39286354638E-01  0.74147410408E-01  0.12894665627E+00  0.24087768377E-01 0.  0.
         14    1    1    2    0    0 -0.16178338727E-01  0.17578833600E-01  0.42982881013E-02  0.24274046126E-01  0.00000000000E+00 0. -1.
     999901    1    3    3    0    0  0.11107703971E+00  0.21707521038E-01 -0.78445698509E-01  0.89070929760E+00  0.88000000000E+00 0.  1.
        -11    1    4    4    0    0 -0.29005306013E-01 -0.12691755718E-02  0.25514920204E-01  0.38654765005E-01  0.51100000000E-03 0.  1.
         11    1    4    4    0    0 -0.65893394966E-01 -0.38017179067E-01  0.48632490204E-01  0.90291891268E-01  0.51100000000E-03 0. -1.
</event>
<event>
 8    1  0.1064884E+005  0.1043930E+01  0.7957747E-01            NaN
         13   -1    0    0    0    0  0.00000000000E+00  0.00000000000E+00  0.74505805969E-08  0.10566000000E+00  0.10566000000E+00 0. -1.
     999900   -1    0    0    0    0 -0.00000000000E+00 -0.00000000000E+00 -0.74505805969E-08  0.93827000000E+00  0.93827000000E+00 0. -1.
     999902    2    1    2    0    0  0.12254720861E-01  0.16712473131E-01  0.90899284929E-02  0.10213001140E+01  0.10210493676E+01 0.  0.
     999903    2    3    3    0    0 -0.93623776405E-01 -0.32109751579E-01 -0.79805345628E-01  0.12916994658E+00  0.22793294071E-01 0.  0.
         14    1    1    2    0    0 -0.12254720861E-01 -0.16712473131E-01 -0.90899284929E-02  0.22629886026E-01  0.00000000000E+00 0.  1.
     999901    1    3    3    0    0  0.10587849727E+00  0.48822224710E-01  0.88895274121E-01  0.89213016739E+00  0.88000000000E+00 0.  1.
        -11    1    4    4    0    0 -0.43790181887E-01 -0.11967082259E-01 -0.22743479975E-01  0.50777141411E-01  0.51100000000E-03 0. -1.
         11    1    4    4    0    0 -0.49833594518E-01 -0.20142669321E-01 -0.57061865653E-01  0.78392805172E-01  0.51100000000E-03 0.  1.
</event>
<event>
 8    1  0.1064884E+005  0.1043930E+01  0.7957747E-01            NaN
         13   -1    0    0    0    0  0.00000000000E+00  0.00000000000E+00  0.74505805969E-08  0.10566000000E+00  0.10566000000E+00 0.  1.
     999900   -1    0    0    0    0 -0.00000000000E+00 -0.00000000000E+00 -0.74505805969E-08  0.93827000000E+00  0.93827000000E+00 0. -1.
     999902    2    1    2    0    0 -0.51790187919E-02 -0.22412010216E-01 -0.13420916452E-02  0.10208882629E+01  0.10206282005E+01 0.  0.
     999903    2    3    3    0    0 -0.11706548808E+00  0.52771814509E-01  0.11291149287E-01  0.13053395800E+00  0.20553131972E-01 0.  0.
         14    1    1    2    0    0  0.51790187919E-02  0.22412010216E-01  0.13420916452E-02  0.23041737078E-01  0.00000000000E+00 0.  1.
     999901    1    3    3    0    0  0.11188646929E+00 -0.75183824725E-01 -0.12633240932E-01  0.89035430492E+00  0.88000000000E+00 0. -1.
        -11    1    4    4    0    0 -0.86990180746E-01  0.48622086964E-01  0.76272018606E-02  0.99949158157E-01  0.51100000000E-03 0. -1.
         11    1    4    4    0    0 -0.30075307334E-01  0.41497275448E-02  0.36639474261E-02  0.30584799847E-01  0.51100000000E-03 0.  1.
</event>
<event>
 8    1  0.1064884E+005  0.1043930E+01  0.7957747E-01            NaN
         13   -1    0    0    0    0  0.00000000000E+00  0.00000000000E+00  0.74505805969E-08  0.10566000000E+00  0.10566000000E+00 0. -1.
     999900   -1    0    0    0    0 -0.00000000000E+00 -0.00000000000E+00 -0.74505805969E-08  0.93827000000E+00  0.93827000000E+00 0. -1.
     999902    2    1    2    0    0  0.20933677136E-01  0.24657325144E-02 -0.93020689292E-02  0.10208903133E+01  0.10206302978E+01 0.  0.
     999903    2    3    3    0    0 -0.34464851837E-01 -0.19907606558E-01 -0.12368979675E+00  0.13147808293E+00  0.20079384001E-01 0.  0.
         14    1    1    2    0    0 -0.20933677136E-01 -0.24657325144E-02  0.93020689292E-02  0.23039686665E-01  0.00000000000E+00 0.  1.
     999901    1    3    3    0    0  0.55398528973E-01  0.22373339072E-01  0.11438772782E+00  0.88941223040E+00  0.88000000000E+00 0.  1.
        -11    1    4    4    0    0 -0.19700677787E-01 -0.36104240784E-02 -0.37395587835E-01  0.42424556306E-01  0.51100000000E-03 0.  1.
         11    1    4    4    0    0 -0.14764174050E-01 -0.16297182480E-01 -0.86294208910E-01  0.89053526627E-01  0.51100000000E-03 0. -1.
</event>
<event>
 8    1  0.1064884E+005  0.1043930E+01  0.7957747E-01            NaN
         13   -1    0    0    0    0  0.00000000000E+00  0.00000000000E+00  0.74505805969E-08  0.10566000000E+00  0.10566000000E+00 0. -1.
     999900   -1    0    0    0    0 -0.00000000000E+00 -0.00000000000E+00 -0.74505805969E-08  0.93827000000E+00  0.93827000000E+00 0. -1.
     999902    2    1    2    0    0  0.17791657887E-01  0.11161726342E-01  0.11390311207E-01  0.10200371891E+01  0.10197573244E+01 0.  0.
     999903    2    3    3    0    0  0.56151969141E-02  0.39897968915E-01  0.12437126413E+00  0.13226540895E+00  0.20063616357E-01 0.  0.
         14    1    1    2    0    0 -0.17791657887E-01 -0.11161726342E-01 -0.11390311207E-01  0.23892810941E-01  0.00000000000E+00 0.  1.
     999901    1    3    3    0    0  0.12176460973E-01 -0.28736242573E-01 -0.11298095293E+00  0.88777178011E+00  0.88000000000E+00 0. -1.
        -11    1    4    4    0    0  0.10757742037E-01  0.16383446516E-01  0.72061675436E-01  0.74681272894E-01  0.51100000000E-03 0.  1.
         11    1    4    4    0    0 -0.51425451233E-02  0.23514522399E-01  0.52309588699E-01  0.57584136052E-01  0.51100000000E-03 0. -1.
</event>
<event>
 8    1  0.1064884E+005  0.1043930E+01  0.7957747E-01            NaN
         13   -1    0    0    0    0  0.00000000000E+00  0.00000000000E+00  0.74505805969E-08  0.10566000000E+00  0.10566000000E+00 0.  1.
     999900   -1    0    0    0    0 -0.00000000000E+00 -0.00000000000E+00 -0.74505805969E-08  0.93827000000E+00  0.93827000000E+00 0.  1.
     999902    2    1    2    0    0  0.18813244686E-01  0.13819282059E-01 -0.45930773696E-02  0.10201390964E+01  0.10198616421E+01 0.  0.
     999903    2    3    3    0    0  0.29074193179E-01 -0.10746380798E+00  0.62391252427E-01  0.12923967708E+00  0.20407033515E-01 0.  0.
         14    1    1    2    0    0 -0.18813244686E-01 -0.13819282059E-01  0.45930773696E-02  0.23790903555E-01  0.00000000000E+00 0. -1.
     999901    1    3    3    0    0 -0.10260948493E-01  0.12128309004E+00 -0.66984329796E-01  0.89089941937E+00  0.88000000000E+00 0.  1.
        -11    1    4    4    0    0  0.88590607407E-02 -0.68004672794E-01  0.42155854773E-01  0.80501526021E-01  0.51100000000E-03 0.  1.
         11    1    4    4    0    0  0.20215132438E-01 -0.39459135186E-01  0.20235397653E-01  0.48738151056E-01  0.51100000000E-03 0. -1.
</event>
<event>
 8    1  0.1064884E+005  0.1043930E+01  0.7957747E-01            NaN
         13   -1    0    0    0    0  0.00000000000E+00  0.00000000000E+00  0.74505805969E-08  0.10566000000E+00  0.10566000000E+00 0. -1.
     999900   -1    0    0    0    0 -0.00000000000E+00 -0.00000000000E+00 -0.74505805969E-08  0.93827000000E+00  0.93827000000E+00 0. -1.
     999902    2    1    2    0    0  0.73711190982E-02  0.15991627002E-01 -0.17210993359E-01  0.10193071687E+01  0.10190097253E+01 0.  0.
     999903    2    3    3    0    0 -0.14523394847E-01 -0.11018750886E+00  0.57791951189E-01  0.12688014881E+00  0.20160516659E-01 0.  0.
         14    1    1    2    0    0 -0.73711190982E-02 -0.15991627002E-01  0.17210993359E-01  0.24622831342E-01  0.00000000000E+00 0. -1.
     999901    1    3    3    0    0  0.21894513945E-01  0.12617913586E+00 -0.75002944548E-01  0.89242701985E+00  0.88000000000E+00 0. -1.
        -11    1    4    4    0    0 -0.34423423588E-02 -0.83651315328E-01  0.47944105599E-01  0.96479483102E-01  0.51100000000E-03 0. -1.
         11    1    4    4    0    0 -0.11081052488E-01 -0.26536193534E-01  0.98478455906E-02  0.30400665705E-01  0.51100000000E-03 0.  1.
</event>
<event>
 8    1  0.1064884E+005  0.1043930E+01  0.7957747E-01            NaN
         13   -1    0    0    0    0  0.00000000000E+00  0.00000000000E+00  0.74505805969E-08  0.10566000000E+00  0.10566000000E+00 0.  1.
     999900   -1    0    0    0    0 -0.00000000000E+00 -0.00000000000E+00 -0.74505805969E-08  0.93827000000E+00  0.93827000000E+00 0. -1.
     999902    2    1    2    0    0 -0.18760853450E-01  0.52970572227E-02 -0.12042051927E-01  0.10210162606E+01  0.10207591121E+01 0.  0.
     999903    2    3    3    0    0 -0.68588994739E-01 -0.78176719589E-01  0.77313033151E-01  0.13116512347E+00  0.20271527661E-01 0.  0.
         14    1    1    2    0    0  0.18760853450E-01 -0.52970572227E-02  0.12042051927E-01  0.22913739372E-01  0.00000000000E+00 0.  1.
     999901    1    3    3    0    0  0.49828141289E-01  0.83473776811E-01 -0.89355085079E-01  0.88985113716E+00  0.88000000000E+00 0. -1.
        -11    1    4    4    0    0 -0.14439155860E-01 -0.21017934834E-01  0.29711065102E-01  0.39156753148E-01  0.51100000000E-03 0. -1.
         11    1    4    4    0    0 -0.54149838879E-01 -0.57158784755E-01  0.47601968050E-01  0.92008370317E-01  0.51100000000E-03 0.  1.
</event>
<event>
 8    1  0.1064884E+005  0.1043930E+01  0.7957747E-01            NaN
         13   -1    0    0    0    0  0.00000000000E+00  0.00000000000E+00  0.74505805969E-08  0.10566000000E+00  0.10566000000E+00 0. -1.
     999900   -1    0    0    0    0 -0.00000000000E+00 -0.00000000000E+00 -0.74505805969E-08  0.93827000000E+00  0.93827000000E+00 0. -1.
     999902    2    1    2    0    0  0.85967394069E-03  0.16926195597E-01  0.19021675012E-01  0.10184533586E+01  0.10181346593E+01 0.  0.
     999903    2    3    3    0    0  0.12623428193E+00 -0.11046353412E-01  0.15507981926E-01  0.12912012417E+00  0.19349240399E-01 0.  0.
         14    1    1    2    0    0 -0.85967394069E-03 -0.16926195597E-01 -0.19021675012E-01  0.25476641398E-01  0.00000000000E+00 0. -1.
     999901    1    3    3    0    0 -0.12537460799E+00  0.27972549008E-01  0.35136930862E-02  0.88933323443E+00  0.88000000000E+00 0. -1.
        -11    1    4    4    0    0  0.86224339095E-01 -0.14366731893E-01  0.16495216459E-01  0.88957253356E-01  0.51100000000E-03 0. -1.
         11    1    4    4    0    0  0.40009942836E-01  0.33203784816E-02 -0.98723453345E-03  0.40162870814E-01  0.51100000000E-03 0.  1.
</event>
<event>
 8    1  0.1064884E+005  0.1043930E+01  0.7957747E-01            NaN
         13   -1    0    0    0    0  0.00000000000E+00  0.00000000000E+00  0.74505805969E-08  0.10566000000E+00  0.10566000000E+00 0. -1.
     999900   -1    0    0    0    0 -0.00000000000E+00 -0.00000000000E+00 -0.74505805969E-08  0.93827000000E+00  0.93827000000E+00 0. -1.
     999902    2    1    2    0    0  0.17755460203E-01 -0.43790249388E-02  0.14578197086E-01  0.10205429083E+01  0.10202749001E+01 0.  0.
     999903    2    3    3    0    0 -0.65088800371E-01  0.10974600960E+00 -0.39064699346E-03  0.12918901604E+00  0.20221540575E-01 0.  0.
         14    1    1    2    0    0 -0.17755460203E-01  0.43790249388E-02 -0.14578197086E-01  0.23387091668E-01  0.00000000000E+00 0.  1.
     999901    1    3    3    0    0  0.82844260574E-01 -0.11412503454E+00  0.14968844079E-01  0.89135389230E+00  0.88000000000E+00 0. -1.
        -11    1    4    4    0    0 -0.38308154130E-01  0.77111182716E-01  0.67563860287E-02  0.86368738823E-01  0.51100000000E-03 0.  1.
         11    1    4    4    0    0 -0.26780646240E-01  0.32634826881E-01 -0.71470330221E-02  0.42820277213E-01  0.51100000000E-03 0. -1.
</event>
<event>
 8    1  0.1064884E+005  0.1043930E+01  0.7957747E-01            NaN
         13   -1    0    0    0    0  0.00000000000E+00  0.00000000000E+00  0.74505805969E-08  0.10566000000E+00  0.10566000000E+00 0.  1.
     999900   -1    0    0    0    0 -0.00000000000E+00 -0.00000000000E+00 -0.74505805969E-08  0.93827000000E+00  0.93827000000E+00 0.  1.
     999902    2    1    2    0    0  0.99793476916E-02  0.82251844095E-02 -0.19559156196E-01  0.10204821508E+01  0.10202127320E+01 0.  0.
     999903    2    3    3    0    0 -0.89964051951E-01 -0.86874180338E-01  0.22742755512E-01  0.12872992963E+00  0.20334896146E-01 0.  0.
         14    1    1    2    0    0 -0.99793476916E-02 -0.82251844095E-02  0.19559156196E-01  0.23447849156E-01  0.00000000000E+00 0.  1.
     999901    1    3    3    0    0  0.99943399643E-01  0.95099364747E-01 -0.42301911708E-01  0.89175222121E+00  0.88000000000E+00 0.  1.
        -11    1    4    4    0    0 -0.37086082911E-01 -0.30089615946E-01 -0.38809852754E-03  0.47761640203E-01  0.51100000000E-03 0.  1.
         11    1    4    4    0    0 -0.52877969041E-01 -0.56784564392E-01  0.23130854039E-01  0.80968289426E-01  0.51100000000E-03 0. -1.
</event>
<event>
 8    1  0.1064884E+005  0.1043930E+01  0.7957747E-01            NaN
         13   -1    0    0    0    0  0.00000000000E+00  0.00000000000E+00  0.74505805969E-08  0.10566000000E+00  0.10566000000E+00 0. -1.
     999900   -1    0    0    0    0 -0.00000000000E+00 -0.00000000000E+00 -0.74505805969E-08  0.93827000000E+00  0.93827000000E+00 0.  1.
     999902    2    1    2    0    0 -0.89489483033E-02 -0.12378397002E-01 -0.17915405656E-01  0.10203870574E+01  0.10201154232E+01 0.  0.
     999903    2    3    3    0    0 -0.79856247224E-01 -0.76937299090E-01  0.67034930366E-01  0.13111080306E+00  0.19999814453E-01 0.  0.
         14    1    1    2    0    0  0.89489483033E-02  0.12378397002E-01  0.17915405656E-01  0.23542942635E-01  0.00000000000E+00 0.  1.
     999901    1    3    3    0    0  0.70907298921E-01  0.64558902088E-01 -0.84950336022E-01  0.88927625430E+00  0.88000000000E+00 0.  1.
        -11    1    4    4    0    0 -0.40865034767E-01 -0.50820784943E-01  0.32657607294E-01  0.72934790628E-01  0.51100000000E-03 0. -1.
         11    1    4    4    0    0 -0.38991212457E-01 -0.26116514147E-01  0.34377323072E-01  0.58176012433E-01  0.51100000000E-03 0.  1.
</event>
<event>
 8    1  0.1064884E+005  0.1043930E+01  0.7957747E-01            NaN
         13   -1    0    0    0    0  0.00000000000E+00  0.00000000000E+00  0.74505805969E-08  0.10566000000E+00  0.10566000000E+00 0. -1.
     999900   -1    0    0    0    0 -0.00000000000E+00 -0.00000000000E+00 -0.74505805969E-08  0.93827000000E+00  0.93827000000E+00 0.  1.
     999902    2    1    2    0    0 -0.12075873557E-01  0.14803289228E-01 -0.14365495119E-01  0.10200274574E+01  0.10197473620E+01 0.  0.
     999903    2    3    3    0    0 -0.86530987028E-01  0.98672131490E-01 -0.85446413639E-02  0.13289081121E+00  0.19056640802E-01 0.  0.
         14    1    1    2    0    0  0.12075873557E-01 -0.14803289228E-01  0.14365495119E-01  0.23902542630E-01  0.00000000000E+00 0. -1.
     999901    1    3    3    0    0  0.74455113471E-01 -0.83868842262E-01 -0.58208537555E-02  0.88713664616E+00  0.88000000000E+00 0. -1.
        -11    1    4    4    0    0 -0.33052963432E-01  0.31153646384E-01 -0.10947366624E-01  0.46724233880E-01  0.51100000000E-03 0.  1.
         11    1    4    4    0    0 -0.53478023596E-01  0.67518485107E-01  0.24027252605E-02  0.86166577328E-01  0.51100000000E-03 0. -1.
</event>
<event>
 8    1  0.1064884E+005  0.1043930E+01  0.7957747E-01            NaN
         13   -1    0    0    0    0  0.00000000000E+00  0.00000000000E+00  0.74505805969E-08  0.10566000000E+00  0.10566000000E+00 0. -1.
     999900   -1    0    0    0    0 -0.00000000000E+00 -0.00000000000E+00 -0.74505805969E-08  0.93827000000E+00  0.93827000000E+00 0. -1.
     999902    2    1    2    0    0 -0.98552955410E-02 -0.45369912172E-03  0.21282736628E-01  0.10204717910E+01  0.10202021312E+01 0.  0.
     999903    2    3    3    0    0  0.80172540446E-01  0.71512904636E-01  0.72910051891E-01  0.13145571518E+00  0.20566905841E-01 0.  0.
         14    1    1    2    0    0  0.98552955410E-02  0.45369912172E-03 -0.21282736628E-01  0.23458209042E-01  0.00000000000E+00 0.  1.
     999901    1    3    3    0    0 -0.90027835987E-01 -0.71966603758E-01 -0.51627315263E-01  0.88901607578E+00  0.88000000000E+00 0. -1.
        -11    1    4    4    0    0  0.52154013600E-01  0.36448566661E-01  0.50787587168E-01  0.81413630785E-01  0.51100000000E-03 0.  1.
         11    1    4    4    0    0  0.28018526846E-01  0.35064337975E-01  0.22122464723E-01  0.50042084396E-01  0.51100000000E-03 0. -1.
</event>
<event>
 8    1  0.1064884E+005  0.1043930E+01  0.7957747E-01            NaN
         13   -1    0    0    0    0  0.00000000000E+00  0.00000000000E+00  0.74505805969E-08  0.10566000000E+00  0.10566000000E+00 0. -1.
     999900   -1    0    0    0    0 -0.00000000000E+00 -0.00000000000E+00 -0.74505805969E-08  0.93827000000E+00  0.93827000000E+00 0. -1.
     999902    2    1    2    0    0 -0.15869293628E-01  0.13174833427E-01  0.71678842898E-02  0.10220944949E+01  0.10218612270E+01 0.  0.
     999903    2    3    3    0    0 -0.12195514187E+00  0.64073207654E-02  0.52681899433E-01  0.13452954971E+00  0.20216498938E-01 0.  0.
         14    1    1    2    0    0  0.15869293628E-01 -0.13174833427E-01 -0.71678842898E-02  0.21835505061E-01  0.00000000000E+00 0.  1.
     999901    1    3    3    0    0  0.10608584824E+00  0.67675126618E-02 -0.45514015143E-01  0.88756494523E+00  0.88000000000E+00 0. -1.
        -11    1    4    4    0    0 -0.68336474279E-01  0.11350016942E-01  0.36501363615E-01  0.78302664502E-01  0.51100000000E-03 0.  1.
         11    1    4    4    0    0 -0.53618667592E-01 -0.49426961765E-02  0.16180535818E-01  0.56226885208E-01  0.51100000000E-03 0. -1.
</event>
<event>
 8    1  0.1064884E+005  0.1043930E+01  0.7957747E-01            NaN
         13   -1    0    0    0    0  0.00000000000E+00  0.00000000000E+00  0.74505805969E-08  0.10566000000E+00  0.10566000000E+00 0.  1.
     999900   -1    0    0    0    0 -0.00000000000E+00 -0.00000000000E+00 -0.74505805969E-08  0.93827000000E+00  0.93827000000E+00 0.  1.
     999902    2    1    2    0    0  0.23777067907E-01  0.18427331685E-03  0.33686156874E-02  0.10199147864E+01  0.10196320125E+01 0.  0.
     999903    2    3    3    0    0 -0.82480550740E-01 -0.95205028427E-01 -0.13271148358E-01  0.12824966863E+00  0.20120025789E-01 0.  0.
         14    1    1    2    0    0 -0.23777067907E-01 -0.18427331685E-03 -0.33686156874E-02  0.24015213648E-01  0.00000000000E+00 0.  1.
     999901    1    3    3    0    0  0.10625761865E+00  0.95389301744E-01  0.16639764046E-01  0.89166511772E+00  0.88000000000E+00 0.  1.
        -11    1    4    4    0    0 -0.25001360346E-01 -0.43831899683E-01 -0.57927442414E-02  0.50794886119E-01  0.51100000000E-03 0.  1.
         11    1    4    4    0    0 -0.57479190394E-01 -0.51373128744E-01 -0.74784041168E-02  0.77454782515E-01  0.51100000000E-03 0. -1.
</event>
<event>
 7    1  0.1064884E+005  0.1043930E+01  0.7957747E-01            NaN
         13   -1    0    0    0    0  0.00000000000E+00  0.00000000000E+00  0.74505805969E-08  0.10566000000E+00  0.10566000000E+00 0.  1.
     999900   -1    0    0    0    0 -0.00000000000E+00 -0.00000000000E+00 -0.74505805969E-08  0.93827000000E+00  0.93827000000E+00 0. -1.
     999902    2    1    2    0    0 -0.18162833399E-01 -0.13186275295E-01 -0.76091760959E-02  0.10202305077E+01  0.10199552063E+01 0.  0.
         14    1    1    2    0    0  0.18162833399E-01  0.13186275295E-01  0.76091760959E-02  0.23699492275E-01  0.00000000000E+00 0.  1.
     999901    1    3    3    0    0  0.55084256004E-01 -0.11387239406E+00  0.60571370979E-02  0.88906573790E+00  0.88000000000E+00 0.  1.
        -11    1    3    3    0    0 -0.39159758804E-01  0.76841591204E-01  0.31221447849E-02  0.86302524630E-01  0.51100000000E-03 0. -1.
         11    1    3    3    0    0 -0.34087330598E-01  0.23844527565E-01 -0.16788457979E-01  0.44862245200E-01  0.51100000000E-03 0.  1.
</event>
<event>
 8    1  0.1064884E+005  0.1043930E+01  0.7957747E-01            NaN
         13   -1    0    0    0    0  0.00000000000E+00  0.00000000000E+00  0.74505805969E-08  0.10566000000E+00  0.10566000000E+00 0. -1.
     999900   -1    0    0    0    0 -0.00000000000E+00 -0.00000000000E+00 -0.74505805969E-08  0.93827000000E+00  0.93827000000E+00 0.  1.
     999902    2    1    2    0    0 -0.13800409769E-01 -0.12298791340E-01  0.14009015162E-01  0.10207359472E+01  0.10204723955E+01 0.  0.
     999903    2    3    3    0    0 -0.12233751315E+00  0.20445629983E-01  0.43669694757E-01  0.13296781542E+00  0.19720719791E-01 0.  0.
         14    1    1    2    0    0  0.13800409769E-01  0.12298791340E-01 -0.14009015162E-01  0.23194052773E-01  0.00000000000E+00 0. -1.
     999901    1    3    3    0    0  0.10853710338E+00 -0.32744421323E-01 -0.29660679595E-01  0.88776813181E+00  0.88000000000E+00 0.  1.
        -11    1    4    4    0    0 -0.75709984483E-01  0.13552077395E-01  0.16864796496E-01  0.78742256978E-01  0.51100000000E-03 0. -1.
         11    1    4    4    0    0 -0.46627528664E-01  0.68935525884E-02  0.26804898261E-01  0.54225558442E-01  0.51100000000E-03 0.  1.
</event>
<event>
 8    1  0.1064884E+005  0.1043930E+01  0.7957747E-01            NaN
         13   -1    0    0    0    0  0.00000000000E+00  0.00000000000E+00  0.74505805969E-08  0.10566000000E+00  0.10566000000E+00 0. -1.
     999900   -1    0    0    0    0 -0.00000000000E+00 -0.00000000000E+00 -0.74505805969E-08  0.93827000000E+00  0.93827000000E+00 0.  1.
     999902    2    1    2    0    0 -0.23701488078E-01  0.22563488135E-02 -0.22432913610E-02  0.10200159037E+01  0.10197355342E+01 0.  0.
     999903    2    3    3    0    0 -0.88506169302E-01  0.14699955378E-01  0.95324617001E-01  0.13216795115E+00  0.18225092938E-01 0.  0.
         14    1    1    2    0    0  0.23701488078E-01 -0.22563488135E-02  0.22432913610E-02  0.23914096328E-01  0.00000000000E+00 0. -1.
     999901    1    3    3    0    0  0.64804681224E-01 -0.12443606565E-01 -0.97567908362E-01  0.88784795252E+00  0.88000000000E+00 0.  1.
        -11    1    4    4    0    0 -0.19858789668E-01  0.90930093858E-02  0.15801615814E-01  0.26963058619E-01  0.51100000000E-03 0. -1.
         11    1    4    4    0    0 -0.68647379634E-01  0.56069459925E-02  0.79523001187E-01  0.10520489253E+00  0.51100000000E-03 0.  1.
</event>
<event>
 8    1  0.1064884E+005  0.1043930E+01  0.7957747E-01            NaN
         13   -1    0    0    0    0  0.00000000000E+00  0.00000000000E+00  0.74505805969E-08  0.10566000000E+00  0.10566000000E+00 0. -1.
     999900   -1    0    0    0    0 -0.00000000000E+00 -0.00000000000E+00 -0.74505805969E-08  0.93827000000E+00  0.93827000000E+00 0. -1.
     999902    2    1    2    0    0 -0.33146987183E-02 -0.14157021618E-01 -0.19464329861E-01  0.10196345555E+01  0.10193450633E+01 0.  0.
     999903    2    3    3    0    0 -0.10511296636E+00 -0.67361969598E-01 -0.37492185326E-01  0.13198673264E+00  0.20699347493E-01 0.  0.
         14    1    1    2    0    0  0.33146987183E-02  0.14157021618E-01  0.19464329861E-01  0.24295444544E-01  0.00000000000E+00 0. -1.
     999901    1    3    3    0    0  0.10179826764E+00  0.53204947979E-01  0.18027855465E-01  0.88764782282E+00  0.88000000000E+00 0. -1.
        -11    1    4    4    0    0 -0.23613194515E-01 -0.56191398455E-02 -0.82062655066E-02  0.25627360426E-01  0.51100000000E-03 0. -1.
         11    1    4    4    0    0 -0.81499771843E-01 -0.61742829752E-01 -0.29285919819E-01  0.10635937221E+00  0.51100000000E-03 0.  1.
</event>
<event>
 8    1  0.1064884E+005  0.1043930E+01  0.7957747E-01            NaN
         13   -1    0    0    0    0  0.00000000000E+00  0.00000000000E+00  0.74505805969E-08  0.10566000000E+00  0.10566000000E+00 0.  1.
     999900   -1    0    0    0    0 -0.00000000000E+00 -0.00000000000E+00 -0.74505805969E-08  0.93827000000E+00  0.93827000000E+00 0. -1.
     999902    2    1    2    0    0 -0.24360188507E-01  0.50756050484E-02 -0.13825143630E-02  0.10190082846E+01  0.10187034859E+01 0.  0.
     999903    2    3    3    0    0  0.88655717321E-01  0.29281553585E-01 -0.85229639123E-01  0.12749896710E+00  0.16572556643E-01 0.  0.
         14    1    1    2    0    0  0.24360188507E-01 -0.50756050484E-02  0.13825143630E-02  0.24921715364E-01  0.00000000000E+00 0. -1.
     999901    1    3    3    0    0 -0.11301590583E+00 -0.24205948537E-01  0.83847124760E-01  0.89150931753E+00  0.88000000000E+00 0.  1.
        -11    1    4    4    0    0  0.55680368706E-01  0.13247275150E-01 -0.60407063571E-01  0.83216994709E-01  0.51100000000E-03 0.  1.
         11    1    4    4    0    0  0.32975348615E-01  0.16034278435E-01 -0.24822575552E-01  0.44281972395E-01  0.51100000000E-03 0. -1.
</event>
<event>
 8    1  0.1064884E+005  0.1043930E+01  0.7957747E-01            NaN
         13   -1    0    0    0    0  0.00000000000E+00  0.00000000000E+00  0.74505805969E-08  0.10566000000E+00  0.10566000000E+00 0. -1.
     999900   -1    0    0    0    0 -0.00000000000E+00 -0.00000000000E+00 -0.74505805969E-08  0.93827000000E+00  0.93827000000E+00 0.  1.
     999902    2    1    2    0    0 -0.78889944156E-02  0.16804627675E-01 -0.15227152774E-01  0.10199196288E+01  0.10196369703E+01 0.  0.
     999903    2    3    3    0    0 -0.10659096613E+00 -0.71075577030E-01 -0.94213241665E-02  0.13003271617E+00  0.20158725525E-01 0.  0.
         14    1    1    2    0    0  0.78889944156E-02 -0.16804627675E-01  0.15227152774E-01  0.24010371213E-01  0.00000000000E+00 0.  1.
     999901    1    3    3    0    0  0.98701971715E-01  0.87880204706E-01 -0.58058286074E-02  0.88988691262E+00  0.88000000000E+00 0.  1.
        -11    1    4    4    0    0 -0.62003570817E-01 -0.37774495139E-01 -0.14872105863E-01  0.74113399132E-01  0.51100000000E-03 0. -1.
         11    1    4    4    0    0 -0.44587395314E-01 -0.33301081892E-01  0.54507816966E-02  0.55919317039E-01  0.51100000000E-03 0.  1.
</event>
<event>
 8    1  0.1064884E+005  0.1043930E+01  0.7957747E-01            NaN
         13   -1    0    0    0    0  0.00000000000E+00  0.00000000000E+00  0.74505805969E-08  0.10566000000E+00  0.10566000000E+00 0. -1.
     999900   -1    0    0    0    0 -0.00000000000E+00 -0.00000000000E+00 -0.74505805969E-08  0.93827000000E+00  0.93827000000E+00 0. -1.
     999902    2    1    2    0    0  0.20566819995E-01 -0.11721461419E-01  0.84952836364E-03  0.10202422724E+01  0.10199672474E+01 0.  0.
     999903    2    3    3    0    0  0.24273873346E-01  0.12064005352E+00  0.36188569636E-01  0.12963452440E+00  0.18768428347E-01 0.  0.
         14    1    1    2    0    0 -0.20566819995E-01  0.11721461419E-01 -0.84952836364E-03  0.23687727645E-01  0.00000000000E+00 0. -1.
     999901    1    3    3    0    0 -0.37070533506E-02 -0.13236151494E+00 -0.35339041272E-01  0.89060774796E+00  0.88000000000E+00 0. -1.
        -11    1    4    4    0    0  0.74506066831E-02  0.66379948152E-01  0.27168152668E-01  0.72112264539E-01  0.51100000000E-03 0. -1.
         11    1    4    4    0    0  0.16823266663E-01  0.54260105371E-01  0.90204169675E-02  0.57522259859E-01  0.51100000000E-03 0.  1.
</event>
<event>
 8    1  0.1064884E+005  0.1043930E+01  0.7957747E-01            NaN
         13   -1    0    0    0    0  0.00000000000E+00  0.00000000000E+00  0.74505805969E-08  0.10566000000E+00  0.10566000000E+00 0.  1.
     999900   -1    0    0    0    0 -0.00000000000E+00 -0.00000000000E+00 -0.74505805969E-08  0.93827000000E+00  0.93827000000E+00 0. -1.
     999902    2    1    2    0    0 -0.10934944665E-01  0.20619355516E-01 -0.50253155412E-02  0.10200556491E+01  0.10197762218E+01 0.  0.
     999903    2    3    3    0    0 -0.77685498293E-01 -0.49558131138E-01 -0.90409752969E-01  0.13063391658E+00  0.20006292070E-01 0.  0.
         14    1    1    2    0    0  0.10934944665E-01 -0.20619355516E-01  0.50253155412E-02  0.23874350945E-01  0.00000000000E+00 0. -1.
     999901    1    3    3    0    0  0.66750553628E-01  0.70177486654E-01  0.85384437428E-01  0.88942173247E+00  0.88000000000E+00 0.  1.
        -11    1    4    4    0    0 -0.50878984822E-01 -0.31325906664E-01 -0.71189946761E-01  0.92942203361E-01  0.51100000000E-03 0. -1.
         11    1    4    4    0    0 -0.26806513472E-01 -0.18232224474E-01 -0.19219806208E-01  0.37691713220E-01  0.51100000000E-03 0.  1.
</event>
<event>
 8    1  0.1064884E+005  0.1043930E+01  0.7957747E-01            NaN
         13   -1    0    0    0    0  0.00000000000E+00  0.00000000000E+00  0.74505805969E-08  0.10566000000E+00  0.10566000000E+00 0. -1.
     999900   -1    0    0    0    0 -0.00000000000E+00 -0.00000000000E+00 -0.74505805969E-08  0.93827000000E+00  0.93827000000E+00 0. -1.
     999902    2    1    2    0    0  0.71055085845E-02 -0.22905510124E-01 -0.42490379533E-02  0.10195742005E+01  0.10192832508E+01 0.  0.
     999903    2    3    3    0    0 -0.11304227317E+00  0.23993449963E-01 -0.53370618946E-01  0.12881725741E+00  0.19779324482E-01 0.  0.
         14    1    1    2    0    0 -0.71055085845E-02  0.22905510124E-01  0.42490379533E-02  0.24355799511E-01  0.00000000000E+00 0. -1.
     999901    1    3    3    0    0  0.12014778175E+00 -0.46898960088E-01  0.49121580993E-01  0.89075694308E+00  0.88000000000E+00 0.  1.
        -11    1    4    4    0    0 -0.19278062043E-01  0.10217964197E-01 -0.15452191069E-01  0.26741013412E-01  0.51100000000E-03 0.  1.
         11    1    4    4    0    0 -0.93764211125E-01  0.13775485767E-01 -0.37918427877E-01  0.10207624400E+00  0.51100000000E-03 0. -1.
</event>
<event>
 8    1  0.1064884E+005  0.1043930E+01  0.7957747E-01            NaN
         13   -1    0    0    0    0  0.00000000000E+00  0.00000000000E+00  0.74505805969E-08  0.10566000000E+00  0.10566000000E+00 0. -1.
     999900   -1    0    0    0    0 -0.00000000000E+00 -0.00000000000E+00 -0.74505805969E-08  0.93827000000E+00  0.93827000000E+00 0.  1.
     999902    2    1    2    0    0 -0.18424538136E-01  0.73128605672E-02  0.12420665193E-01  0.10205373845E+01  0.10202692482E+01 0.  0.
     999903    2    3    3    0    0 -0.70217088035E-01  0.96244450570E-01  0.56135928010E-01  0.13346223543E+00  0.21621566900E-01 0.  0.
         14    1    1    2    0    0  0.18424538136E-01 -0.73128605672E-02 -0.12420665193E-01  0.23392615481E-01  0.00000000000E+00 0.  1.
     999901    1    3    3    0    0  0.51792549899E-01 -0.88931590003E-01 -0.43715262817E-01  0.88707514909E+00  0.88000000000E+00 0.  1.
        -11    1    4    4    0    0 -0.66253654153E-01  0.79281019455E-01  0.51411113121E-01  0.11540533093E+00  0.51100000000E-03 0.  1.
         11    1    4    4    0    0 -0.39634338819E-02  0.16963431115E-01  0.47248148891E-02  0.18056904498E-01  0.51100000000E-03 0. -1.
</event>
<event>
 8    1  0.1064884E+005  0.1043930E+01  0.7957747E-01            NaN
         13   -1    0    0    0    0  0.00000000000E+00  0.00000000000E+00  0.74505805969E-08  0.10566000000E+00  0.10566000000E+00 0.  1.
     999900   -1    0    0    0    0 -0.00000000000E+00 -0.00000000000E+00 -0.74505805969E-08  0.93827000000E+00  0.93827000000E+00 0. -1.
     999902    2    1    2    0    0  0.18347923036E-01 -0.12375517838E-01  0.79057508370E-02  0.10204289231E+01  0.10201582654E+01 0.  0.
     999903    2    3    3    0    0  0.90455672479E-01  0.92555964275E-01 -0.72019646824E-02  0.13113797711E+00  0.19911442393E-01 0.  0.
         14    1    1    2    0    0 -0.18347923036E-01  0.12375517838E-01 -0.79057508370E-02  0.23501076949E-01  0.00000000000E+00 0. -1.
     999901    1    3    3    0    0 -0.72107749444E-01 -0.10493148211E+00  0.15107715519E-01  0.88929094594E+00  0.88000000000E+00 0.  1.
        -11    1    4    4    0    0  0.50927403809E-02  0.83011070154E-02 -0.54750855597E-02  0.11184009351E-01  0.51100000000E-03 0. -1.
         11    1    4    4    0    0  0.85362932098E-01  0.84254857259E-01 -0.17268791227E-02  0.11995396776E+00  0.51100000000E-03 0.  1.
</event>
<event>
 8    1  0.1064884E+005  0.1043930E+01  0.7957747E-01            NaN
         13   -1    0    0    0    0  0.00000000000E+00  0.00000000000E+00  0.74505805969E-08  0.10566000000E+00  0.10566000000E+00 0. -1.
     999900   -1    0    0    0    0 -0.00000000000E+00 -0.00000000000E+00 -0.74505805969E-08  0.93827000000E+00  0.93827000000E+00 0.  1.
     999902    2    1    2    0    0  0.91064539251E-02  0.20019804491E-01  0.91623031596E-02  0.10201042183E+01  0.10198259402E+01 0.  0.
     999903    2    3    3    0    0  0.53603134322E-01  0.35581058965E-01 -0.11184778444E+00  0.13057313479E+00  0.20002721799E-01 0.  0.
         14    1    1    2    0    0 -0.91064539251E-02 -0.20019804491E-01 -0.91623031596E-02  0.23825781711E-01  0.00000000000E+00 0.  1.
     999901    1    3    3    0    0 -0.44496680397E-01 -0.15561254474E-01  0.12101008760E+00  0.88953108350E+00  0.88000000000E+00 0. -1.
        -11    1    4    4    0    0  0.53342114393E-01  0.31958826758E-01 -0.11023824674E+00  0.12656808421E+00  0.51100000000E-03 0. -1.
         11    1    4    4    0    0  0.26101992943E-03  0.36222322068E-02 -0.16095377022E-02  0.40050505838E-02  0.51100000000E-03 0.  1.
</event>
<event>
 8    1  0.1064884E+005  0.1043930E+01  0.7957747E-01            NaN
         13   -1    0    0    0    0  0.00000000000E+00  0.00000000000E+00  0.74505805969E-08  0.10566000000E+00  0.10566000000E+00 0. -1.
     999900   -1    0    0    0    0 -0.00000000000E+00 -0.00000000000E+00 -0.74505805969E-08  0.93827000000E+00  0.93827000000E+00 0.  1.
     999902    2    1    2    0    0 -0.14896003736E-01  0.17833907005E-01  0.45823814670E-02  0.10202458832E+01  0.10199709432E+01 0.  0.
     999903    2    3    3    0    0 -0.28392146720E-01  0.12594261102E+00  0.25800828345E-01  0.13327358365E+00  0.20700485288E-01 0.  0.
         14    1    1    2    0    0  0.14896003736E-01 -0.17833907005E-01 -0.45823814670E-02  0.23684116751E-01  0.00000000000E+00 0.  1.
     999901    1    3    3    0    0  0.13496142984E-01 -0.10810870401E+00 -0.21218446878E-01  0.88697229959E+00  0.88000000000E+00 0. -1.
        -11    1    4    4    0    0 -0.21213433524E-01  0.48143007560E-01  0.11130540010E-01  0.53776472371E-01  0.51100000000E-03 0. -1.
         11    1    4    4    0    0 -0.71787131962E-02  0.77799603460E-01  0.14670288335E-01  0.79497111284E-01  0.51100000000E-03 0.  1.
</event>
<event>
 8    1  0.1064884E+005  0.1043930E+01  0.7957747E-01            NaN
         13   -1    0    0    0    0  0.00000000000E+00  0.00000000000E+00  0.74505805969E-08  0.10566000000E+00  0.10566000000E+00 0.  1.
     999900   -1    0    0    0    0 -0.00000000000E+00 -0.00000000000E+00 -0.74505805969E-08  0.93827000000E+00  0.93827000000E+00 0. -1.
     999902    2    1    2    0    0  0.92608145011E-03  0.94644491559E-02  0.21698517904E-01  0.10202390924E+01  0.10199639928E+01 0.  0.
     999903    2    3    3    0    0 -0.35925803874E-01 -0.29117078465E-01  0.12296232165E+00  0.13282658758E+00  0.19613826245E-01 0.  0.
         14    1    1    2    0    0 -0.92608145011E-03 -0.94644491559E-02 -0.21698517904E-01  0.23690907621E-01  0.00000000000E+00 0. -1.
     999901    1    3    3    0    0  0.36851885324E-01  0.38581527620E-01 -0.10126380375E+00  0.88741250480E+00  0.88000000000E+00 0. -1.
        -11    1    4    4    0    0 -0.18812113881E-01 -0.67943745347E-02  0.33240007057E-01  0.38797143505E-01  0.51100000000E-03 0. -1.
         11    1    4    4    0    0 -0.17113689993E-01 -0.22322703930E-01  0.89722314594E-01  0.94029444075E-01  0.51100000000E-03 0.  1.
</event>
<event>
 8    1  0.1064884E+005  0.1043930E+01  0.7957747E-01            NaN
         13   -1    0    0    0    0  0.00000000000E+00  0.00000000000E+00  0.74505805969E-08  0.10566000000E+00  0.10566000000E+00 0. -1.
     999900   -1    0    0    0    0 -0.00000000000E+00 -0.00000000000E+00 -0.74505805969E-08  0.93827000000E+00  0.93827000000E+00 0.  1.
     999902    2    1    2    0    0  0.90221471551E-02 -0.21094941059E-01 -0.81475515660E-02  0.10195829617E+01  0.10192922238E+01 0.  0.
     999903    2    3    3    0    0 -0.55018735335E-01 -0.27947351675E-01 -0.11362998785E+00  0.13094651493E+00  0.20666396137E-01 0.  0.
         14    1    1    2    0    0 -0.90221471551E-02  0.21094941059E-01  0.81475515660E-02  0.24347038302E-01  0.00000000000E+00 0. -1.
     999901    1    3    3    0    0  0.64040882490E-01  0.68524106158E-02  0.10548243629E+00  0.88863644677E+00  0.88000000000E+00 0. -1.
        -11    1    4    4    0    0 -0.49405024756E-01 -0.17295088274E-01 -0.99036483442E-01  0.11201992110E+00  0.51100000000E-03 0.  1.
         11    1    4    4    0    0 -0.56137105787E-02 -0.10652263401E-01 -0.14593504410E-01  0.18926593830E-01  0.51100000000E-03 0. -1.
</event>
<event>
 8    1  0.1064884E+005  0.1043930E+01  0.7957747E-01            NaN
         13   -1    0    0    0    0  0.00000000000E+00  0.00000000000E+00  0.74505805969E-08  0.10566000000E+00  0.10566000000E+00 0.  1.
     999900   -1    0    0    0    0 -0.00000000000E+00 -0.00000000000E+00 -0.74505805969E-08  0.93827000000E+00  0.93827000000E+00 0.  1.
     999902    2    1    2    0    0 -0.18115807492E-01  0.15506717866E-01  0.29813066415E-02  0.10198981676E+01  0.10196149976E+01 0.  0.
     999903    2    3    3    0    0  0.26347803048E-01  0.12708329747E+00  0.79235458770E-02  0.13172545267E+00  0.21081771302E-01 0.  0.
         14    1    1    2    0    0  0.18115807492E-01 -0.15506717866E-01 -0.29813066415E-02  0.24031832418E-01  0.00000000000E+00 0.  1.
     999901    1    3    3    0    0 -0.44463610541E-01 -0.11157657961E+00 -0.49422392355E-02  0.88817271491E+00  0.88000000000E+00 0.  1.
        -11    1    4    4    0    0  0.10695955319E-01  0.62660787855E-01 -0.64215822698E-02  0.63892688428E-01  0.51100000000E-03 0. -1.
         11    1    4    4    0    0  0.15651847729E-01  0.64422509617E-01  0.14345128147E-01  0.67832764246E-01  0.51100000000E-03 0.  1.
</event>
<event>
 8    1  0.1064884E+005  0.1043930E+01  0.7957747E-01            NaN
         13   -1    0    0    0    0  0.00000000000E+00  0.00000000000E+00  0.74505805969E-08  0.10566000000E+00  0.10566000000E+00 0. -1.
     999900   -1    0    0    0    0 -0.00000000000E+00 -0.00000000000E+00 -0.74505805969E-08  0.93827000000E+00  0.93827000000E+00 0.  1.
     999902    2    1    2    0    0  0.17030241715E-01  0.16746642337E-01 -0.18816209749E-02  0.10199712926E+01  0.10196898637E+01 0.  0.
     999903    2    3    3    0    0 -0.24819063070E-01  0.62688600290E-01  0.11018598522E+00  0.13069002317E+00  0.19826354179E-01 0.  0.
         14    1    1    2    0    0 -0.17030241715E-01 -0.16746642337E-01  0.18816209749E-02  0.23958707393E-01  0.00000000000E+00 0. -1.
     999901    1    3    3    0    0  0.41849304786E-01 -0.45941957953E-01 -0.11206760619E+00  0.88928126944E+00  0.88000000000E+00 0.  1.
        -11    1    4    4    0    0  0.25747167155E-02  0.51952605768E-02  0.15694569310E-01  0.16739191302E-01  0.51100000000E-03 0.  1.
         11    1    4    4    0    0 -0.27393779786E-01  0.57493339714E-01  0.94491415908E-01  0.11395083187E+00  0.51100000000E-03 0. -1.
</event>
<event>
 8    1  0.1064884E+005  0.1043930E+01  0.7957747E-01            NaN
         13   -1    0    0    0    0  0.00000000000E+00  0.00000000000E+00  0.74505805969E-08  0.10566000000E+00  0.10566000000E+00 0. -1.
     999900   -1    0    0    0    0 -0.00000000000E+00 -0.00000000000E+00 -0.74505805969E-08  0.93827000000E+00  0.93827000000E+00 0. -1.
     999902    2    1    2    0    0 -0.16469141539E-01  0.12044288061E-01 -0.11769785775E-01  0.10203752689E+01  0.10201033595E+01 0.  0.
     999903    2    3    3    0    0  0.15247512178E-01  0.12933416752E+00 -0.82109957352E-02  0.13201975062E+00  0.20049453580E-01 0.  0.
         14    1    1    2    0    0  0.16469141539E-01 -0.12044288061E-01  0.11769785775E-01  0.23554731056E-01  0.00000000000E+00 0. -1.
     999901    1    3    3    0    0 -0.31716653717E-01 -0.11728987946E+00 -0.35587900394E-02  0.88835551832E+00  0.88000000000E+00 0. -1.
        -11    1    4    4    0    0 -0.21974164719E-02  0.57384053275E-01  0.82169179648E-03  0.57434262490E-01  0.51100000000E-03 0.  1.
         11    1    4    4    0    0  0.17444928650E-01  0.71950114241E-01 -0.90326875317E-02  0.74585488133E-01  0.51100000000E-03 0. -1.
</event>
<event>
 8    1  0.1064884E+005  0.1043930E+01  0.7957747E-01            NaN
         13   -1    0    0    0    0  0.00000000000E+00  0.00000000000E+00  0.74505805969E-08  0.10566000000E+00  0.10566000000E+00 0. -1.
     999900   -1    0    0    0    0 -0.00000000000E+00 -0.00000000000E+00 -0.74505805969E-08  0.93827000000E+00  0.93827000000E+00 0. -1.
     999902    2    1    2    0    0  0.83431829628E-03 -0.13317304167E-01 -0.21198592741E-01  0.10188815068E+01  0.10185735604E+01 0.  0.
     999903    2    3    3    0    0  0.12537006462E+00  0.23318004466E-02 -0.28100589560E-01  0.12994861611E+00  0.19336734438E-01 0.  0.
         14    1    1    2    0    0 -0.83431829628E-03  0.13317304167E-01  0.21198592741E-01  0.25048493198E-01  0.00000000000E+00 0. -1.
     999901    1    3    3    0    0 -0.12453574633E+00 -0.15649104614E-01  0.69019968187E-02  0.88893289069E+00  0.88000000000E+00 0. -1.
        -11    1    4    4    0    0  0.13637438140E-01  0.33274484140E-02 -0.87445217507E-02  0.16546280961E-01  0.51100000000E-03 0. -1.
         11    1    4    4    0    0  0.11173262648E+00 -0.99564796741E-03 -0.19356067809E-01  0.11340233515E+00  0.51100000000E-03 0.  1.
</event>
<event>
 8    1  0.1064884E+005  0.1043930E+01  0.7957747E-01            NaN
         13   -1    0    0    0    0  0.00000000000E+00  0.00000000000E+00  0.74505805969E-08  0.10566000000E+00  0.10566000000E+00 0.  1.
     999900   -1    0    0    0    0 -0.00000000000E+00 -0.00000000000E+00 -0.74505805969E-08  0.93827000000E+00  0.93827000000E+00 0.  1.
     999902    2    1    2    0    0  0.14208362317E-01 -0.10660887269E-01  0.10348401403E-01  0.10233722402E+01  0.10231657346E+01 0.  0.
     999903    2    3    3    0    0  0.85826036740E-01 -0.95137548452E-01  0.42309011303E-01  0.13585498505E+00  0.15788059334E-01 0.  0.
         14    1    1    2    0    0 -0.14208362317E-01  0.10660887269E-01 -0.10348401403E-01  0.20557759817E-01  0.00000000000E+00 0. -1.
     999901    1    3    3    0    0 -0.71617674423E-01  0.84476661184E-01 -0.31960609899E-01  0.88751725513E+00  0.88000000000E+00 0.  1.
        -11    1    4    4    0    0  0.10685549442E-01 -0.97009054669E-02  0.10038948539E-01  0.17587783900E-01  0.51100000000E-03 0. -1.
         11    1    4    4    0    0  0.75140487298E-01 -0.85436642985E-01  0.32270062763E-01  0.11826720115E+00  0.51100000000E-03 0.  1.
</event>
<event>
 8    1  0.1064884E+005  0.1043930E+01  0.7957747E-01            NaN
         13   -1    0    0    0    0  0.00000000000E+00  0.00000000000E+00  0.74505805969E-08  0.10566000000E+00  0.10566000000E+00 0.  1.
     999900   -1    0    0    0    0 -0.00000000000E+00 -0.00000000000E+00 -0.74505805969E-08  0.93827000000E+00  0.93827000000E+00 0. -1.
     999902    2    1    2    0    0 -0.65265648177E-02 -0.20447407632E-01 -0.12784100378E-01  0.10189474911E+01  0.10186411851E+01 0.  0.
     999903    2    3    3    0    0  0.88777124198E-01 -0.17828545503E-01  0.88023311799E-01  0.12807612784E+00  0.21357815570E-01 0.  0.
         14    1    1    2    0    0  0.65265648177E-02  0.20447407632E-01  0.12784100378E-01  0.24982508874E-01  0.00000000000E+00 0.  1.
     999901    1    3    3    0    0 -0.95303689016E-01 -0.26188621287E-02 -0.10080741218E+00  0.89087136329E+00  0.88000000000E+00 0. -1.
        -11    1    4    4    0    0  0.83827100407E-01 -0.11948520091E-01  0.75907074172E-01  0.11371848981E+00  0.51100000000E-03 0. -1.
         11    1    4    4    0    0  0.49500237910E-02 -0.58800254120E-02  0.12116237628E-01  0.14357638024E-01  0.51100000000E-03 0.  1.
</event>
<event>
 8    1  0.1064884E+005  0.1043930E+01  0.7957747E-01            NaN
         13   -1    0    0    0    0  0.00000000000E+00  0.00000000000E+00  0.74505805969E-08  0.10566000000E+00  0.10566000000E+00 0.  1.
     999900   -1    0    0    0    0 -0.00000000000E+00 -0.00000000000E+00 -0.74505805969E-08  0.93827000000E+00  0.93827000000E+00 0.  1.
     999902    2    1    2    0    0 -0.14254324329E-01  0.60561737296E-02  0.17825712911E-01  0.10203160414E+01  0.10200427467E+01 0.  0.
     999903    2    3    3    0    0  0.25970374890E-01  0.78322972856E-01  0.10167827657E+00  0.13246933774E+00  0.20017618894E-01 0.  0.
         14    1    1    2    0    0  0.14254324329E-01 -0.60561737296E-02 -0.17825712911E-01  0.23613958649E-01  0.00000000000E+00 0. -1.
     999901    1    3    3    0    0 -0.40224699218E-01 -0.72266799127E-01 -0.83852563656E-01  0.88784670361E+00  0.88000000000E+00 0.  1.
        -11    1    4    4    0    0  0.34715749817E-03  0.19708662350E-01  0.34267249013E-01  0.39535520306E-01  0.51100000000E-03 0.  1.
         11    1    4    4    0    0  0.25623217392E-01  0.58614310506E-01  0.67411027554E-01  0.92933817432E-01  0.51100000000E-03 0. -1.
</event>
<event>
 8    1  0.1064884E+005  0.1043930E+01  0.7957747E-01            NaN
         13   -1    0    0    0    0  0.00000000000E+00  0.00000000000E+00  0.74505805969E-08  0.10566000000E+00  0.10566000000E+00 0. -1.
     999900   -1    0    0    0    0 -0.00000000000E+00 -0.00000000000E+00 -0.74505805969E-08  0.93827000000E+00  0.93827000000E+00 0.  1.
     999902    2    1    2    0    0 -0.14907395581E-01 -0.18123901958E-01 -0.52617433855E-02  0.10198802140E+01  0.10195966156E+01 0.  0.
     999903    2    3    3    0    0 -0.97716108449E-01 -0.77616065383E-01  0.41333864623E-01  0.13276818545E+00  0.18606752734E-01 0.  0.
         14    1    1    2    0    0  0.14907395581E-01  0.18123901958E-01  0.52617433855E-02  0.24049786042E-01  0.00000000000E+00 0.  1.
     999901    1    3    3    0    0  0.82808712868E-01  0.59492163425E-01 -0.46595608009E-01  0.88711202851E+00  0.88000000000E+00 0.  1.
        -11    1    4    4    0    0 -0.52799553698E-01 -0.47157189273E-01  0.32033657961E-01  0.77704631356E-01  0.51100000000E-03 0.  1.
         11    1    4    4    0    0 -0.44916554751E-01 -0.30458876110E-01  0.93002066618E-02  0.55063554095E-01  0.51100000000E-03 0. -1.
</event>
<event>
 8    1  0.1064884E+005  0.1043930E+01  0.7957747E-01            NaN
         13   -1    0    0    0    0  0.00000000000E+00  0.00000000000E+00  0.74505805969E-08  0.10566000000E+00  0.10566000000E+00 0.  1.
     999900   -1    0    0    0    0 -0.00000000000E+00 -0.00000000000E+00 -0.74505805969E-08  0.93827000000E+00  0.93827000000E+00 0.  1.
     999902    2    1    2    0    0  0.59849196598E-02  0.21475294975E-01 -0.43182849680E-02  0.10212219586E+01  0.10209694577E+01 0.  0.
     999903    2    3    3    0    0  0.66365017308E-01 -0.56947313111E-01 -0.95427807014E-01  0.13099906146E+00  0.20173640188E-01 0.  0.
         14    1    1    2    0    0 -0.59849196598E-02 -0.21475294975E-01  0.43182849680E-02  0.22708041365E-01  0.00000000000E+00 0. -1.
     999901    1    3    3    0    0 -0.60380097648E-01  0.78422608086E-01  0.91109522046E-01  0.89022289718E+00  0.88000000000E+00 0.  1.
        -11    1    4    4    0    0  0.29208698378E-01 -0.12418796839E-01 -0.34449795015E-01  0.46844680311E-01  0.51100000000E-03 0. -1.
         11    1    4    4    0    0  0.37156318930E-01 -0.44528516272E-01 -0.60978011999E-01  0.84154381147E-01  0.51100000000E-03 0.  1.
</event>
<event>
 8    1  0.1064884E+005  0.1043930E+01  0.7957747E-01            NaN
         13   -1    0    0    0    0  0.00000000000E+00  0.00000000000E+00  0.74505805969E-08  0.10566000000E+00  0.10566000000E+00 0. -1.
     999900   -1    0    0    0    0 -0.00000000000E+00 -0.00000000000E+00 -0.74505805969E-08  0.93827000000E+00  0.93827000000E+00 0.  1.
     999902    2    1    2    0    0 -0.21889061106E-01 -0.33684738348E-02 -0.10081059498E-01  0.10195967846E+01  0.10193063807E+01 0.  0.
     999903    2    3    3    0    0  0.97094589656E-01  0.68802231883E-01 -0.43061453454E-01  0.12805125781E+00  0.19537896546E-01 0.  0.
         14    1    1    2    0    0  0.21889061106E-01  0.33684738348E-02  0.10081059498E-01  0.24333215420E-01  0.00000000000E+00 0.  1.
     999901    1    3    3    0    0 -0.11898365076E+00 -0.72170705717E-01  0.32980393956E-01  0.89154552677E+00  0.88000000000E+00 0. -1.
        -11    1    4    4    0    0  0.51898900200E-01  0.29340552540E-01 -0.13351256540E-01  0.61097307940E-01  0.51100000000E-03 0. -1.
         11    1    4    4    0    0  0.45195689456E-01  0.39461679342E-01 -0.29710196913E-01  0.66953949873E-01  0.51100000000E-03 0.  1.
</event>
<event>
 8    1  0.1064884E+005  0.1043930E+01  0.7957747E-01            NaN
         13   -1    0    0    0    0  0.00000000000E+00  0.00000000000E+00  0.74505805969E-08  0.10566000000E+00  0.10566000000E+00 0. -1.
     999900   -1    0    0    0    0 -0.00000000000E+00 -0.00000000000E+00 -0.74505805969E-08  0.93827000000E+00  0.93827000000E+00 0. -1.
     999902    2    1    2    0    0 -0.11066943984E-01 -0.92048221600E-02  0.18752605977E-01  0.10202896482E+01  0.10200157352E+01 0.  0.
     999903    2    3    3    0    0  0.70726659463E-01  0.52373192302E-01  0.95044434194E-01  0.13107511368E+00  0.20050668919E-01 0.  0.
         14    1    1    2    0    0  0.11066943984E-01  0.92048221600E-02 -0.18752605977E-01  0.23640351755E-01  0.00000000000E+00 0.  1.
     999901    1    3    3    0    0 -0.81793603447E-01 -0.61578014462E-01 -0.76291828217E-01  0.88921453457E+00  0.88000000000E+00 0. -1.
        -11    1    4    4    0    0  0.27487791513E-01  0.14962743631E-01  0.21749352491E-01  0.38115060462E-01  0.51100000000E-03 0. -1.
         11    1    4    4    0    0  0.43238867950E-01  0.37410448671E-01  0.73295081703E-01  0.92960053218E-01  0.51100000000E-03 0.  1.
</event>
<event>
 8    1  0.1064884E+005  0.1043930E+01  0.7957747E-01            NaN
         13   -1    0    0    0    0  0.00000000000E+00  0.00000000000E+00  0.74505805969E-08  0.10566000000E+00  0.10566000000E+00 0. -1.
     999900   -1    0    0    0    0 -0.00000000000E+00 -0.00000000000E+00 -0.74505805969E-08  0.93827000000E+00  0.93827000000E+00 0.  1.
     999902    2    1    2    0    0 -0.17891290299E-01 -0.10900507975E-01 -0.10763477237E-01  0.10203764061E+01  0.10201045233E+01 0.  0.
     999903    2    3    3    0    0  0.17357114923E-01  0.11428075784E+00 -0.55496908680E-01  0.12969471254E+00  0.19479490162E-01 0.  0.
         14    1    1    2    0    0  0.17891290299E-01  0.10900507975E-01  0.10763477237E-01  0.23553593885E-01  0.00000000000E+00 0.  1.
     999901    1    3    3    0    0 -0.35248405222E-01 -0.12518126581E+00  0.44733431443E-01  0.89068169358E+00  0.88000000000E+00 0.  1.
        -11    1    4    4    0    0 -0.34522632498E-02  0.12021939802E-01 -0.29743806191E-02  0.12866748587E-01  0.51100000000E-03 0. -1.
         11    1    4    4    0    0  0.20809378173E-01  0.10225881804E+00 -0.52522528061E-01  0.11682796395E+00  0.51100000000E-03 0.  1.
</event>
<event>
 8    1  0.1064884E+005  0.1043930E+01  0.7957747E-01            NaN
         13   -1    0    0    0    0  0.00000000000E+00  0.00000000000E+00  0.74505805969E-08  0.10566000000E+00  0.10566000000E+00 0. -1.
     999900   -1    0    0    0    0 -0.00000000000E+00 -0.00000000000E+00 -0.74505805969E-08  0.93827000000E+00  0.93827000000E+00 0.  1.
     999902    2    1    2    0    0  0.15003732523E-02  0.23461202512E-01 -0.72083592205E-04  0.10204207606E+01  0.10201499126E+01 0.  0.
     999903    2    3    3    0    0  0.78634743826E-01 -0.34387496058E-02 -0.10256847788E+00  0.13071360121E+00  0.19248505195E-01 0.  0.
         14    1    1    2    0    0 -0.15003732523E-02 -0.23461202512E-01  0.72083592205E-04  0.23509239445E-01  0.00000000000E+00 0.  1.
     999901    1    3    3    0    0 -0.77134370574E-01  0.26899952118E-01  0.10249639428E+00  0.88970715934E+00  0.88000000000E+00 0. -1.
        -11    1    4    4    0    0  0.28542843719E-01 -0.13170399496E-02 -0.52969581282E-01  0.60186927019E-01  0.51100000000E-03 0. -1.
         11    1    4    4    0    0  0.50091900107E-01 -0.21217096562E-02 -0.49598896594E-01  0.70526674192E-01  0.51100000000E-03 0.  1.
</event>
<event>
 8    1  0.1064884E+005  0.1043930E+01  0.7957747E-01            NaN
         13   -1    0    0    0    0  0.00000000000E+00  0.00000000000E+00  0.74505805969E-08  0.10566000000E+00  0.10566000000E+00 0.  1.
     999900   -1    0    0    0    0 -0.00000000000E+00 -0.00000000000E+00 -0.74505805969E-08  0.93827000000E+00  0.93827000000E+00 0.  1.
     999902    2    1    2    0    0  0.13173878397E-01  0.15953815275E-01 -0.68315215524E-02  0.10221413566E+01  0.10219090996E+01 0.  0.
     999903    2    3    3    0    0 -0.95535428329E-01 -0.85164714198E-01  0.65744114563E-02  0.12960430449E+00  0.19339241099E-01 0.  0.
         14    1    1    2    0    0 -0.13173878397E-01 -0.15953815275E-01  0.68315215524E-02  0.21788643385E-01  0.00000000000E+00 0.  1.
     999901    1    3    3    0    0  0.10870930673E+00  0.10111852947E+00 -0.13405933009E-01  0.89253705212E+00  0.88000000000E+00 0.  1.
        -11    1    4    4    0    0 -0.80769183899E-01 -0.64362207729E-01  0.93153365714E-04  0.10327838423E+00  0.51100000000E-03 0. -1.
         11    1    4    4    0    0 -0.14766244430E-01 -0.20802506469E-01  0.64812580906E-02  0.26325920258E-01  0.51100000000E-03 0.  1.
</event>
<event>
 8    1  0.1064884E+005  0.1043930E+01  0.7957747E-01            NaN
         13   -1    0    0    0    0  0.00000000000E+00  0.00000000000E+00  0.74505805969E-08  0.10566000000E+00  0.10566000000E+00 0.  1.
     999900   -1    0    0    0    0 -0.00000000000E+00 -0.00000000000E+00 -0.74505805969E-08  0.93827000000E+00  0.93827000000E+00 0.  1.
     999902    2    1    2    0    0  0.14136131763E-01 -0.15699737085E-01 -0.95366205108E-02  0.10207511498E+01  0.10204879474E+01 0.  0.
     999903    2    3    3    0    0  0.13255873756E-01 -0.11407930853E+00 -0.65037624652E-01  0.13353095369E+00  0.20268600070E-01 0.  0.
         14    1    1    2    0    0 -0.14136131763E-01  0.15699737085E-01  0.95366205108E-02  0.23178850198E-01  0.00000000000E+00 0.  1.
     999901    1    3    3    0    0  0.88025800655E-03  0.98379571445E-01  0.55501004141E-01  0.88722019611E+00  0.88000000000E+00 0. -1.
        -11    1    4    4    0    0 -0.46437199486E-02 -0.10541998678E-01 -0.71097961863E-02  0.13546519623E-01  0.51100000000E-03 0. -1.
         11    1    4    4    0    0  0.17899593705E-01 -0.10353730985E+00 -0.57927828465E-01  0.11998443406E+00  0.51100000000E-03 0.  1.
</event>
<event>
 8    1  0.1064884E+005  0.1043930E+01  0.7957747E-01            NaN
         13   -1    0    0    0    0  0.00000000000E+00  0.00000000000E+00  0.74505805969E-08  0.10566000000E+00  0.10566000000E+00 0. -1.
     999900   -1    0    0    0    0 -0.00000000000E+00 -0.00000000000E+00 -0.74505805969E-08  0.93827000000E+00  0.93827000000E+00 0.  1.
     999902    2    1    2    0    0 -0.25435764047E-01 -0.50322226807E-02 -0.15089817704E-02  0.10179573532E+01  0.10176259600E+01 0.  0.
     999903    2    3    3    0    0 -0.10890443416E+00  0.29063848912E-01  0.63727293486E-01  0.13094814656E+00  0.19528595911E-01 0.  0.
         14    1    1    2    0    0  0.25435764047E-01  0.50322226807E-02  0.15089817704E-02  0.25972646838E-01  0.00000000000E+00 0. -1.
     999901    1    3    3    0    0  0.83468670116E-01 -0.34096071593E-01 -0.65236275256E-01  0.88700920660E+00  0.88000000000E+00 0. -1.
        -11    1    4    4    0    0 -0.24674100001E-01  0.11839539213E-01  0.80966511250E-02  0.28544750482E-01  0.51100000000E-03 0.  1.
         11    1    4    4    0    0 -0.84230334162E-01  0.17224309699E-01  0.55630642361E-01  0.10240339608E+00  0.51100000000E-03 0. -1.
</event>
<event>
 8    1  0.1064884E+005  0.1043930E+01  0.7957747E-01            NaN
         13   -1    0    0    0    0  0.00000000000E+00  0.00000000000E+00  0.74505805969E-08  0.10566000000E+00  0.10566000000E+00 0. -1.
     999900   -1    0    0    0    0 -0.00000000000E+00 -0.00000000000E+00 -0.74505805969E-08  0.93827000000E+00  0.93827000000E+00 0.  1.
     999902    2    1    2    0    0  0.17823458387E-01 -0.12494919374E-01  0.10561894502E-01  0.10197359451E+01  0.10194488930E+01 0.  0.
     999903    2    3    3    0    0 -0.21269523959E-01  0.21944027955E-01 -0.12283813282E+00  0.12815876408E+00  0.20038186626E-01 0.  0.
         14    1    1    2    0    0 -0.17823458387E-01  0.12494919374E-01 -0.10561894502E-01  0.24194054941E-01  0.00000000000E+00 0.  1.
     999901    1    3    3    0    0  0.39092982346E-01 -0.34438947328E-01  0.13340002732E+00  0.89157718098E+00  0.88000000000E+00 0.  1.
        -11    1    4    4    0    0 -0.11057281037E-02  0.14625590971E-01 -0.40735885703E-01  0.43299007505E-01  0.51100000000E-03 0. -1.
         11    1    4    4    0    0 -0.20163795855E-01  0.73184369834E-02 -0.82102247114E-01  0.84859756571E-01  0.51100000000E-03 0.  1.
</event>
<event>
 8    1  0.1064884E+005  0.1043930E+01  0.7957747E-01            NaN
         13   -1    0    0    0    0  0.00000000000E+00  0.00000000000E+00  0.74505805969E-08  0.10566000000E+00  0.10566000000E+00 0. -1.
     999900   -1    0    0    0    0 -0.00000000000E+00 -0.00000000000E+00 -0.74505805969E-08  0.93827000000E+00  0.93827000000E+00 0.  1.
     999902    2    1    2    0    0  0.14924395875E-01 -0.63544466463E-02 -0.20210998089E-01  0.10180147337E+01  0.10176848220E+01 0.  0.
     999903    2    3    3    0    0  0.49356177027E-02  0.17826971609E-01 -0.12820319608E+00  0.13102723011E+00  0.19746247893E-01 0.  0.
         14    1    1    2    0    0 -0.14924395875E-01  0.63544466463E-02  0.20210998089E-01  0.25915266315E-01  0.00000000000E+00 0.  1.
     999901    1    3    3    0    0  0.99887781728E-02 -0.24181418255E-01  0.10799219799E+00  0.88698750358E+00  0.88000000000E+00 0. -1.
        -11    1    4    4    0    0  0.18777916400E-02  0.65829604162E-02 -0.10330164753E+00  0.10352947876E+00  0.51100000000E-03 0. -1.
         11    1    4    4    0    0  0.30578260627E-02  0.11244011193E-01 -0.24901548553E-01  0.27497751349E-01  0.51100000000E-03 0.  1.
</event>
<event>
 8    1  0.1064884E+005  0.1043930E+01  0.7957747E-01            NaN
         13   -1    0    0    0    0  0.00000000000E+00  0.00000000000E+00  0.74505805969E-08  0.10566000000E+00  0.10566000000E+00 0. -1.
     999900   -1    0    0    0    0 -0.00000000000E+00 -0.00000000000E+00 -0.74505805969E-08  0.93827000000E+00  0.93827000000E+00 0.  1.
     999902    2    1    2    0    0  0.20466860968E-01  0.10021765394E-01 -0.62992185755E-02  0.10202866429E+01  0.10200126594E+01 0.  0.
     999903    2    3    3    0    0  0.98499759570E-01  0.68274885544E-03  0.85568622236E-01  0.13202088839E+00  0.20121060550E-01 0.  0.
         14    1    1    2    0    0 -0.20466860968E-01 -0.10021765394E-01  0.62992185755E-02  0.23643357083E-01  0.00000000000E+00 0. -1.
     999901    1    3    3    0    0 -0.78032898602E-01  0.93390165389E-02 -0.91867840812E-01  0.88826575453E+00  0.88000000000E+00 0.  1.
        -11    1    4    4    0    0  0.60062807944E-01 -0.93924321890E-02  0.52202202962E-01  0.80131702813E-01  0.51100000000E-03 0. -1.
         11    1    4    4    0    0  0.38436951626E-01  0.10075181044E-01  0.33366419274E-01  0.51889185575E-01  0.51100000000E-03 0.  1.
</event>
<event>
 8    1  0.1064884E+005  0.1043930E+01  0.7957747E-01            NaN
         13   -1    0    0    0    0  0.00000000000E+00  0.00000000000E+00  0.74505805969E-08  0.10566000000E+00  0.10566000000E+00 0.  1.
     999900   -1    0    0    0    0 -0.00000000000E+00 -0.00000000000E+00 -0.74505805969E-08  0.93827000000E+00  0.93827000000E+00 0. -1.
     999902    2    1    2    0    0  0.63117686091E-03  0.17101413032E-01 -0.16750490546E-01  0.10199834836E+01  0.10197023444E+01 0.  0.
     999903    2    3    3    0    0  0.22580483324E-01 -0.54640825610E-01 -0.11537493404E+00  0.13130159359E+00  0.20814298550E-01 0.  0.
         14    1    1    2    0    0 -0.63117686091E-03 -0.17101413032E-01  0.16750490546E-01  0.23946516353E-01  0.00000000000E+00 0.  1.
     999901    1    3    3    0    0 -0.21949306463E-01  0.71742238642E-01  0.98624443494E-01  0.88868189006E+00  0.88000000000E+00 0.  1.
        -11    1    4    4    0    0  0.98261646406E-02 -0.46409566362E-01 -0.89597143042E-01  0.10138200296E+00  0.51100000000E-03 0. -1.
         11    1    4    4    0    0  0.12754318683E-01 -0.82312592478E-02 -0.25777790998E-01  0.29919590632E-01  0.51100000000E-03 0.  1.
</event>
<event>
 8    1  0.1064884E+005  0.1043930E+01  0.7957747E-01            NaN
         13   -1    0    0    0    0  0.00000000000E+00  0.00000000000E+00  0.74505805969E-08  0.10566000000E+00  0.10566000000E+00 0.  1.
     999900   -1    0    0    0    0 -0.00000000000E+00 -0.00000000000E+00 -0.74505805969E-08  0.93827000000E+00  0.93827000000E+00 0.  1.
     999902    2    1    2    0    0 -0.17905009856E-01  0.18186679139E-02  0.15342076543E-01  0.10202809780E+01  0.10200068616E+01 0.  0.
     999903    2    3    3    0    0  0.14456953021E-03  0.65623623957E-01  0.11325348233E+00  0.13237135242E+00  0.19731770348E-01 0.  0.
         14    1    1    2    0    0  0.17905009856E-01 -0.18186679139E-02 -0.15342076543E-01  0.23649022043E-01  0.00000000000E+00 0. -1.
     999901    1    3    3    0    0 -0.18049579386E-01 -0.63804956043E-01 -0.97911405787E-01  0.88790962553E+00  0.88000000000E+00 0.  1.
        -11    1    4    4    0    0 -0.59597570798E-03  0.27442521434E-01  0.66879959911E-01  0.72295486224E-01  0.51100000000E-03 0. -1.
         11    1    4    4    0    0  0.74054523819E-03  0.38181102522E-01  0.46373522419E-01  0.60075866200E-01  0.51100000000E-03 0.  1.
</event>
<event>
 8    1  0.1064884E+005  0.1043930E+01  0.7957747E-01            NaN
         13   -1    0    0    0    0  0.00000000000E+00  0.00000000000E+00  0.74505805969E-08  0.10566000000E+00  0.10566000000E+00 0.  1.
     999900   -1    0    0    0    0 -0.00000000000E+00 -0.00000000000E+00 -0.74505805969E-08  0.93827000000E+00  0.93827000000E+00 0.  1.
     999902    2    1    2    0    0  0.15818109521E-01 -0.14694766113E-01 -0.14039107973E-01  0.10181764509E+01  0.10178506962E+01 0.  0.
     999903    2    3    3    0    0  0.94394404175E-01  0.78045296617E-01  0.33844628245E-01  0.12853168721E+00  0.19327801038E-01 0.  0.
         14    1    1    2    0    0 -0.15818109521E-01  0.14694766113E-01  0.14039107973E-01  0.25753549126E-01  0.00000000000E+00 0. -1.
     999901    1    3    3    0    0 -0.78576294654E-01 -0.92740062730E-01 -0.47883736218E-01  0.88964476366E+00  0.88000000000E+00 0.  1.
        -11    1    4    4    0    0  0.46526176066E-01  0.38887352991E-01  0.26756956249E-01  0.66280518334E-01  0.51100000000E-03 0.  1.
         11    1    4    4    0    0  0.47868228109E-01  0.39157943626E-01  0.70876719960E-02  0.62251168878E-01  0.51100000000E-03 0. -1.
</event>
<event>
 8    1  0.1064884E+005  0.1043930E+01  0.7957747E-01            NaN
         13   -1    0    0    0    0  0.00000000000E+00  0.00000000000E+00  0.74505805969E-08  0.10566000000E+00  0.10566000000E+00 0. -1.
     999900   -1    0    0    0    0 -0.00000000000E+00 -0.00000000000E+00 -0.74505805969E-08  0.93827000000E+00  0.93827000000E+00 0. -1.
     999902    2    1    2    0    0 -0.21421955836E-01 -0.91048632764E-02 -0.67631083802E-02  0.10196908094E+01  0.10194026723E+01 0.  0.
     999903    2    3    3    0    0 -0.21019594078E-01 -0.10495754136E+00 -0.74357565061E-01  0.13190879313E+00  0.20321746999E-01 0.  0.
         14    1    1    2    0    0  0.21421955836E-01  0.91048632764E-02  0.67631083802E-02  0.24239190624E-01  0.00000000000E+00 0. -1.
     999901    1    3    3    0    0 -0.40236175815E-03  0.95852678081E-01  0.67594456681E-01  0.88778201624E+00  0.88000000000E+00 0.  1.
        -11    1    4    4    0    0 -0.89217027849E-02 -0.76358863195E-01 -0.44512305100E-01  0.88836249332E-01  0.51100000000E-03 0. -1.
         11    1    4    4    0    0 -0.12097891293E-01 -0.28598678161E-01 -0.29845259962E-01  0.43072543801E-01  0.51100000000E-03 0.  1.
</event>
<event>
 8    1  0.1064884E+005  0.1043930E+01  0.7957747E-01            NaN
         13   -1    0    0    0    0  0.00000000000E+00  0.00000000000E+00  0.74505805969E-08  0.10566000000E+00  0.10566000000E+00 0. -1.
     999900   -1    0    0    0    0 -0.00000000000E+00 -0.00000000000E+00 -0.74505805969E-08  0.93827000000E+00  0.93827000000E+00 0.  1.
     999902    2    1    2    0    0 -0.25361754028E-01 -0.90001173407E-02  0.61866232188E-03  0.10170115412E+01  0.10166552373E+01 0.  0.
     999903    2    3    3    0    0 -0.27707704597E-01 -0.23418170577E-01  0.12154950780E+00  0.12862105663E+00  0.21282992134E-01 0.  0.
         14    1    1    2    0    0  0.25361754028E-01  0.90001173407E-02 -0.61866232188E-03  0.26918458771E-01  0.00000000000E+00 0.  1.
     999901    1    3    3    0    0  0.23459505690E-02  0.14418053236E-01 -0.12093084548E+00  0.88839048460E+00  0.88000000000E+00 0.  1.
        -11    1    4    4    0    0 -0.26214039454E-02 -0.71001616316E-02  0.56607695509E-01  0.57113714340E-01  0.51100000000E-03 0. -1.
         11    1    4    4    0    0 -0.25086300652E-01 -0.16318008945E-01  0.64941812292E-01  0.71507342287E-01  0.51100000000E-03 0.  1.
</event>
<event>
 8    1  0.1064884E+005  0.1043930E+01  0.7957747E-01            NaN
         13   -1    0    0    0    0  0.00000000000E+00  0.00000000000E+00  0.74505805969E-08  0.10566000000E+00  0.10566000000E+00 0. -1.
     999900   -1    0    0    0    0 -0.00000000000E+00 -0.00000000000E+00 -0.74505805969E-08  0.93827000000E+00  0.93827000000E+00 0.  1.
     999902    2    1    2    0    0  0.42063950340E-02  0.17512562469E-01  0.15255461671E-01  0.10203267648E+01  0.10200537212E+01 0.  0.
     999903    2    3    3    0    0 -0.78613463007E-01  0.32783292128E-01  0.99133720653E-01  0.13233583777E+00  0.20747495731E-01 0.  0.
         14    1    1    2    0    0 -0.42063950340E-02 -0.17512562469E-01 -0.15255461671E-01  0.23603235249E-01  0.00000000000E+00 0.  1.
     999901    1    3    3    0    0  0.82819858041E-01 -0.15270729659E-01 -0.83878258981E-01  0.88799092698E+00  0.88000000000E+00 0.  1.
        -11    1    4    4    0    0 -0.31110836985E-01  0.23369328262E-02  0.37187945085E-01  0.48544307736E-01  0.51100000000E-03 0. -1.
         11    1    4    4    0    0 -0.47502626022E-01  0.30446359302E-01  0.61945775568E-01  0.83791530034E-01  0.51100000000E-03 0.  1.
</event>
<event>
 7    1  0.1064884E+005  0.1043930E+01  0.7957747E-01            NaN
         13   -1    0    0    0    0  0.00000000000E+00  0.00000000000E+00  0.74505805969E-08  0.10566000000E+00  0.10566000000E+00 0. -1.
     999900   -1    0    0    0    0 -0.00000000000E+00 -0.00000000000E+00 -0.74505805969E-08  0.93827000000E+00  0.93827000000E+00 0.  1.
     999903    2    1    2    0    0  0.73330006676E-01 -0.25260572429E-01 -0.66830724990E-01  0.10436598732E+00  0.20261468552E-01 0.  0.
         14    1    1    2    0    0 -0.22108441520E-01 -0.46334814607E-01 -0.82205467960E-02  0.51993034348E-01  0.00000000000E+00 0. -1.
     999901    1    1    2    0    0 -0.51221565156E-01  0.71595387036E-01  0.75051271786E-01  0.88757097833E+00  0.88000000000E+00 0. -1.
        -11    1    3    3    0    0  0.67585301991E-01 -0.26509702216E-01 -0.54782094815E-01  0.90949856460E-01  0.51100000000E-03 0. -1.
         11    1    3    3    0    0  0.57447046850E-02  0.12491297867E-02 -0.12048630174E-01  0.13416130859E-01  0.51100000000E-03 0.  1.
</event>
<event>
 8    1  0.1064884E+005  0.1043930E+01  0.7957747E-01            NaN
         13   -1    0    0    0    0  0.00000000000E+00  0.00000000000E+00  0.74505805969E-08  0.10566000000E+00  0.10566000000E+00 0.  1.
     999900   -1    0    0    0    0 -0.00000000000E+00 -0.00000000000E+00 -0.74505805969E-08  0.93827000000E+00  0.93827000000E+00 0. -1.
     999902    2    1    2    0    0 -0.82813621923E-02 -0.21811165275E-01  0.54104437288E-03  0.10205933203E+01  0.10203264795E+01 0.  0.
     999903    2    3    3    0    0  0.46526783896E-01  0.11324089402E+00  0.31836481038E-01  0.12805626451E+00  0.19914910452E-01 0.  0.
         14    1    1    2    0    0  0.82813621923E-02  0.21811165275E-01 -0.54104437288E-03  0.23336679701E-01  0.00000000000E+00 0. -1.
     999901    1    3    3    0    0 -0.54808146088E-01 -0.13505205929E+00 -0.31295436665E-01  0.89253705579E+00  0.88000000000E+00 0.  1.
        -11    1    4    4    0    0  0.39814314488E-01  0.10875285639E+00  0.31192044588E-01  0.11993985234E+00  0.51100000000E-03 0.  1.
         11    1    4    4    0    0  0.67124694082E-02  0.44880376244E-02  0.64443644969E-03  0.81164121761E-02  0.51100000000E-03 0. -1.
</event>
<event>
 8    1  0.1064884E+005  0.1043930E+01  0.7957747E-01            NaN
         13   -1    0    0    0    0  0.00000000000E+00  0.00000000000E+00  0.74505805969E-08  0.10566000000E+00  0.10566000000E+00 0. -1.
     999900   -1    0    0    0    0 -0.00000000000E+00 -0.00000000000E+00 -0.74505805969E-08  0.93827000000E+00  0.93827000000E+00 0.  1.
     999902    2    1    2    0    0 -0.14504342550E-01 -0.17599158588E-01 -0.80828716188E-02  0.10197341502E+01  0.10194470550E+01 0.  0.
     999903    2    3    3    0    0  0.56370869443E-03 -0.11865887765E+00 -0.55551361709E-01  0.13255132203E+00  0.20091096779E-01 0.  0.
         14    1    1    2    0    0  0.14504342550E-01  0.17599158588E-01  0.80828716188E-02  0.24195849839E-01  0.00000000000E+00 0.  1.
     999901    1    3    3    0    0 -0.15068051244E-01  0.10105971907E+00  0.47468490090E-01  0.88718282813E+00  0.88000000000E+00 0. -1.
        -11    1    4    4    0    0 -0.80545034893E-02 -0.29842434871E-01 -0.17674776734E-01  0.35610459125E-01  0.51100000000E-03 0.  1.
         11    1    4    4    0    0  0.86182121837E-02 -0.88816442782E-01 -0.37876584975E-01  0.96940862902E-01  0.51100000000E-03 0. -1.
</event>
<event>
 8    1  0.1064884E+005  0.1043930E+01  0.7957747E-01            NaN
         13   -1    0    0    0    0  0.00000000000E+00  0.00000000000E+00  0.74505805969E-08  0.10566000000E+00  0.10566000000E+00 0.  1.
     999900   -1    0    0    0    0 -0.00000000000E+00 -0.00000000000E+00 -0.74505805969E-08  0.93827000000E+00  0.93827000000E+00 0. -1.
     999902    2    1    2    0    0 -0.21553210538E-02 -0.19792360370E-01  0.10660167910E-01  0.10213463307E+01  0.10210966189E+01 0.  0.
     999903    2    3    3    0    0  0.31764420729E-01  0.29480193225E-01 -0.12053227100E+00  0.12961218344E+00  0.19830015768E-01 0.  0.
         14    1    1    2    0    0  0.21553210538E-02  0.19792360370E-01 -0.10660167910E-01  0.22583669270E-01  0.00000000000E+00 0.  1.
     999901    1    3    3    0    0 -0.33919741783E-01 -0.49272553594E-01  0.13119243891E+00  0.89173414729E+00  0.88000000000E+00 0.  1.
        -11    1    4    4    0    0  0.25285202931E-01  0.13886334480E-01 -0.92371896450E-01  0.96772930860E-01  0.51100000000E-03 0.  1.
         11    1    4    4    0    0  0.64792177977E-02  0.15593858745E-01 -0.28160374553E-01  0.32839252577E-01  0.51100000000E-03 0. -1.
</event>
<event>
 8    1  0.1064884E+005  0.1043930E+01  0.7957747E-01            NaN
         13   -1    0    0    0    0  0.00000000000E+00  0.00000000000E+00  0.74505805969E-08  0.10566000000E+00  0.10566000000E+00 0.  1.
     999900   -1    0    0    0    0 -0.00000000000E+00 -0.00000000000E+00 -0.74505805969E-08  0.93827000000E+00  0.93827000000E+00 0. -1.
     999902    2    1    2    0    0  0.45927881668E-02 -0.23069393973E-01  0.36344852326E-02  0.10201287369E+01  0.10198510380E+01 0.  0.
     999903    2    3    3    0    0  0.23955150213E-01 -0.10862592655E+00 -0.70168456573E-01  0.13269327698E+00  0.17619657165E-01 0.  0.
         14    1    1    2    0    0 -0.45927881668E-02  0.23069393973E-01 -0.36344852326E-02  0.23801263083E-01  0.00000000000E+00 0.  1.
     999901    1    3    3    0    0 -0.19362362046E-01  0.85556532573E-01  0.73802941806E-01  0.88743545993E+00  0.88000000000E+00 0.  1.
        -11    1    4    4    0    0  0.17120410938E-01 -0.38704401640E-01 -0.24647270419E-01  0.48978446659E-01  0.51100000000E-03 0.  1.
         11    1    4    4    0    0  0.68347392746E-02 -0.69921524907E-01 -0.45521186154E-01  0.83714830324E-01  0.51100000000E-03 0. -1.
</event>
<event>
 8    1  0.1064884E+005  0.1043930E+01  0.7957747E-01            NaN
         13   -1    0    0    0    0  0.00000000000E+00  0.00000000000E+00  0.74505805969E-08  0.10566000000E+00  0.10566000000E+00 0.  1.
     999900   -1    0    0    0    0 -0.00000000000E+00 -0.00000000000E+00 -0.74505805969E-08  0.93827000000E+00  0.93827000000E+00 0. -1.
     999902    2    1    2    0    0 -0.49989661488E-02  0.30460160650E-02 -0.22495363001E-01  0.10206854472E+01  0.10204207333E+01 0.  0.
     999903    2    3    3    0    0 -0.10893199312E+00  0.59039397237E-01  0.36701134521E-01  0.13083065114E+00  0.20441537351E-01 0.  0.
         14    1    1    2    0    0  0.49989661488E-02 -0.30460160650E-02  0.22495363001E-01  0.23244552759E-01  0.00000000000E+00 0.  1.
     999901    1    3    3    0    0  0.10393302698E+00 -0.55993381172E-01 -0.59196497522E-01  0.88985479610E+00  0.88000000000E+00 0. -1.
        -11    1    4    4    0    0 -0.56342138355E-01  0.37414236183E-01  0.28430086623E-01  0.73367517131E-01  0.51100000000E-03 0.  1.
         11    1    4    4    0    0 -0.52589854770E-01  0.21625161054E-01  0.82710478979E-02  0.57463134005E-01  0.51100000000E-03 0. -1.
</event>
<event>
 8    1  0.1064884E+005  0.1043930E+01  0.7957747E-01            NaN
         13   -1    0    0    0    0  0.00000000000E+00  0.00000000000E+00  0.74505805969E-08  0.10566000000E+00  0.10566000000E+00 0. -1.
     999900   -1    0    0    0    0 -0.00000000000E+00 -0.00000000000E+00 -0.74505805969E-08  0.93827000000E+00  0.93827000000E+00 0.  1.
     999902    2    1    2    0    0 -0.21299656352E-01 -0.78466354252E-02 -0.10693468698E-01  0.10188382619E+01  0.10185292380E+01 0.  0.
     999903    2    3    3    0    0  0.79123967478E-01 -0.28227804746E-01 -0.95706276713E-01  0.12882282730E+00  0.19447833871E-01 0.  0.
         14    1    1    2    0    0  0.21299656352E-01  0.78466354252E-02  0.10693468698E-01  0.25091738103E-01  0.00000000000E+00 0.  1.
     999901    1    3    3    0    0 -0.10042362383E+00  0.20381169321E-01  0.85012808015E-01  0.89001543459E+00  0.88000000000E+00 0. -1.
        -11    1    4    4    0    0  0.68569301326E-01 -0.30568181996E-01 -0.87132878105E-01  0.11501548766E+00  0.51100000000E-03 0.  1.
         11    1    4    4    0    0  0.10554666152E-01  0.23403772493E-02 -0.85733986080E-02  0.13807339640E-01  0.51100000000E-03 0. -1.
</event>
<event>
 8    1  0.1064884E+005  0.1043930E+01  0.7957747E-01            NaN
         13   -1    0    0    0    0  0.00000000000E+00  0.00000000000E+00  0.74505805969E-08  0.10566000000E+00  0.10566000000E+00 0. -1.
     999900   -1    0    0    0    0 -0.00000000000E+00 -0.00000000000E+00 -0.74505805969E-08  0.93827000000E+00  0.93827000000E+00 0. -1.
     999902    2    1    2    0    0  0.21487833093E-01  0.53781804013E-02  0.77322603041E-02  0.10204685498E+01  0.10201988147E+01 0.  0.
     999903    2    3    3    0    0  0.75538459394E-02  0.12857749510E+00  0.18967020940E-01  0.13170623795E+00  0.19938716035E-01 0.  0.
         14    1    1    2    0    0 -0.21487833093E-01 -0.53781804013E-02 -0.77322603041E-02  0.23461450187E-01  0.00000000000E+00 0. -1.
     999901    1    3    3    0    0  0.13933987154E-01 -0.12319931470E+00 -0.11234760636E-01  0.88876231186E+00  0.88000000000E+00 0. -1.
        -11    1    4    4    0    0  0.77085509782E-02  0.85119632683E-01  0.33859309969E-02  0.85536537667E-01  0.51100000000E-03 0. -1.
         11    1    4    4    0    0 -0.15470503876E-03  0.43457862417E-01  0.15581089943E-01  0.46169700284E-01  0.51100000000E-03 0.  1.
</event>
<event>
 8    1  0.1164843E+005  0.1043930E+01  0.7957747E-01            NaN
         13   -1    0    0    0    0  0.00000000000E+00  0.00000000000E+00  0.74505805969E-08  0.10566000000E+00  0.10566000000E+00 0.  1.
     999900   -1    0    0    0    0 -0.00000000000E+00 -0.00000000000E+00 -0.74505805969E-08  0.93827000000E+00  0.93827000000E+00 0. -1.
     999902    2    1    2    0    0 -0.15750536711E-01 -0.13391408854E-01 -0.13284088969E-01  0.10193561062E+01  0.10190598584E+01 0.  0.
     999903    2    3    3    0    0 -0.11773077737E+00  0.13753949820E-01  0.51951344648E-01  0.13065339898E+00  0.17934920631E-01 0.  0.
         14    1    1    2    0    0  0.15750536711E-01  0.13391408854E-01  0.13284088969E-01  0.24573893820E-01  0.00000000000E+00 0.  1.
     999901    1    3    3    0    0  0.10198024066E+00 -0.27145358674E-01 -0.65235433616E-01  0.88870270720E+00  0.88000000000E+00 0.  1.
        -11    1    4    4    0    0 -0.66840292234E-01  0.16144907730E-01  0.33239707426E-01  0.76376841924E-01  0.51100000000E-03 0. -1.
         11    1    4    4    0    0 -0.50890485139E-01 -0.23909579101E-02  0.18711637222E-01  0.54276557057E-01  0.51100000000E-03 0.  1.
</event>
<event>
 8    1  0.1064884E+005  0.1043930E+01  0.7957747E-01            NaN
         13   -1    0    0    0    0  0.00000000000E+00  0.00000000000E+00  0.74505805969E-08  0.10566000000E+00  0.10566000000E+00 0. -1.
     999900   -1    0    0    0    0 -0.00000000000E+00 -0.00000000000E+00 -0.74505805969E-08  0.93827000000E+00  0.93827000000E+00 0.  1.
     999902    2    1    2    0    0 -0.19762972675E-01  0.13124832100E-01 -0.14974376265E-02  0.10201586175E+01  0.10198816236E+01 0.  0.
     999903    2    3    3    0    0 -0.11695010201E+00  0.42995879356E-01 -0.42855295281E-01  0.13333953225E+00  0.20417701261E-01 0.  0.
         14    1    1    2    0    0  0.19762972675E-01 -0.13124832100E-01  0.14974376265E-02  0.23771382502E-01  0.00000000000E+00 0. -1.
     999901    1    3    3    0    0  0.97187129335E-01 -0.29871047255E-01  0.41357857654E-01  0.88681908525E+00  0.88000000000E+00 0. -1.
        -11    1    4    4    0    0 -0.94902828377E-01  0.42542360577E-01 -0.32429621518E-01  0.10894191457E+00  0.51100000000E-03 0. -1.
         11    1    4    4    0    0 -0.22047273634E-01  0.45351877811E-03 -0.10425673762E-01  0.24397617678E-01  0.51100000000E-03 0.  1.
</event>
<event>
 8    1  0.1064884E+005  0.1043930E+01  0.7957747E-01            NaN
         13   -1    0    0    0    0  0.00000000000E+00  0.00000000000E+00  0.74505805969E-08  0.10566000000E+00  0.10566000000E+00 0.  1.
     999900   -1    0    0    0    0 -0.00000000000E+00 -0.00000000000E+00 -0.74505805969E-08  0.93827000000E+00  0.93827000000E+00 0. -1.
     999902    2    1    2    0    0  0.19288315578E-01 -0.74268098453E-03 -0.15925563293E-01  0.10189057266E+01  0.10185983828E+01 0.  0.
     999903    2    3    3    0    0  0.11575892502E+00  0.24168825547E-01 -0.55487645883E-01  0.13240004697E+00  0.21601683746E-01 0.  0.
         14    1    1    2    0    0 -0.19288315578E-01  0.74268098453E-03  0.15925563293E-01  0.25024273398E-01  0.00000000000E+00 0.  1.
     999901    1    3    3    0    0 -0.96470609445E-01 -0.24911506531E-01  0.39562082589E-01  0.88650567963E+00  0.88000000000E+00 0. -1.
        -11    1    4    4    0    0  0.95297280705E-01  0.28088090329E-01 -0.44941159810E-01  0.10904348442E+00  0.51100000000E-03 0.  1.
         11    1    4    4    0    0  0.20461644319E-01 -0.39192647820E-02 -0.10546486073E-01  0.23356562550E-01  0.51100000000E-03 0. -1.
</event>
<event>
 8    1  0.1064884E+005  0.1043930E+01  0.7957747E-01            NaN
         13   -1    0    0    0    0  0.00000000000E+00  0.00000000000E+00  0.74505805969E-08  0.10566000000E+00  0.10566000000E+00 0. -1.
     999900   -1    0    0    0    0 -0.00000000000E+00 -0.00000000000E+00 -0.74505805969E-08  0.93827000000E+00  0.93827000000E+00 0.  1.
     999902    2    1    2    0    0 -0.51539084082E-02  0.26331650555E-01  0.17503241360E-01  0.10118943628E+01  0.10113871264E+01 0.  0.
     999903    2    3    3    0    0  0.47340213207E-01  0.10522080617E+00  0.47515579047E-01  0.12629859040E+00  0.19521522684E-01 0.  0.
         14    1    1    2    0    0  0.51539084082E-02 -0.26331650555E-01 -0.17503241360E-01  0.32035637203E-01  0.00000000000E+00 0.  1.
     999901    1    3    3    0    0 -0.52494121615E-01 -0.78889155610E-01 -0.30012337687E-01  0.88559577240E+00  0.88000000000E+00 0.  1.
        -11    1    4    4    0    0  0.32752983203E-01  0.56008190029E-01  0.33830831901E-01  0.73174186480E-01  0.51100000000E-03 0. -1.
         11    1    4    4    0    0  0.14587230004E-01  0.49212616137E-01  0.13684747147E-01  0.53124403918E-01  0.51100000000E-03 0.  1.
</event>
<event>
 8    1  0.1064884E+005  0.1043930E+01  0.7957747E-01            NaN
         13   -1    0    0    0    0  0.00000000000E+00  0.00000000000E+00  0.74505805969E-08  0.10566000000E+00  0.10566000000E+00 0.  1.
     999900   -1    0    0    0    0 -0.00000000000E+00 -0.00000000000E+00 -0.74505805969E-08  0.93827000000E+00  0.93827000000E+00 0.  1.
     999902    2    1    2    0    0 -0.73768439967E-02 -0.19062532305E-01 -0.11386393760E-01  0.10205323948E+01  0.10202641427E+01 0.  0.
     999903    2    3    3    0    0 -0.10937212185E-01  0.35022708177E-01 -0.12462234452E+00  0.13162279874E+00  0.21157024765E-01 0.  0.
         14    1    1    2    0    0  0.73768439967E-02  0.19062532305E-01  0.11386393760E-01  0.23397605178E-01  0.00000000000E+00 0. -1.
     999901    1    3    3    0    0  0.35603681888E-02 -0.54085240481E-01  0.11323595076E+00  0.88890959608E+00  0.88000000000E+00 0. -1.
        -11    1    4    4    0    0  0.32798870528E-02  0.16123833429E-01 -0.73085446901E-01  0.74916482387E-01  0.51100000000E-03 0. -1.
         11    1    4    4    0    0 -0.14217099238E-01  0.18898874748E-01 -0.51536897617E-01  0.56706316354E-01  0.51100000000E-03 0.  1.
</event>
<event>
 8    1  0.1064884E+005  0.1043930E+01  0.7957747E-01            NaN
         13   -1    0    0    0    0  0.00000000000E+00  0.00000000000E+00  0.74505805969E-08  0.10566000000E+00  0.10566000000E+00 0. -1.
     999900   -1    0    0    0    0 -0.00000000000E+00 -0.00000000000E+00 -0.74505805969E-08  0.93827000000E+00  0.93827000000E+00 0. -1.
     999902    2    1    2    0    0  0.15028626883E-01  0.42852279601E-02  0.17644256495E-01  0.10203600490E+01  0.10200877839E+01 0.  0.
     999903    2    3    3    0    0 -0.73498718526E-01 -0.25780018285E-01 -0.98094810668E-01  0.12787109016E+00  0.25724557347E-01 0.  0.
         14    1    1    2    0    0 -0.15028626883E-01 -0.42852279601E-02 -0.17644256495E-01  0.23569951038E-01  0.00000000000E+00 0.  1.
     999901    1    3    3    0    0  0.88527345410E-01  0.30065246245E-01  0.11573906716E+00  0.89248895880E+00  0.88000000000E+00 0.  1.
        -11    1    4    4    0    0 -0.75243000206E-01 -0.24276274645E-01 -0.97319026344E-01  0.12538780084E+00  0.51100000000E-03 0. -1.
         11    1    4    4    0    0  0.17442816794E-02 -0.15037436402E-02 -0.77578432397E-03  0.24832893166E-02  0.51100000000E-03 0.  1.
</event>
<event>
 8    1  0.1064884E+005  0.1043930E+01  0.7957747E-01            NaN
         13   -1    0    0    0    0  0.00000000000E+00  0.00000000000E+00  0.74505805969E-08  0.10566000000E+00  0.10566000000E+00 0.  1.
     999900   -1    0    0    0    0 -0.00000000000E+00 -0.00000000000E+00 -0.74505805969E-08  0.93827000000E+00  0.93827000000E+00 0.  1.
     999902    2    1    2    0    0  0.10362294160E-02 -0.14999628024E-01 -0.19287723350E-01  0.10194743486E+01  0.10191809793E+01 0.  0.
     999903    2    3    3    0    0  0.97750676397E-01  0.78120907079E-01  0.21242851995E-01  0.12836950302E+00  0.19219773331E-01 0.  0.
         14    1    1    2    0    0 -0.10362294160E-02  0.14999628024E-01  0.19287723350E-01  0.24455651377E-01  0.00000000000E+00 0.  1.
     999901    1    3    3    0    0 -0.96714446981E-01 -0.93120535103E-01 -0.40530575345E-01  0.89110484560E+00  0.88000000000E+00 0.  1.
        -11    1    4    4    0    0  0.63933943595E-01  0.60083384938E-01  0.93349242970E-02  0.88232444270E-01  0.51100000000E-03 0.  1.
         11    1    4    4    0    0  0.33816732801E-01  0.18037522141E-01  0.11907927698E-01  0.40137058754E-01  0.51100000000E-03 0. -1.
</event>
<event>
 8    1  0.1064884E+005  0.1043930E+01  0.7957747E-01            NaN
         13   -1    0    0    0    0  0.00000000000E+00  0.00000000000E+00  0.74505805969E-08  0.10566000000E+00  0.10566000000E+00 0.  1.
     999900   -1    0    0    0    0 -0.00000000000E+00 -0.00000000000E+00 -0.74505805969E-08  0.93827000000E+00  0.93827000000E+00 0. -1.
     999902    2    1    2    0    0  0.65533292767E-02  0.13582576964E-01 -0.18304926209E-01  0.10202128576E+01  0.10199371412E+01 0.  0.
     999903    2    3    3    0    0 -0.12345114098E-01  0.77139043269E-02  0.12642128559E+00  0.12817178852E+00  0.15289204046E-01 0.  0.
         14    1    1    2    0    0 -0.65533292767E-02 -0.13582576964E-01  0.18304926209E-01  0.23717142431E-01  0.00000000000E+00 0.  1.
     999901    1    3    3    0    0  0.18898443375E-01  0.58686726368E-02 -0.14472621180E+00  0.89204106905E+00  0.88000000000E+00 0. -1.
        -11    1    4    4    0    0 -0.11244209719E-01 -0.69343971002E-04  0.45647873616E-01  0.47015173587E-01  0.51100000000E-03 0.  1.
         11    1    4    4    0    0 -0.11009043790E-02  0.77832482980E-02  0.80773411977E-01  0.81156614936E-01  0.51100000000E-03 0. -1.
</event>
<event>
 8    1  0.1064884E+005  0.1043930E+01  0.7957747E-01            NaN
         13   -1    0    0    0    0  0.00000000000E+00  0.00000000000E+00  0.74505805969E-08  0.10566000000E+00  0.10566000000E+00 0.  1.
     999900   -1    0    0    0    0 -0.00000000000E+00 -0.00000000000E+00 -0.74505805969E-08  0.93827000000E+00  0.93827000000E+00 0.  1.
     999902    2    1    2    0    0 -0.18443537450E-01  0.14064697963E-01  0.43042374847E-02  0.10203396150E+01  0.10200668722E+01 0.  0.
     999903    2    3    3    0    0 -0.58184185504E-01  0.11810680949E+00 -0.48631750310E-02  0.13327246902E+00  0.20081898256E-01 0.  0.
         14    1    1    2    0    0  0.18443537450E-01 -0.14064697963E-01 -0.43042374847E-02  0.23590384965E-01  0.00000000000E+00 0.  1.
     999901    1    3    3    0    0  0.39740648054E-01 -0.10404211153E+00  0.91674125157E-02  0.88706714601E+00  0.88000000000E+00 0. -1.
        -11    1    4    4    0    0 -0.53107505529E-01  0.99079532602E-01  0.19349768901E-02  0.11243294082E+00  0.51100000000E-03 0. -1.
         11    1    4    4    0    0 -0.50766799756E-02  0.19027276889E-01 -0.67981519211E-02  0.20839528208E-01  0.51100000000E-03 0.  1.
</event>
<event>
 8    1  0.1064884E+005  0.1043930E+01  0.7957747E-01            NaN
         13   -1    0    0    0    0  0.00000000000E+00  0.00000000000E+00  0.74505805969E-08  0.10566000000E+00  0.10566000000E+00 0. -1.
     999900   -1    0    0    0    0 -0.00000000000E+00 -0.00000000000E+00 -0.74505805969E-08  0.93827000000E+00  0.93827000000E+00 0. -1.
     999902    2    1    2    0    0 -0.12530307558E-02 -0.63346482003E-02 -0.22717038926E-01  0.10203130207E+01  0.10200396554E+01 0.  0.
     999903    2    3    3    0    0 -0.10750616661E+00 -0.71486433443E-01 -0.17713084222E-01  0.13151634903E+00  0.17745722987E-01 0.  0.
         14    1    1    2    0    0  0.12530307558E-02  0.63346482003E-02  0.22717038926E-01  0.23616979304E-01  0.00000000000E+00 0. -1.
     999901    1    3    3    0    0  0.10625313585E+00  0.65151785243E-01 -0.50039547039E-02  0.88879667166E+00  0.88000000000E+00 0. -1.
        -11    1    4    4    0    0 -0.83656180696E-01 -0.54115629388E-01 -0.61584753273E-02  0.99825076269E-01  0.51100000000E-03 0.  1.
         11    1    4    4    0    0 -0.23849985914E-01 -0.17370804055E-01 -0.11554608895E-01  0.31691272763E-01  0.51100000000E-03 0. -1.
</event>
<event>
 8    1  0.1064884E+005  0.1043930E+01  0.7957747E-01            NaN
         13   -1    0    0    0    0  0.00000000000E+00  0.00000000000E+00  0.74505805969E-08  0.10566000000E+00  0.10566000000E+00 0. -1.
     999900   -1    0    0    0    0 -0.00000000000E+00 -0.00000000000E+00 -0.74505805969E-08  0.93827000000E+00  0.93827000000E+00 0.  1.
     999902    2    1    2    0    0 -0.71915416729E-02 -0.15547688901E-01 -0.17110026404E-01  0.10197183932E+01  0.10194309194E+01 0.  0.
     999903    2    3    3    0    0 -0.80084611900E-01  0.58684352239E-01  0.79068695486E-01  0.12838560337E+00  0.19328897719E-01 0.  0.
         14    1    1    2    0    0  0.71915416729E-02  0.15547688901E-01  0.17110026404E-01  0.24211606831E-01  0.00000000000E+00 0. -1.
     999901    1    3    3    0    0  0.72893070227E-01 -0.74232041140E-01 -0.96178721890E-01  0.89133278979E+00  0.88000000000E+00 0.  1.
        -11    1    4    4    0    0 -0.42279610515E-01  0.19406786462E-01  0.33472687373E-01  0.57313791944E-01  0.51100000000E-03 0.  1.
         11    1    4    4    0    0 -0.37805001385E-01  0.39277565777E-01  0.45596008113E-01  0.71071811430E-01  0.51100000000E-03 0. -1.
</event>
<event>
 8    1  0.1064884E+005  0.1043930E+01  0.7957747E-01            NaN
         13   -1    0    0    0    0  0.00000000000E+00  0.00000000000E+00  0.74505805969E-08  0.10566000000E+00  0.10566000000E+00 0.  1.
     999900   -1    0    0    0    0 -0.00000000000E+00 -0.00000000000E+00 -0.74505805969E-08  0.93827000000E+00  0.93827000000E+00 0. -1.
     999902    2    1    2    0    0  0.49178043659E-02  0.28950741144E-04  0.23659416221E-01  0.10197648678E+01  0.10194785098E+01 0.  0.
     999903    2    3    3    0    0 -0.36202754213E-01 -0.11849182959E+00  0.36429059726E-01  0.13077603801E+00  0.20599578472E-01 0.  0.
         14    1    1    2    0    0 -0.49178043659E-02 -0.28950741144E-04 -0.23659416221E-01  0.24165132191E-01  0.00000000000E+00 0. -1.
     999901    1    3    3    0    0  0.41120558579E-01  0.11852078033E+00 -0.12769643505E-01  0.88898882980E+00  0.88000000000E+00 0.  1.
        -11    1    4    4    0    0 -0.34569998757E-01 -0.92296006971E-01  0.34618123349E-01  0.10446201847E+00  0.51100000000E-03 0.  1.
         11    1    4    4    0    0 -0.16327554566E-02 -0.26195822619E-01  0.18109363773E-02  0.26314019546E-01  0.51100000000E-03 0. -1.
</event>
<event>
 8    1  0.1064884E+005  0.1043930E+01  0.7957747E-01            NaN
         13   -1    0    0    0    0  0.00000000000E+00  0.00000000000E+00  0.74505805969E-08  0.10566000000E+00  0.10566000000E+00 0.  1.
     999900   -1    0    0    0    0 -0.00000000000E+00 -0.00000000000E+00 -0.74505805969E-08  0.93827000000E+00  0.93827000000E+00 0. -1.
     999902    2    1    2    0    0  0.20438330057E-01  0.11358225406E-01 -0.78046072245E-03  0.10205346214E+01  0.10202664210E+01 0.  0.
     999903    2    3    3    0    0 -0.10008168428E+00  0.68058195833E-01  0.41739298626E-01  0.12949708549E+00  0.19469580173E-01 0.  0.
         14    1    1    2    0    0 -0.20438330057E-01 -0.11358225406E-01  0.78046072245E-03  0.23395378578E-01  0.00000000000E+00 0.  1.
     999901    1    3    3    0    0  0.12052001434E+00 -0.56699970427E-01 -0.42519759348E-01  0.89103753593E+00  0.88000000000E+00 0. -1.
        -11    1    4    4    0    0 -0.59137914931E-01  0.36048803908E-01  0.14287953125E-01  0.70719275810E-01  0.51100000000E-03 0. -1.
         11    1    4    4    0    0 -0.40943769351E-01  0.32009391925E-01  0.27451345501E-01  0.58777809681E-01  0.51100000000E-03 0.  1.
</event>
<event>
 8    1  0.1064884E+005  0.1043930E+01  0.7957747E-01            NaN
         13   -1    0    0    0    0  0.00000000000E+00  0.00000000000E+00  0.74505805969E-08  0.10566000000E+00  0.10566000000E+00 0. -1.
     999900   -1    0    0    0    0 -0.00000000000E+00 -0.00000000000E+00 -0.74505805969E-08  0.93827000000E+00  0.93827000000E+00 0. -1.
     999902    2    1    2    0    0 -0.15484064947E-01  0.97164447088E-02  0.15706974832E-01  0.10198286593E+01  0.10195438292E+01 0.  0.
     999903    2    3    3    0    0 -0.93188321679E-02  0.12907479127E+00  0.13794685147E-01  0.13174753585E+00  0.20493352285E-01 0.  0.
         14    1    1    2    0    0  0.15484064947E-01 -0.97164447088E-02 -0.15706974832E-01  0.24101340697E-01  0.00000000000E+00 0. -1.
     999901    1    3    3    0    0 -0.61652327787E-02 -0.11935834656E+00  0.19122896842E-02  0.88808112346E+00  0.88000000000E+00 0.  1.
        -11    1    4    4    0    0 -0.15561813316E-01  0.91079561269E-01  0.12240527201E-01  0.93208090539E-01  0.51100000000E-03 0.  1.
         11    1    4    4    0    0  0.62429811477E-02  0.37995230003E-01  0.15541579467E-02  0.38539445307E-01  0.51100000000E-03 0. -1.
</event>
<event>
 8    1  0.1064884E+005  0.1043930E+01  0.7957747E-01            NaN
         13   -1    0    0    0    0  0.00000000000E+00  0.00000000000E+00  0.74505805969E-08  0.10566000000E+00  0.10566000000E+00 0. -1.
     999900   -1    0    0    0    0 -0.00000000000E+00 -0.00000000000E+00 -0.74505805969E-08  0.93827000000E+00  0.93827000000E+00 0. -1.
     999902    2    1    2    0    0  0.11466305757E-01 -0.13243260273E-01  0.16168902138E-01  0.10200910926E+01  0.10198125042E+01 0.  0.
     999903    2    3    3    0    0 -0.27004275793E-01  0.11046238480E+00 -0.54786531909E-01  0.12778075089E+00  0.19879307163E-01 0.  0.
         14    1    1    2    0    0 -0.11466305757E-01  0.13243260273E-01 -0.16168902138E-01  0.23838907415E-01  0.00000000000E+00 0.  1.
     999901    1    3    3    0    0  0.38470581550E-01 -0.12370564507E+00  0.70955434047E-01  0.89231034169E+00  0.88000000000E+00 0.  1.
        -11    1    4    4    0    0 -0.96802550910E-02  0.72651041453E-01 -0.40873373387E-01  0.83921242459E-01  0.51100000000E-03 0. -1.
         11    1    4    4    0    0 -0.17324020702E-01  0.37811343349E-01 -0.13913158522E-01  0.43859508435E-01  0.51100000000E-03 0.  1.
</event>
<event>
 8    1  0.1064884E+005  0.1043930E+01  0.7957747E-01            NaN
         13   -1    0    0    0    0  0.00000000000E+00  0.00000000000E+00  0.74505805969E-08  0.10566000000E+00  0.10566000000E+00 0.  1.
     999900   -1    0    0    0    0 -0.00000000000E+00 -0.00000000000E+00 -0.74505805969E-08  0.93827000000E+00  0.93827000000E+00 0. -1.
     999902    2    1    2    0    0 -0.78716417248E-02 -0.78789923418E-02 -0.19926863241E-01  0.10211019221E+01  0.10208467143E+01 0.  0.
     999903    2    3    3    0    0 -0.25778259985E-01 -0.10501431383E+00  0.70615736832E-01  0.13095930423E+00  0.21707885181E-01 0.  0.
         14    1    1    2    0    0  0.78716417248E-02  0.78789923418E-02  0.19926863241E-01  0.22828077939E-01  0.00000000000E+00 0.  1.
     999901    1    3    3    0    0  0.17906618260E-01  0.97135321484E-01 -0.90542600072E-01  0.89014261783E+00  0.88000000000E+00 0. -1.
        -11    1    4    4    0    0 -0.18861410948E-01 -0.33584341120E-01  0.24307268224E-01  0.45549590568E-01  0.51100000000E-03 0.  1.
         11    1    4    4    0    0 -0.69168490362E-02 -0.71429972706E-01  0.46308468607E-01  0.85409713658E-01  0.51100000000E-03 0. -1.
</event>
<event>
 8    1  0.1064884E+005  0.1043930E+01  0.7957747E-01            NaN
         13   -1    0    0    0    0  0.00000000000E+00  0.00000000000E+00  0.74505805969E-08  0.10566000000E+00  0.10566000000E+00 0.  1.
     999900   -1    0    0    0    0 -0.00000000000E+00 -0.00000000000E+00 -0.74505805969E-08  0.93827000000E+00  0.93827000000E+00 0. -1.
     999902    2    1    2    0    0  0.49877254681E-02 -0.19318799282E-01  0.15399423675E-01  0.10187261181E+01  0.10184142910E+01 0.  0.
     999903    2    3    3    0    0 -0.44636350570E-01 -0.91275984925E-01 -0.77699248549E-01  0.12950862604E+00  0.20287971277E-01 0.  0.
         14    1    1    2    0    0 -0.49877254681E-02  0.19318799282E-01 -0.15399423675E-01  0.25203881855E-01  0.00000000000E+00 0. -1.
     999901    1    3    3    0    0  0.49624076038E-01  0.71957185643E-01  0.93098672224E-01  0.88921749210E+00  0.88000000000E+00 0.  1.
        -11    1    4    4    0    0 -0.57274748733E-02 -0.22235210164E-02 -0.70135080311E-02  0.93380099613E-02  0.51100000000E-03 0. -1.
         11    1    4    4    0    0 -0.38908875697E-01 -0.89052463909E-01 -0.70685740518E-01  0.12017061608E+00  0.51100000000E-03 0.  1.
</event>
<event>
 8    1  0.1064884E+005  0.1043930E+01  0.7957747E-01            NaN
         13   -1    0    0    0    0  0.00000000000E+00  0.00000000000E+00  0.74505805969E-08  0.10566000000E+00  0.10566000000E+00 0. -1.
     999900   -1    0    0    0    0 -0.00000000000E+00 -0.00000000000E+00 -0.74505805969E-08  0.93827000000E+00  0.93827000000E+00 0. -1.
     999902    2    1    2    0    0  0.24527350998E-01 -0.26809725831E-02 -0.68959759029E-05  0.10192565607E+01  0.10189578784E+01 0.  0.
     999903    2    3    3    0    0 -0.16759276756E-01 -0.79395150533E-01 -0.98428653773E-01  0.12949451768E+00  0.22274805061E-01 0.  0.
         14    1    1    2    0    0 -0.24527350998E-01  0.26809725831E-02  0.68959759030E-05  0.24673439333E-01  0.00000000000E+00 0.  1.
     999901    1    3    3    0    0  0.41286627754E-01  0.76714177950E-01  0.98421757797E-01  0.88976204299E+00  0.88000000000E+00 0.  1.
        -11    1    4    4    0    0 -0.15673150970E-01 -0.28982193385E-01 -0.47616939038E-01  0.57907246516E-01  0.51100000000E-03 0.  1.
         11    1    4    4    0    0 -0.10861257861E-02 -0.50412957148E-01 -0.50811714735E-01  0.71587271166E-01  0.51100000000E-03 0. -1.
</event>
<event>
 8    1  0.1064884E+005  0.1043930E+01  0.7957747E-01            NaN
         13   -1    0    0    0    0  0.00000000000E+00  0.00000000000E+00  0.74505805969E-08  0.10566000000E+00  0.10566000000E+00 0.  1.
     999900   -1    0    0    0    0 -0.00000000000E+00 -0.00000000000E+00 -0.74505805969E-08  0.93827000000E+00  0.93827000000E+00 0. -1.
     999902    2    1    2    0    0  0.22069350597E-01 -0.14227483115E-02  0.98282524309E-02  0.10197292770E+01  0.10194420647E+01 0.  0.
     999903    2    3    3    0    0 -0.17164515685E-01 -0.91937582295E-01  0.89349759614E-01  0.13065340759E+00  0.18433494933E-01 0.  0.
         14    1    1    2    0    0 -0.22069350597E-01  0.14227483115E-02 -0.98282524309E-02  0.24200723014E-01  0.00000000000E+00 0. -1.
     999901    1    3    3    0    0  0.39233866282E-01  0.90514833983E-01 -0.79521507183E-01  0.88907586939E+00  0.88000000000E+00 0. -1.
        -11    1    4    4    0    0  0.43848388823E-03 -0.37022081877E-01  0.42368076665E-01  0.56268480128E-01  0.51100000000E-03 0.  1.
         11    1    4    4    0    0 -0.17602999573E-01 -0.54915500418E-01  0.46981682949E-01  0.74384927464E-01  0.51100000000E-03 0. -1.
</event>
<event>
 8    1  0.1064884E+005  0.1043930E+01  0.7957747E-01            NaN
         13   -1    0    0    0    0  0.00000000000E+00  0.00000000000E+00  0.74505805969E-08  0.10566000000E+00  0.10566000000E+00 0. -1.
     999900   -1    0    0    0    0 -0.00000000000E+00 -0.00000000000E+00 -0.74505805969E-08  0.93827000000E+00  0.93827000000E+00 0.  1.
     999902    2    1    2    0    0  0.10812331913E-01  0.11111275939E-01  0.19431878091E-01  0.10190711010E+01  0.10187678558E+01 0.  0.
     999903    2    3    3    0    0 -0.25968440460E-01  0.91731016164E-01 -0.83452781248E-01  0.12865680367E+00  0.22344287978E-01 0.  0.
         14    1    1    2    0    0 -0.10812331913E-01 -0.11111275939E-01 -0.19431878091E-01  0.24858899021E-01  0.00000000000E+00 0. -1.
     999901    1    3    3    0    0  0.36780772373E-01 -0.80619740226E-01  0.10288465934E+00  0.89041429731E+00  0.88000000000E+00 0. -1.
        -11    1    4    4    0    0  0.29609229752E-02  0.10539511643E-01 -0.15061530177E-01  0.18626840388E-01  0.51100000000E-03 0.  1.
         11    1    4    4    0    0 -0.28929363435E-01  0.81191504521E-01 -0.68391251071E-01  0.11002996328E+00  0.51100000000E-03 0. -1.
</event>
<event>
 8    1  0.1502790E+005  0.1043930E+01  0.7957747E-01            NaN
         13   -1    0    0    0    0  0.00000000000E+00  0.00000000000E+00  0.74505805969E-08  0.10566000000E+00  0.10566000000E+00 0.  1.
     999900   -1    0    0    0    0 -0.00000000000E+00 -0.00000000000E+00 -0.74505805969E-08  0.93827000000E+00  0.93827000000E+00 0.  1.
     999902    2    1    2    0    0 -0.20472281814E-02 -0.22211569862E-01 -0.83018987880E-02  0.10201294432E+01  0.10198517610E+01 0.  0.
     999903    2    3    3    0    0  0.60333898420E-01 -0.99326021113E-02 -0.11460693332E+00  0.13145462173E+00  0.20167610810E-01 0.  0.
         14    1    1    2    0    0  0.20472281814E-02  0.22211569862E-01  0.83018987880E-02  0.23800556768E-01  0.00000000000E+00 0.  1.
     999901    1    3    3    0    0 -0.62381126602E-01 -0.12278967751E-01  0.10630503453E+00  0.88867482150E+00  0.88000000000E+00 0. -1.
        -11    1    4    4    0    0  0.14728981806E-01  0.53652985477E-03 -0.46799848855E-01  0.49068500519E-01  0.51100000000E-03 0. -1.
         11    1    4    4    0    0  0.45604916614E-01 -0.10469131966E-01 -0.67807084466E-01  0.82386121211E-01  0.51100000000E-03 0.  1.
</event>
<event>
 8    1  0.1064884E+005  0.1043930E+01  0.7957747E-01            NaN
         13   -1    0    0    0    0  0.00000000000E+00  0.00000000000E+00  0.74505805969E-08  0.10566000000E+00  0.10566000000E+00 0. -1.
     999900   -1    0    0    0    0 -0.00000000000E+00 -0.00000000000E+00 -0.74505805969E-08  0.93827000000E+00  0.93827000000E+00 0. -1.
     999902    2    1    2    0    0 -0.46976594263E-02  0.14423027564E-01 -0.13794573031E-01  0.10234267814E+01  0.10232213812E+01 0.  0.
     999903    2    3    3    0    0  0.11823790172E+00 -0.51817207223E-01 -0.21187119572E-01  0.13238493577E+00  0.20289229077E-01 0.  0.
         14    1    1    2    0    0  0.46976594263E-02 -0.14423027564E-01  0.13794573031E-01  0.20503218608E-01  0.00000000000E+00 0. -1.
     999901    1    3    3    0    0 -0.12293556115E+00  0.66240234787E-01  0.73925465416E-02  0.89104184562E+00  0.88000000000E+00 0.  1.
        -11    1    4    4    0    0  0.11164464903E+00 -0.44021970972E-01 -0.16503980724E-01  0.12114084401E+00  0.51100000000E-03 0.  1.
         11    1    4    4    0    0  0.65932526882E-02 -0.77952362511E-02 -0.46831388477E-02  0.11244091768E-01  0.51100000000E-03 0. -1.
</event>
<event>
 8    1  0.1064884E+005  0.1043930E+01  0.7957747E-01            NaN
         13   -1    0    0    0    0  0.00000000000E+00  0.00000000000E+00  0.74505805969E-08  0.10566000000E+00  0.10566000000E+00 0. -1.
     999900   -1    0    0    0    0 -0.00000000000E+00 -0.00000000000E+00 -0.74505805969E-08  0.93827000000E+00  0.93827000000E+00 0.  1.
     999902    2    1    2    0    0  0.51799520068E-03  0.19991694123E-01  0.14537655629E-01  0.10192059311E+01  0.10189060066E+01 0.  0.
     999903    2    3    3    0    0  0.93129595609E-01 -0.58260130019E-01  0.65987135251E-01  0.12940409614E+00  0.17993158422E-01 0.  0.
         14    1    1    2    0    0 -0.51799520068E-03 -0.19991694123E-01 -0.14537655629E-01  0.24724068923E-01  0.00000000000E+00 0.  1.
     999901    1    3    3    0    0 -0.92611600408E-01  0.78251824141E-01 -0.51449479622E-01  0.88980183494E+00  0.88000000000E+00 0. -1.
        -11    1    4    4    0    0  0.90827756194E-01 -0.56869305037E-01  0.59991404435E-01  0.12281298334E+00  0.51100000000E-03 0.  1.
         11    1    4    4    0    0  0.23018394148E-02 -0.13908249821E-02  0.59957308163E-02  0.65911127925E-02  0.51100000000E-03 0. -1.
</event>
<event>
 8    1  0.1064884E+005  0.1043930E+01  0.7957747E-01            NaN
         13   -1    0    0    0    0  0.00000000000E+00  0.00000000000E+00  0.74505805969E-08  0.10566000000E+00  0.10566000000E+00 0.  1.
     999900   -1    0    0    0    0 -0.00000000000E+00 -0.00000000000E+00 -0.74505805969E-08  0.93827000000E+00  0.93827000000E+00 0.  1.
     999902    2    1    2    0    0  0.16146446474E-01  0.15663055106E-01 -0.50779754800E-03  0.10214289581E+01  0.10211810905E+01 0.  0.
     999903    2    3    3    0    0  0.66537387005E-01  0.63250295009E-01  0.94985858103E-01  0.13355349916E+00  0.19657065138E-01 0.  0.
         14    1    1    2    0    0 -0.16146446474E-01 -0.15663055106E-01  0.50779754800E-03  0.22501041917E-01  0.00000000000E+00 0.  1.
     999901    1    3    3    0    0 -0.50390940531E-01 -0.47587239903E-01 -0.95493655651E-01  0.88787545892E+00  0.88000000000E+00 0.  1.
        -11    1    4    4    0    0  0.13383077552E-02  0.85450169043E-02  0.10733638080E-01  0.13794219404E-01  0.51100000000E-03 0. -1.
         11    1    4    4    0    0  0.65199079250E-01  0.54705278105E-01  0.84252220023E-01  0.11975927976E+00  0.51100000000E-03 0.  1.
</event>
<event>
 8    1  0.1064884E+005  0.1043930E+01  0.7957747E-01            NaN
         13   -1    0    0    0    0  0.00000000000E+00  0.00000000000E+00  0.74505805969E-08  0.10566000000E+00  0.10566000000E+00 0.  1.
     999900   -1    0    0    0    0 -0.00000000000E+00 -0.00000000000E+00 -0.74505805969E-08  0.93827000000E+00  0.93827000000E+00 0. -1.
     999902    2    1    2    0    0 -0.11700200636E-01 -0.32452692998E-02  0.21059800875E-01  0.10196207079E+01  0.10193308817E+01 0.  0.
     999903    2    3    3    0    0  0.11798240983E+00  0.35625120055E-01  0.32032095955E-01  0.12920008942E+00  0.21854283949E-01 0.  0.
         14    1    1    2    0    0  0.11700200636E-01  0.32452692998E-02 -0.21059800875E-01  0.24309292064E-01  0.00000000000E+00 0. -1.
     999901    1    3    3    0    0 -0.12968261046E+00 -0.38870389355E-01 -0.10972295079E-01  0.89042061852E+00  0.88000000000E+00 0. -1.
        -11    1    4    4    0    0  0.38891904108E-01  0.21132681971E-01  0.59315381774E-02  0.44661109689E-01  0.51100000000E-03 0.  1.
         11    1    4    4    0    0  0.79090505717E-01  0.14492438084E-01  0.26100557777E-01  0.84538979728E-01  0.51100000000E-03 0. -1.
</event>
<event>
 7    1  0.1064884E+005  0.1043930E+01  0.7957747E-01            NaN
         13   -1    0    0    0    0  0.00000000000E+00  0.00000000000E+00  0.74505805969E-08  0.10566000000E+00  0.10566000000E+00 0.  1.
     999900   -1    0    0    0    0 -0.00000000000E+00 -0.00000000000E+00 -0.74505805969E-08  0.93827000000E+00  0.93827000000E+00 0.  1.
     999903    2    1    2    0    0  0.78545135948E-01 -0.56748771627E-01  0.64208834069E-01  0.11899293954E+00  0.25431944999E-01 0.  0.
         14    1    1    2    0    0 -0.38394867395E-01  0.96704904042E-02  0.56849180543E-02  0.40000031503E-01  0.00000000000E+00 0. -1.
     999901    1    1    2    0    0 -0.40150268553E-01  0.47078281223E-01 -0.69893752123E-01  0.88493702895E+00  0.88000000000E+00 0.  1.
        -11    1    3    3    0    0  0.63797159175E-01 -0.33028321359E-01  0.50920933225E-01  0.88057652093E-01  0.51100000000E-03 0.  1.
         11    1    3    3    0    0  0.14747976773E-01 -0.23720450268E-01  0.13287900844E-01  0.30935287451E-01  0.51100000000E-03 0. -1.
</event>
<event>
 8    1  0.1064884E+005  0.1043930E+01  0.7957747E-01            NaN
         13   -1    0    0    0    0  0.00000000000E+00  0.00000000000E+00  0.74505805969E-08  0.10566000000E+00  0.10566000000E+00 0.  1.
     999900   -1    0    0    0    0 -0.00000000000E+00 -0.00000000000E+00 -0.74505805969E-08  0.93827000000E+00  0.93827000000E+00 0. -1.
     999902    2    1    2    0    0 -0.10009464469E-01 -0.18283669944E-01 -0.10157537964E-01  0.10207425563E+01  0.10204791565E+01 0.  0.
     999903    2    3    3    0    0  0.11129051964E+00 -0.57261769190E-02  0.62551883625E-01  0.12936270647E+00  0.20089868543E-01 0.  0.
         14    1    1    2    0    0  0.10009464469E-01  0.18283669944E-01  0.10157537964E-01  0.23187443651E-01  0.00000000000E+00 0. -1.
     999901    1    3    3    0    0 -0.12129998411E+00 -0.12557493025E-01 -0.72709421589E-01  0.89137984987E+00  0.88000000000E+00 0.  1.
        -11    1    4    4    0    0  0.36474013008E-01 -0.11155601501E-01  0.18890223909E-01  0.42566450992E-01  0.51100000000E-03 0. -1.
         11    1    4    4    0    0  0.74816506629E-01  0.54294245824E-02  0.43661659716E-01  0.86796255482E-01  0.51100000000E-03 0.  1.
</event>
<event>
 8    1  0.1064884E+005  0.1043930E+01  0.7957747E-01            NaN
         13   -1    0    0    0    0  0.00000000000E+00  0.00000000000E+00  0.74505805969E-08  0.10566000000E+00  0.10566000000E+00 0. -1.
     999900   -1    0    0    0    0 -0.00000000000E+00 -0.00000000000E+00 -0.74505805969E-08  0.93827000000E+00  0.93827000000E+00 0. -1.
     999902    2    1    2    0    0  0.66298902412E-02 -0.20053126881E-01 -0.10561570149E-01  0.10203158071E+01  0.10200425070E+01 0.  0.
     999903    2    3    3    0    0 -0.76102891314E-01  0.13693950117E-01 -0.10358293689E+00  0.13091344989E+00  0.20729983379E-01 0.  0.
         14    1    1    2    0    0 -0.66298902412E-02  0.20053126881E-01  0.10561570149E-01  0.23614192900E-01  0.00000000000E+00 0. -1.
     999901    1    3    3    0    0  0.82732781555E-01 -0.33747076998E-01  0.93021366736E-01  0.88940235721E+00  0.88000000000E+00 0.  1.
        -11    1    4    4    0    0 -0.53977954739E-01  0.16310723132E-02 -0.79080784778E-01  0.95761744119E-01  0.51100000000E-03 0.  1.
         11    1    4    4    0    0 -0.22124936574E-01  0.12062877804E-01 -0.24502152108E-01  0.35151705766E-01  0.51100000000E-03 0. -1.
</event>
<event>
 8    1  0.1064884E+005  0.1043930E+01  0.7957747E-01            NaN
         13   -1    0    0    0    0  0.00000000000E+00  0.00000000000E+00  0.74505805969E-08  0.10566000000E+00  0.10566000000E+00 0. -1.
     999900   -1    0    0    0    0 -0.00000000000E+00 -0.00000000000E+00 -0.74505805969E-08  0.93827000000E+00  0.93827000000E+00 0.  1.
     999902    2    1    2    0    0  0.23258637419E-01 -0.24685708092E-02  0.14944698738E-02  0.10204930314E+01  0.10202238655E+01 0.  0.
     999903    2    3    3    0    0 -0.94672265455E-01 -0.69817622178E-01  0.48272558102E-01  0.12884748406E+00  0.20834972282E-01 0.  0.
         14    1    1    2    0    0 -0.23258637419E-01  0.24685708092E-02 -0.14944698738E-02  0.23436968589E-01  0.00000000000E+00 0. -1.
     999901    1    3    3    0    0  0.11793090287E+00  0.67349051369E-01 -0.46778088228E-01  0.89164554735E+00  0.88000000000E+00 0.  1.
        -11    1    4    4    0    0 -0.25976468131E-01 -0.11549109867E-01  0.18722905610E-01  0.34043606606E-01  0.51100000000E-03 0. -1.
         11    1    4    4    0    0 -0.68695797324E-01 -0.58268512311E-01  0.29549652491E-01  0.94803877454E-01  0.51100000000E-03 0.  1.
</event>
<event>
 8    1  0.1064884E+005  0.1043930E+01  0.7957747E-01            NaN
         13   -1    0    0    0    0  0.00000000000E+00  0.00000000000E+00  0.74505805969E-08  0.10566000000E+00  0.10566000000E+00 0.  1.
     999900   -1    0    0    0    0 -0.00000000000E+00 -0.00000000000E+00 -0.74505805969E-08  0.93827000000E+00  0.93827000000E+00 0.  1.
     999902    2    1    2    0    0 -0.17531871951E-01 -0.14422541046E-01 -0.52641221378E-02  0.10206257685E+01  0.10203596778E+01 0.  0.
     999903    2    3    3    0    0  0.10298229110E+00 -0.67780416473E-01 -0.36836785471E-01  0.13025081408E+00  0.20218522913E-01 0.  0.
         14    1    1    2    0    0  0.17531871951E-01  0.14422541046E-01  0.52641221378E-02  0.23304231509E-01  0.00000000000E+00 0. -1.
     999901    1    3    3    0    0 -0.12051416305E+00  0.53357875428E-01  0.31572663334E-01  0.89037495441E+00  0.88000000000E+00 0. -1.
        -11    1    4    4    0    0  0.42367970504E-01 -0.16278744181E-01 -0.13060390538E-01  0.47232164451E-01  0.51100000000E-03 0. -1.
         11    1    4    4    0    0  0.60614320594E-01 -0.51501672292E-01 -0.23776394934E-01  0.83018649633E-01  0.51100000000E-03 0.  1.
</event>
<event>
 8    1  0.1064884E+005  0.1043930E+01  0.7957747E-01            NaN
         13   -1    0    0    0    0  0.00000000000E+00  0.00000000000E+00  0.74505805969E-08  0.10566000000E+00  0.10566000000E+00 0. -1.
     999900   -1    0    0    0    0 -0.00000000000E+00 -0.00000000000E+00 -0.74505805969E-08  0.93827000000E+00  0.93827000000E+00 0. -1.
     999902    2    1    2    0    0 -0.13520633973E-01  0.18873888510E-01  0.30575320760E-02  0.10205124913E+01  0.10202437774E+01 0.  0.
     999903    2    3    3    0    0 -0.48881522350E-01  0.11827920724E+00  0.33069176250E-01  0.13370219108E+00  0.20083112024E-01 0.  0.
         14    1    1    2    0    0  0.13520633973E-01 -0.18873888510E-01 -0.30575320760E-02  0.23417508683E-01  0.00000000000E+00 0. -1.
     999901    1    3    3    0    0  0.35360888377E-01 -0.99405318734E-01 -0.30011644174E-01  0.88681030024E+00  0.88000000000E+00 0. -1.
        -11    1    4    4    0    0 -0.43020543751E-01  0.81736999972E-01  0.20525780301E-01  0.94621737075E-01  0.51100000000E-03 0. -1.
         11    1    4    4    0    0 -0.58609785993E-02  0.36542207271E-01  0.12543395950E-01  0.39080454006E-01  0.51100000000E-03 0.  1.
</event>
<event>
 8    1  0.1064884E+005  0.1043930E+01  0.7957747E-01            NaN
         13   -1    0    0    0    0  0.00000000000E+00  0.00000000000E+00  0.74505805969E-08  0.10566000000E+00  0.10566000000E+00 0.  1.
     999900   -1    0    0    0    0 -0.00000000000E+00 -0.00000000000E+00 -0.74505805969E-08  0.93827000000E+00  0.93827000000E+00 0.  1.
     999902    2    1    2    0    0  0.32942470085E-02 -0.15864345712E-01  0.16405997623E-01  0.10208716764E+01  0.10206112352E+01 0.  0.
     999903    2    3    3    0    0 -0.12333092855E+00 -0.39118666586E-01 -0.86113256775E-02  0.13115230213E+00  0.19646460559E-01 0.  0.
         14    1    1    2    0    0 -0.32942470085E-02  0.15864345712E-01 -0.16405997623E-01  0.23058323578E-01  0.00000000000E+00 0.  1.
     999901    1    3    3    0    0  0.12662517556E+00  0.23254320874E-01  0.25017323301E-01  0.88971937429E+00  0.88000000000E+00 0.  1.
        -11    1    4    4    0    0 -0.84849198150E-01 -0.29148967122E-01  0.28966866922E-02  0.89764695876E-01  0.51100000000E-03 0. -1.
         11    1    4    4    0    0 -0.38481730398E-01 -0.99696994639E-02 -0.11508012370E-01  0.41387606255E-01  0.51100000000E-03 0.  1.
</event>
<event>
 8    1  0.1064884E+005  0.1043930E+01  0.7957747E-01            NaN
         13   -1    0    0    0    0  0.00000000000E+00  0.00000000000E+00  0.74505805969E-08  0.10566000000E+00  0.10566000000E+00 0.  1.
     999900   -1    0    0    0    0 -0.00000000000E+00 -0.00000000000E+00 -0.74505805969E-08  0.93827000000E+00  0.93827000000E+00 0.  1.
     999902    2    1    2    0    0 -0.62687612437E-02 -0.22430761500E-01  0.16197300737E-02  0.10205834809E+01  0.10203164124E+01 0.  0.
     999903    2    3    3    0    0  0.12487476470E-01 -0.12165264957E+00  0.48605582585E-01  0.13356349811E+00  0.22834210143E-01 0.  0.
         14    1    1    2    0    0  0.62687612437E-02  0.22430761500E-01 -0.16197300737E-02  0.23346519109E-01  0.00000000000E+00 0.  1.
     999901    1    3    3    0    0 -0.18756237714E-01  0.99221888066E-01 -0.46985852511E-01  0.88701998279E+00  0.88000000000E+00 0. -1.
        -11    1    4    4    0    0  0.99304078272E-03 -0.45643556999E-01  0.29472016332E-01  0.54343180743E-01  0.51100000000E-03 0. -1.
         11    1    4    4    0    0  0.11494435688E-01 -0.76009092567E-01  0.19133566252E-01  0.79220317363E-01  0.51100000000E-03 0.  1.
</event>
<event>
 8    1  0.1064884E+005  0.1043930E+01  0.7957747E-01            NaN
         13   -1    0    0    0    0  0.00000000000E+00  0.00000000000E+00  0.74505805969E-08  0.10566000000E+00  0.10566000000E+00 0.  1.
     999900   -1    0    0    0    0 -0.00000000000E+00 -0.00000000000E+00 -0.74505805969E-08  0.93827000000E+00  0.93827000000E+00 0. -1.
     999902    2    1    2    0    0 -0.20879904206E-01  0.84767633510E-02 -0.38190070072E-02  0.10210736938E+01  0.10208178474E+01 0.  0.
     999903    2    3    3    0    0 -0.96547748296E-01  0.90380464077E-01 -0.73169939110E-02  0.13403024805E+00  0.20505438383E-01 0.  0.
         14    1    1    2    0    0  0.20879904206E-01 -0.84767633510E-02  0.38190070072E-02  0.22856306156E-01  0.00000000000E+00 0.  1.
     999901    1    3    3    0    0  0.75667844090E-01 -0.81903700726E-01  0.34979869039E-02  0.88704344580E+00  0.88000000000E+00 0.  1.
        -11    1    4    4    0    0 -0.63357056673E-01  0.65611449469E-01 -0.13330051869E-01  0.92178795477E-01  0.51100000000E-03 0.  1.
         11    1    4    4    0    0 -0.33190691623E-01  0.24769014608E-01  0.60130579579E-02  0.41851452568E-01  0.51100000000E-03 0. -1.
</event>
<event>
 8    1  0.1064884E+005  0.1043930E+01  0.7957747E-01            NaN
         13   -1    0    0    0    0  0.00000000000E+00  0.00000000000E+00  0.74505805969E-08  0.10566000000E+00  0.10566000000E+00 0. -1.
     999900   -1    0    0    0    0 -0.00000000000E+00 -0.00000000000E+00 -0.74505805969E-08  0.93827000000E+00  0.93827000000E+00 0. -1.
     999902    2    1    2    0    0 -0.36506750316E-02 -0.10852230499E-01  0.20697223083E-01  0.10202768104E+01  0.10200025963E+01 0.  0.
     999903    2    3    3    0    0  0.56519527743E-01 -0.11180077598E+00  0.37842623843E-01  0.13229875498E+00  0.19417153825E-01 0.  0.
         14    1    1    2    0    0  0.36506750316E-02  0.10852230499E-01 -0.20697223083E-01  0.23653189602E-01  0.00000000000E+00 0.  1.
     999901    1    3    3    0    0 -0.60170202775E-01  0.10094854549E+00 -0.17145400760E-01  0.88797805542E+00  0.88000000000E+00 0. -1.
        -11    1    4    4    0    0  0.15630186861E-02 -0.17454395842E-01  0.39290305383E-02  0.17966562375E-01  0.51100000000E-03 0. -1.
         11    1    4    4    0    0  0.54956509057E-01 -0.94346380143E-01  0.33913593305E-01  0.11433219260E+00  0.51100000000E-03 0.  1.
</event>
<event>
 8    1  0.1064884E+005  0.1043930E+01  0.7957747E-01            NaN
         13   -1    0    0    0    0  0.00000000000E+00  0.00000000000E+00  0.74505805969E-08  0.10566000000E+00  0.10566000000E+00 0.  1.
     999900   -1    0    0    0    0 -0.00000000000E+00 -0.00000000000E+00 -0.74505805969E-08  0.93827000000E+00  0.93827000000E+00 0.  1.
     999902    2    1    2    0    0  0.99166018800E-02 -0.90538349123E-02 -0.20463716703E-01  0.10194539991E+01  0.10191601354E+01 0.  0.
     999903    2    3    3    0    0 -0.11596815085E+00  0.19290888721E-01  0.45210320698E-01  0.12762247154E+00  0.20561414034E-01 0.  0.
         14    1    1    2    0    0 -0.99166018800E-02  0.90538349123E-02  0.20463716703E-01  0.24476000915E-01  0.00000000000E+00 0.  1.
     999901    1    3    3    0    0  0.12588475273E+00 -0.28344723633E-01 -0.65674037401E-01  0.89183152754E+00  0.88000000000E+00 0. -1.
        -11    1    4    4    0    0 -0.58205197671E-01  0.17253662506E-01  0.15622443511E-01  0.62688561700E-01  0.51100000000E-03 0.  1.
         11    1    4    4    0    0 -0.57762953176E-01  0.20372262144E-02  0.29587877187E-01  0.64933909845E-01  0.51100000000E-03 0. -1.
</event>
<event>
 8    1  0.1064884E+005  0.1043930E+01  0.7957747E-01            NaN
         13   -1    0    0    0    0  0.00000000000E+00  0.00000000000E+00  0.74505805969E-08  0.10566000000E+00  0.10566000000E+00 0.  1.
     999900   -1    0    0    0    0 -0.00000000000E+00 -0.00000000000E+00 -0.74505805969E-08  0.93827000000E+00  0.93827000000E+00 0. -1.
     999902    2    1    2    0    0 -0.10739877587E-01  0.17911732711E-01  0.20100125341E-01  0.10149439658E+01  0.10145299717E+01 0.  0.
     999903    2    3    3    0    0 -0.12012330272E+00 -0.28788865878E-01 -0.15359750450E-01  0.12623530579E+00  0.21000567619E-01 0.  0.
         14    1    1    2    0    0  0.10739877587E-01 -0.17911732711E-01 -0.20100125341E-01  0.28986034189E-01  0.00000000000E+00 0. -1.
     999901    1    3    3    0    0  0.10938342513E+00  0.46700598589E-01  0.35459875791E-01  0.88870866002E+00  0.88000000000E+00 0.  1.
        -11    1    4    4    0    0 -0.32842062783E-01 -0.14925843370E-01  0.21434337477E-02  0.36141905281E-01  0.51100000000E-03 0. -1.
         11    1    4    4    0    0 -0.87281239934E-01 -0.13863022509E-01 -0.17503184198E-01  0.90093400511E-01  0.51100000000E-03 0.  1.
</event>
<event>
 8    1  0.1064884E+005  0.1043930E+01  0.7957747E-01            NaN
         13   -1    0    0    0    0  0.00000000000E+00  0.00000000000E+00  0.74505805969E-08  0.10566000000E+00  0.10566000000E+00 0. -1.
     999900   -1    0    0    0    0 -0.00000000000E+00 -0.00000000000E+00 -0.74505805969E-08  0.93827000000E+00  0.93827000000E+00 0. -1.
     999902    2    1    2    0    0 -0.14476826438E-01 -0.16763848497E-02  0.18503603256E-01  0.10203763994E+01  0.10201045163E+01 0.  0.
     999903    2    3    3    0    0 -0.26427870234E-01 -0.57424776535E-01 -0.11033887142E+00  0.12916873898E+00  0.22668464849E-01 0.  0.
         14    1    1    2    0    0  0.14476826438E-01  0.16763848497E-02 -0.18503603256E-01  0.23553600645E-01  0.00000000000E+00 0.  1.
     999901    1    3    3    0    0  0.11951043795E-01  0.55748391685E-01  0.12884247468E+00  0.89120766037E+00  0.88000000000E+00 0.  1.
        -11    1    4    4    0    0 -0.55745873411E-02 -0.33147462030E-01 -0.42753080487E-01  0.54386738046E-01  0.51100000000E-03 0. -1.
         11    1    4    4    0    0 -0.20853282892E-01 -0.24277314505E-01 -0.67585790935E-01  0.74782000938E-01  0.51100000000E-03 0.  1.
</event>
<event>
 8    1  0.1064884E+005  0.1043930E+01  0.7957747E-01            NaN
         13   -1    0    0    0    0  0.00000000000E+00  0.00000000000E+00  0.74505805969E-08  0.10566000000E+00  0.10566000000E+00 0. -1.
     999900   -1    0    0    0    0 -0.00000000000E+00 -0.00000000000E+00 -0.74505805969E-08  0.93827000000E+00  0.93827000000E+00 0. -1.
     999902    2    1    2    0    0 -0.22408645524E-01 -0.67825953496E-02  0.39980927811E-02  0.10201784582E+01  0.10199019319E+01 0.  0.
     999903    2    3    3    0    0 -0.10312205470E+00 -0.85479012471E-02  0.79857172218E-01  0.13323292958E+00  0.25819000553E-01 0.  0.
         14    1    1    2    0    0  0.22408645524E-01  0.67825953496E-02 -0.39980927811E-02  0.23751541840E-01  0.00000000000E+00 0. -1.
     999901    1    3    3    0    0  0.80713409177E-01  0.17653058975E-02 -0.75859079437E-01  0.88694552857E+00  0.88000000000E+00 0. -1.
        -11    1    4    4    0    0 -0.41010094318E-01 -0.10256801862E-01  0.45975645997E-01  0.62458393882E-01  0.51100000000E-03 0.  1.
         11    1    4    4    0    0 -0.62111960383E-01  0.17089006150E-02  0.33881526220E-01  0.70774535703E-01  0.51100000000E-03 0. -1.
</event>
<event>
 8    1  0.1064884E+005  0.1043930E+01  0.7957747E-01            NaN
         13   -1    0    0    0    0  0.00000000000E+00  0.00000000000E+00  0.74505805969E-08  0.10566000000E+00  0.10566000000E+00 0.  1.
     999900   -1    0    0    0    0 -0.00000000000E+00 -0.00000000000E+00 -0.74505805969E-08  0.93827000000E+00  0.93827000000E+00 0. -1.
     999902    2    1    2    0    0 -0.31486572153E-01  0.15586967151E-01  0.42973336402E-02  0.10085347341E+01  0.10079134313E+01 0.  0.
     999903    2    3    3    0    0 -0.90985724456E-01  0.64345256784E-02  0.80811644354E-01  0.12316568335E+00  0.17873402457E-01 0.  0.
         14    1    1    2    0    0  0.31486572153E-01 -0.15586967151E-01 -0.42973336402E-02  0.35395265889E-01  0.00000000000E+00 0.  1.
     999901    1    3    3    0    0  0.59499152303E-01  0.91524414730E-02 -0.76514310714E-01  0.88536905077E+00  0.88000000000E+00 0. -1.
        -11    1    4    4    0    0 -0.20243872426E-01 -0.42889667234E-02  0.12167304435E-01  0.24010706457E-01  0.51100000000E-03 0. -1.
         11    1    4    4    0    0 -0.70741852030E-01  0.10723492402E-01  0.68644339919E-01  0.99154976889E-01  0.51100000000E-03 0.  1.
</event>
<event>
 8    1  0.1064884E+005  0.1043930E+01  0.7957747E-01            NaN
         13   -1    0    0    0    0  0.00000000000E+00  0.00000000000E+00  0.74505805969E-08  0.10566000000E+00  0.10566000000E+00 0.  1.
     999900   -1    0    0    0    0 -0.00000000000E+00 -0.00000000000E+00 -0.74505805969E-08  0.93827000000E+00  0.93827000000E+00 0. -1.
     999902    2    1    2    0    0  0.45215876676E-02  0.17394908919E-01  0.15305252583E-01  0.10203232559E+01  0.10200501302E+01 0.  0.
     999903    2    3    3    0    0 -0.78327164278E-01 -0.89096874139E-01  0.47548313812E-01  0.12945624529E+00  0.20607757114E-01 0.  0.
         14    1    1    2    0    0 -0.45215876676E-02 -0.17394908919E-01 -0.15305252583E-01  0.23606744121E-01  0.00000000000E+00 0. -1.
     999901    1    3    3    0    0  0.82848751946E-01  0.10649178306E+00 -0.32243061229E-01  0.89086701059E+00  0.88000000000E+00 0. -1.
        -11    1    4    4    0    0 -0.56137204997E-01 -0.60066510571E-01  0.22795095171E-01  0.85318514766E-01  0.51100000000E-03 0. -1.
         11    1    4    4    0    0 -0.22189959281E-01 -0.29030363568E-01  0.24753218641E-01  0.44137730524E-01  0.51100000000E-03 0.  1.
</event>
<event>
 8    1  0.1064884E+005  0.1043930E+01  0.7957747E-01            NaN
         13   -1    0    0    0    0  0.00000000000E+00  0.00000000000E+00  0.74505805969E-08  0.10566000000E+00  0.10566000000E+00 0.  1.
     999900   -1    0    0    0    0 -0.00000000000E+00 -0.00000000000E+00 -0.74505805969E-08  0.93827000000E+00  0.93827000000E+00 0.  1.
     999902    2    1    2    0    0 -0.14164372168E-01  0.12615214636E-01 -0.15196316290E-01  0.10196256566E+01  0.10193359498E+01 0.  0.
     999903    2    3    3    0    0  0.64858329619E-01  0.45007314236E-01  0.98416419116E-01  0.12822132121E+00  0.22861636088E-01 0.  0.
         14    1    1    2    0    0  0.14164372168E-01 -0.12615214636E-01  0.15196316290E-01  0.24304343398E-01  0.00000000000E+00 0.  1.
     999901    1    3    3    0    0 -0.79022701788E-01 -0.32392099600E-01 -0.11361273541E+00  0.89140433539E+00  0.88000000000E+00 0.  1.
        -11    1    4    4    0    0  0.21662596843E-01  0.24443053942E-01  0.52979398934E-01  0.62239929469E-01  0.51100000000E-03 0. -1.
         11    1    4    4    0    0  0.43195732777E-01  0.20564260295E-01  0.45437020182E-01  0.65981391738E-01  0.51100000000E-03 0.  1.
</event>
<event>
 8    1  0.1064884E+005  0.1043930E+01  0.7957747E-01            NaN
         13   -1    0    0    0    0  0.00000000000E+00  0.00000000000E+00  0.74505805969E-08  0.10566000000E+00  0.10566000000E+00 0. -1.
     999900   -1    0    0    0    0 -0.00000000000E+00 -0.00000000000E+00 -0.74505805969E-08  0.93827000000E+00  0.93827000000E+00 0. -1.
     999902    2    1    2    0    0 -0.96558864833E-02 -0.21163947027E-01  0.71187838721E-02  0.10196025283E+01  0.10193122631E+01 0.  0.
     999903    2    3    3    0    0  0.37521950332E-01  0.26943484144E-01  0.11962913953E+00  0.12988422826E+00  0.20613918410E-01 0.  0.
         14    1    1    2    0    0  0.96558864833E-02  0.21163947027E-01 -0.71187838721E-02  0.24327471742E-01  0.00000000000E+00 0.  1.
     999901    1    3    3    0    0 -0.47177836815E-01 -0.48107431171E-01 -0.11251035566E+00  0.88971830000E+00  0.88000000000E+00 0. -1.
        -11    1    4    4    0    0  0.30966922213E-02  0.11764275615E-01  0.40014923928E-01  0.41826342674E-01  0.51100000000E-03 0.  1.
         11    1    4    4    0    0  0.34425258111E-01  0.15179208529E-01  0.79614215600E-01  0.88057885587E-01  0.51100000000E-03 0. -1.
</event>
<event>
 8    1  0.1064884E+005  0.1043930E+01  0.7957747E-01            NaN
         13   -1    0    0    0    0  0.00000000000E+00  0.00000000000E+00  0.74505805969E-08  0.10566000000E+00  0.10566000000E+00 0. -1.
     999900   -1    0    0    0    0 -0.00000000000E+00 -0.00000000000E+00 -0.74505805969E-08  0.93827000000E+00  0.93827000000E+00 0. -1.
     999902    2    1    2    0    0  0.22221014777E-02 -0.13740551011E-02  0.19427072924E-01  0.10243280377E+01  0.10241404650E+01 0.  0.
     999903    2    3    3    0    0 -0.60023370684E-01 -0.11202614234E+00  0.40921294266E-01  0.13495725748E+00  0.19653178553E-01 0.  0.
         14    1    1    2    0    0 -0.22221014777E-02  0.13740551011E-02 -0.19427072924E-01  0.19601962269E-01  0.00000000000E+00 0.  1.
     999901    1    3    3    0    0  0.62245472161E-01  0.11065208723E+00 -0.21494221342E-01  0.88937078025E+00  0.88000000000E+00 0.  1.
        -11    1    4    4    0    0 -0.27351118019E-01 -0.70224890613E-01  0.27532886960E-01  0.80236774012E-01  0.51100000000E-03 0.  1.
         11    1    4    4    0    0 -0.32672252665E-01 -0.41801251723E-01  0.13388407306E-01  0.54720483468E-01  0.51100000000E-03 0. -1.
</event>
<event>
 8    1  0.1064884E+005  0.1043930E+01  0.7957747E-01            NaN
         13   -1    0    0    0    0  0.00000000000E+00  0.00000000000E+00  0.74505805969E-08  0.10566000000E+00  0.10566000000E+00 0. -1.
     999900   -1    0    0    0    0 -0.00000000000E+00 -0.00000000000E+00 -0.74505805969E-08  0.93827000000E+00  0.93827000000E+00 0. -1.
     999902    2    1    2    0    0 -0.10357020751E-01 -0.10373329362E-01  0.16993774621E-01  0.10214875800E+01  0.10212410165E+01 0.  0.
     999903    2    3    3    0    0  0.25034692271E-01 -0.12662100547E+00 -0.21025993770E-01  0.13232415386E+00  0.20198377104E-01 0.  0.
         14    1    1    2    0    0  0.10357020751E-01  0.10373329362E-01 -0.16993774621E-01  0.22442420029E-01  0.00000000000E+00 0.  1.
     999901    1    3    3    0    0 -0.35391713022E-01  0.11624767610E+00  0.38019768391E-01  0.88916342611E+00  0.88000000000E+00 0.  1.
        -11    1    4    4    0    0  0.21553347521E-01 -0.62629147319E-01 -0.15301039892E-01  0.67980437084E-01  0.51100000000E-03 0.  1.
         11    1    4    4    0    0  0.34813447508E-02 -0.63991858147E-01 -0.57249538780E-02  0.64343716774E-01  0.51100000000E-03 0. -1.
</event>
<event>
 8    1  0.1064884E+005  0.1043930E+01  0.7957747E-01            NaN
         13   -1    0    0    0    0  0.00000000000E+00  0.00000000000E+00  0.74505805969E-08  0.10566000000E+00  0.10566000000E+00 0.  1.
     999900   -1    0    0    0    0 -0.00000000000E+00 -0.00000000000E+00 -0.74505805969E-08  0.93827000000E+00  0.93827000000E+00 0.  1.
     999902    2    1    2    0    0  0.95366737716E-02  0.46040234368E-02 -0.21523545886E-01  0.10199423322E+01  0.10196602144E+01 0.  0.
     999903    2    3    3    0    0 -0.94604372265E-01 -0.59400104256E-01 -0.64471541671E-01  0.13045572963E+00  0.19589744010E-01 0.  0.
         14    1    1    2    0    0 -0.95366737716E-02 -0.46040234368E-02  0.21523545886E-01  0.23987667789E-01  0.00000000000E+00 0.  1.
     999901    1    3    3    0    0  0.10414104604E+00  0.64004127692E-01  0.42947995785E-01  0.88948660258E+00  0.88000000000E+00 0. -1.
        -11    1    4    4    0    0 -0.80229513217E-01 -0.47522756470E-01 -0.61142182837E-01  0.11150701689E+00  0.51100000000E-03 0.  1.
         11    1    4    4    0    0 -0.14374859048E-01 -0.11877347785E-01 -0.33293588340E-02  0.18948712735E-01  0.51100000000E-03 0. -1.
</event>
<event>
 8    1  0.1064884E+005  0.1043930E+01  0.7957747E-01            NaN
         13   -1    0    0    0    0  0.00000000000E+00  0.00000000000E+00  0.74505805969E-08  0.10566000000E+00  0.10566000000E+00 0.  1.
     999900   -1    0    0    0    0 -0.00000000000E+00 -0.00000000000E+00 -0.74505805969E-08  0.93827000000E+00  0.93827000000E+00 0.  1.
     999902    2    1    2    0    0  0.51048255405E-02  0.15496407126E-01  0.17562739355E-01  0.10199581897E+01  0.10196764492E+01 0.  0.
     999903    2    3    3    0    0 -0.94629460754E-01 -0.76548237193E-01  0.36048396903E-01  0.12936239809E+00  0.24915369981E-01 0.  0.
         14    1    1    2    0    0 -0.51048255405E-02 -0.15496407126E-01 -0.17562739355E-01  0.23971810346E-01  0.00000000000E+00 0. -1.
     999901    1    3    3    0    0  0.99734286294E-01  0.92044644319E-01 -0.18485657549E-01  0.89059579156E+00  0.88000000000E+00 0.  1.
        -11    1    4    4    0    0 -0.47995030614E-01 -0.48029108720E-01  0.30431109536E-01  0.74408546530E-01  0.51100000000E-03 0. -1.
         11    1    4    4    0    0 -0.46634430140E-01 -0.28519128474E-01  0.56172873672E-02  0.54953851564E-01  0.51100000000E-03 0.  1.
</event>
<event>
 8    1  0.1064884E+005  0.1043930E+01  0.7957747E-01            NaN
         13   -1    0    0    0    0  0.00000000000E+00  0.00000000000E+00  0.74505805969E-08  0.10566000000E+00  0.10566000000E+00 0.  1.
     999900   -1    0    0    0    0 -0.00000000000E+00 -0.00000000000E+00 -0.74505805969E-08  0.93827000000E+00  0.93827000000E+00 0.  1.
     999902    2    1    2    0    0 -0.64624012600E-02 -0.96820459708E-02  0.21559014565E-01  0.10194290663E+01  0.10191345963E+01 0.  0.
     999903    2    3    3    0    0  0.53951207410E-01 -0.43872834182E-01 -0.10515468486E+00  0.12764704373E+00  0.20017533976E-01 0.  0.
         14    1    1    2    0    0  0.64624012600E-02  0.96820459708E-02 -0.21559014565E-01  0.24500933722E-01  0.00000000000E+00 0. -1.
     999901    1    3    3    0    0 -0.60413608670E-01  0.34190788211E-01  0.12671369942E+00  0.89178202254E+00  0.88000000000E+00 0. -1.
        -11    1    4    4    0    0  0.24656148052E-01 -0.79660259207E-02 -0.41004913094E-01  0.48508218114E-01  0.51100000000E-03 0. -1.
         11    1    4    4    0    0  0.29295059358E-01 -0.35906808261E-01 -0.64149771764E-01  0.79138825621E-01  0.51100000000E-03 0.  1.
</event>
<event>
 8    1  0.1064884E+005  0.1043930E+01  0.7957747E-01            NaN
         13   -1    0    0    0    0  0.00000000000E+00  0.00000000000E+00  0.74505805969E-08  0.10566000000E+00  0.10566000000E+00 0. -1.
     999900   -1    0    0    0    0 -0.00000000000E+00 -0.00000000000E+00 -0.74505805969E-08  0.93827000000E+00  0.93827000000E+00 0.  1.
     999902    2    1    2    0    0  0.22164609246E-02 -0.87495229814E-02  0.21979280500E-01  0.10201696207E+01  0.10198928863E+01 0.  0.
     999903    2    3    3    0    0  0.87702642577E-01  0.93594035053E-01 -0.16244362655E-02  0.12981057711E+00  0.19913568838E-01 0.  0.
         14    1    1    2    0    0 -0.22164609246E-02  0.87495229814E-02 -0.21979280500E-01  0.23760379263E-01  0.00000000000E+00 0.  1.
     999901    1    3    3    0    0 -0.85486181652E-01 -0.10234355803E+00  0.23603716765E-01  0.89035904363E+00  0.88000000000E+00 0.  1.
        -11    1    4    4    0    0  0.57716908928E-01  0.51024550217E-01 -0.75201978009E-02  0.77405172934E-01  0.51100000000E-03 0.  1.
         11    1    4    4    0    0  0.29985733649E-01  0.42569484836E-01  0.58957615354E-02  0.52405404175E-01  0.51100000000E-03 0. -1.
</event>
<event>
 8    1  0.1064884E+005  0.1043930E+01  0.7957747E-01            NaN
         13   -1    0    0    0    0  0.00000000000E+00  0.00000000000E+00  0.74505805969E-08  0.10566000000E+00  0.10566000000E+00 0.  1.
     999900   -1    0    0    0    0 -0.00000000000E+00 -0.00000000000E+00 -0.74505805969E-08  0.93827000000E+00  0.93827000000E+00 0. -1.
     999902    2    1    2    0    0 -0.22293675248E-01  0.45393019950E-02  0.71580530356E-02  0.10200794037E+01  0.10198005388E+01 0.  0.
     999903    2    3    3    0    0 -0.35029820191E-02  0.12816002221E+00  0.19031271521E-01  0.13116087770E+00  0.20092893499E-01 0.  0.
         14    1    1    2    0    0  0.22293675248E-01 -0.45393019950E-02 -0.71580530356E-02  0.23850596259E-01  0.00000000000E+00 0.  1.
     999901    1    3    3    0    0 -0.18790693229E-01 -0.12362072021E+00 -0.11873218485E-01  0.88891852604E+00  0.88000000000E+00 0.  1.
        -11    1    4    4    0    0  0.25619349533E-02  0.17472038241E-01 -0.35745016021E-02  0.18024256260E-01  0.51100000000E-03 0. -1.
         11    1    4    4    0    0 -0.60649169724E-02  0.11068798396E+00  0.22605773123E-01  0.11313662144E+00  0.51100000000E-03 0.  1.
</event>
<event>
 8    1  0.1064884E+005  0.1043930E+01  0.7957747E-01            NaN
         13   -1    0    0    0    0  0.00000000000E+00  0.00000000000E+00  0.74505805969E-08  0.10566000000E+00  0.10566000000E+00 0.  1.
     999900   -1    0    0    0    0 -0.00000000000E+00 -0.00000000000E+00 -0.74505805969E-08  0.93827000000E+00  0.93827000000E+00 0. -1.
     999902    2    1    2    0    0  0.18519755732E-01 -0.26160814814E-02 -0.14580760999E-01  0.10202145235E+01  0.10199388463E+01 0.  0.
     999903    2    3    3    0    0 -0.76330147324E-01 -0.11526564386E-02 -0.10401774113E+00  0.13060920700E+00  0.20284340623E-01 0.  0.
         14    1    1    2    0    0 -0.18519755732E-01  0.26160814814E-02  0.14580760999E-01  0.23715476508E-01  0.00000000000E+00 0. -1.
     999901    1    3    3    0    0  0.94849903056E-01 -0.14634250428E-02  0.89436980134E-01  0.88960531650E+00  0.88000000000E+00 0.  1.
        -11    1    4    4    0    0 -0.50479959856E-01 -0.10352988325E-01 -0.68916393418E-01  0.86053129618E-01  0.51100000000E-03 0. -1.
         11    1    4    4    0    0 -0.25850187469E-01  0.92003318866E-02 -0.35101347714E-01  0.44556077378E-01  0.51100000000E-03 0.  1.
</event>
<event>
 8    1  0.1064884E+005  0.1043930E+01  0.7957747E-01            NaN
         13   -1    0    0    0    0  0.00000000000E+00  0.00000000000E+00  0.74505805969E-08  0.10566000000E+00  0.10566000000E+00 0.  1.
     999900   -1    0    0    0    0 -0.00000000000E+00 -0.00000000000E+00 -0.74505805969E-08  0.93827000000E+00  0.93827000000E+00 0.  1.
     999902    2    1    2    0    0  0.23008566132E-01  0.60220520131E-02 -0.89735572093E-03  0.10201294859E+01  0.10198518047E+01 0.  0.
     999903    2    3    3    0    0  0.11622767687E+00 -0.63342368991E-02  0.60762093912E-01  0.13297427497E+00  0.21003102633E-01 0.  0.
         14    1    1    2    0    0 -0.23008566132E-01 -0.60220520131E-02  0.89735572093E-03  0.23800514137E-01  0.00000000000E+00 0.  1.
     999901    1    3    3    0    0 -0.93219110738E-01  0.12356288912E-01 -0.61659449633E-01  0.88715521089E+00  0.88000000000E+00 0.  1.
        -11    1    4    4    0    0  0.29691633838E-01  0.73666527824E-02  0.13763907793E-01  0.33549470517E-01  0.51100000000E-03 0.  1.
         11    1    4    4    0    0  0.86536043031E-01 -0.13700889681E-01  0.46998186118E-01  0.99424804455E-01  0.51100000000E-03 0. -1.
</event>
<event>
 8    1  0.1387218E+005  0.1043930E+01  0.7957747E-01            NaN
         13   -1    0    0    0    0  0.00000000000E+00  0.00000000000E+00  0.74505805969E-08  0.10566000000E+00  0.10566000000E+00 0. -1.
     999900   -1    0    0    0    0 -0.00000000000E+00 -0.00000000000E+00 -0.74505805969E-08  0.93827000000E+00  0.93827000000E+00 0.  1.
     999902    2    1    2    0    0  0.39848060621E-02  0.21274287572E-01 -0.74500307018E-02  0.10210394572E+01  0.10207828350E+01 0.  0.
     999903    2    3    3    0    0  0.11681949425E+00 -0.64019319877E-02  0.55725858848E-01  0.13115809827E+00  0.20231075782E-01 0.  0.
         14    1    1    2    0    0 -0.39848060621E-02 -0.21274287572E-01  0.74500307018E-02  0.22890542775E-01  0.00000000000E+00 0. -1.
     999901    1    3    3    0    0 -0.11283468819E+00  0.27676219560E-01 -0.63175889550E-01  0.88988135895E+00  0.88000000000E+00 0. -1.
        -11    1    4    4    0    0  0.53219127729E-01  0.71401491252E-02  0.24630354813E-01  0.59077684323E-01  0.51100000000E-03 0. -1.
         11    1    4    4    0    0  0.63600366526E-01 -0.13542081113E-01  0.31095504035E-01  0.72080413951E-01  0.51100000000E-03 0.  1.
</event>
<event>
 8    1  0.1064884E+005  0.1043930E+01  0.7957747E-01            NaN
         13   -1    0    0    0    0  0.00000000000E+00  0.00000000000E+00  0.74505805969E-08  0.10566000000E+00  0.10566000000E+00 0.  1.
     999900   -1    0    0    0    0 -0.00000000000E+00 -0.00000000000E+00 -0.74505805969E-08  0.93827000000E+00  0.93827000000E+00 0.  1.
     999902    2    1    2    0    0  0.28016974995E-02 -0.19794136767E-01 -0.12066803474E-01  0.10205790877E+01  0.10203119176E+01 0.  0.
     999903    2    3    3    0    0 -0.94013566353E-01 -0.90564566951E-01 -0.70768116211E-02  0.13243126829E+00  0.21153442097E-01 0.  0.
         14    1    1    2    0    0 -0.28016974995E-02  0.19794136767E-01  0.12066803474E-01  0.23350912301E-01  0.00000000000E+00 0.  1.
     999901    1    3    3    0    0  0.96815263852E-01  0.70770430184E-01 -0.49899918525E-02  0.88814781941E+00  0.88000000000E+00 0.  1.
        -11    1    4    4    0    0 -0.18002865115E-01 -0.98937134379E-02  0.43466186468E-02  0.21003402882E-01  0.51100000000E-03 0.  1.
         11    1    4    4    0    0 -0.76010701237E-01 -0.80670853514E-01 -0.11423430268E-01  0.11142786541E+00  0.51100000000E-03 0. -1.
</event>
<event>
 8    1  0.1064884E+005  0.1043930E+01  0.7957747E-01            NaN
         13   -1    0    0    0    0  0.00000000000E+00  0.00000000000E+00  0.74505805969E-08  0.10566000000E+00  0.10566000000E+00 0.  1.
     999900   -1    0    0    0    0 -0.00000000000E+00 -0.00000000000E+00 -0.74505805969E-08  0.93827000000E+00  0.93827000000E+00 0. -1.
     999902    2    1    2    0    0  0.20486162155E-01  0.23639001302E-02 -0.11262680342E-01  0.10204327910E+01  0.10201622234E+01 0.  0.
     999903    2    3    3    0    0  0.12173847942E+00 -0.45849038103E-01 -0.20623831580E-01  0.13326643097E+00  0.20302894591E-01 0.  0.
         14    1    1    2    0    0 -0.20486162155E-01 -0.23639001302E-02  0.11262680342E-01  0.23497209029E-01  0.00000000000E+00 0.  1.
     999901    1    3    3    0    0 -0.10125231726E+00  0.48212938233E-01  0.93611512372E-02  0.88716636000E+00  0.88000000000E+00 0.  1.
        -11    1    4    4    0    0  0.57500986836E-01 -0.11062027591E-01 -0.73600790643E-02  0.59018334663E-01  0.51100000000E-03 0. -1.
         11    1    4    4    0    0  0.64237492581E-01 -0.34787010512E-01 -0.13263752515E-01  0.74248096307E-01  0.51100000000E-03 0.  1.
</event>
<event>
 8    1  0.1064884E+005  0.1043930E+01  0.7957747E-01            NaN
         13   -1    0    0    0    0  0.00000000000E+00  0.00000000000E+00  0.74505805969E-08  0.10566000000E+00  0.10566000000E+00 0. -1.
     999900   -1    0    0    0    0 -0.00000000000E+00 -0.00000000000E+00 -0.74505805969E-08  0.93827000000E+00  0.93827000000E+00 0. -1.
     999902    2    1    2    0    0  0.21015578025E-01 -0.12273928979E-02  0.11847547911E-01  0.10197737295E+01  0.10194875840E+01 0.  0.
     999903    2    3    3    0    0  0.69397753661E-03 -0.86749663926E-01 -0.93409802996E-01  0.12915252146E+00  0.20712235696E-01 0.  0.
         14    1    1    2    0    0 -0.21015578025E-01  0.12273928979E-02 -0.11847547911E-01  0.24156270502E-01  0.00000000000E+00 0.  1.
     999901    1    3    3    0    0  0.20321600489E-01  0.85522271028E-01  0.10525735091E+00  0.89062120804E+00  0.88000000000E+00 0.  1.
        -11    1    4    4    0    0  0.26305339346E-02 -0.65802517017E-01 -0.56996006617E-01  0.87095906022E-01  0.51100000000E-03 0. -1.
         11    1    4    4    0    0 -0.19365563980E-02 -0.20947146909E-01 -0.36413796379E-01  0.42056615437E-01  0.51100000000E-03 0.  1.
</event>
<event>
 8    1  0.1064884E+005  0.1043930E+01  0.7957747E-01            NaN
         13   -1    0    0    0    0  0.00000000000E+00  0.00000000000E+00  0.74505805969E-08  0.10566000000E+00  0.10566000000E+00 0. -1.
     999900   -1    0    0    0    0 -0.00000000000E+00 -0.00000000000E+00 -0.74505805969E-08  0.93827000000E+00  0.93827000000E+00 0.  1.
     999902    2    1    2    0    0  0.14518476654E-01 -0.16034057581E-01 -0.11299430814E-01  0.10195260187E+01  0.10192339027E+01 0.  0.
     999903    2    3    3    0    0 -0.57720571692E-01  0.81091602842E-01  0.75775252448E-01  0.12698253265E+00  0.21798217042E-01 0.  0.
         14    1    1    2    0    0 -0.14518476654E-01  0.16034057581E-01  0.11299430814E-01  0.24403981306E-01  0.00000000000E+00 0. -1.
     999901    1    3    3    0    0  0.72239048346E-01 -0.97125660423E-01 -0.87074683261E-01  0.89254348605E+00  0.88000000000E+00 0. -1.
        -11    1    4    4    0    0 -0.24004523633E-01  0.43387677053E-01  0.25892563383E-01  0.55940983496E-01  0.51100000000E-03 0.  1.
         11    1    4    4    0    0 -0.33716048058E-01  0.37703925789E-01  0.49882689065E-01  0.71041549152E-01  0.51100000000E-03 0. -1.
</event>
<event>
 8    1  0.1064884E+005  0.1043930E+01  0.7957747E-01            NaN
         13   -1    0    0    0    0  0.00000000000E+00  0.00000000000E+00  0.74505805969E-08  0.10566000000E+00  0.10566000000E+00 0. -1.
     999900   -1    0    0    0    0 -0.00000000000E+00 -0.00000000000E+00 -0.74505805969E-08  0.93827000000E+00  0.93827000000E+00 0.  1.
     999902    2    1    2    0    0 -0.51208129376E-02 -0.17035423449E-02  0.22692551698E-01  0.10206045486E+01  0.10203379675E+01 0.  0.
     999903    2    3    3    0    0  0.14797597607E-01 -0.10973752801E+00 -0.64065191353E-01  0.12954058279E+00  0.20374491343E-01 0.  0.
         14    1    1    2    0    0  0.51208129376E-02  0.17035423449E-02 -0.22692551698E-01  0.23325451426E-01  0.00000000000E+00 0.  1.
     999901    1    3    3    0    0 -0.19918410545E-01  0.10803398567E+00  0.86757743051E-01  0.89106396578E+00  0.88000000000E+00 0. -1.
        -11    1    4    4    0    0 -0.39504684375E-02 -0.32385592978E-01 -0.23462219222E-01  0.40189173731E-01  0.51100000000E-03 0. -1.
         11    1    4    4    0    0  0.18748066045E-01 -0.77351935035E-01 -0.40602972130E-01  0.89351409059E-01  0.51100000000E-03 0.  1.
</event>
<event>
 8    1  0.1064884E+005  0.1043930E+01  0.7957747E-01            NaN
         13   -1    0    0    0    0  0.00000000000E+00  0.00000000000E+00  0.74505805969E-08  0.10566000000E+00  0.10566000000E+00 0. -1.
     999900   -1    0    0    0    0 -0.00000000000E+00 -0.00000000000E+00 -0.74505805969E-08  0.93827000000E+00  0.93827000000E+00 0.  1.
     999902    2    1    2    0    0 -0.41215478644E-02  0.16508564443E-01  0.17135654527E-01  0.10197814905E+01  0.10194955310E+01 0.  0.
     999903    2    3    3    0    0 -0.36235251177E-01  0.89540868613E-01  0.89375406807E-01  0.13322433540E+00  0.20741254056E-01 0.  0.
         14    1    1    2    0    0  0.41215478644E-02 -0.16508564443E-01 -0.17135654527E-01  0.24148509536E-01  0.00000000000E+00 0.  1.
     999901    1    3    3    0    0  0.32113703312E-01 -0.73032304171E-01 -0.72239752280E-01  0.88655715507E+00  0.88000000000E+00 0.  1.
        -11    1    4    4    0    0 -0.26020622002E-01  0.39768819696E-01  0.36814588058E-01  0.60118273464E-01  0.51100000000E-03 0. -1.
         11    1    4    4    0    0 -0.10214629175E-01  0.49772048917E-01  0.52560818749E-01  0.73106061932E-01  0.51100000000E-03 0.  1.
</event>
<event>
 8    1  0.1064884E+005  0.1043930E+01  0.7957747E-01            NaN
         13   -1    0    0    0    0  0.00000000000E+00  0.00000000000E+00  0.74505805969E-08  0.10566000000E+00  0.10566000000E+00 0. -1.
     999900   -1    0    0    0    0 -0.00000000000E+00 -0.00000000000E+00 -0.74505805969E-08  0.93827000000E+00  0.93827000000E+00 0.  1.
     999902    2    1    2    0    0  0.20513230158E-01  0.14958080920E-01  0.72283507424E-02  0.10175332985E+01  0.10171908512E+01 0.  0.
     999903    2    3    3    0    0 -0.66427321902E-01  0.99790832836E-01 -0.40061273467E-01  0.12793138530E+00  0.19767000267E-01 0.  0.
         14    1    1    2    0    0 -0.20513230158E-01 -0.14958080920E-01 -0.72283507424E-02  0.26396701513E-01  0.00000000000E+00 0.  1.
     999901    1    3    3    0    0  0.86940552060E-01 -0.84832751915E-01  0.47289624209E-01  0.88960191319E+00  0.88000000000E+00 0. -1.
        -11    1    4    4    0    0 -0.28239036573E-01  0.38937708849E-01 -0.61792384610E-02  0.48497757329E-01  0.51100000000E-03 0. -1.
         11    1    4    4    0    0 -0.38188285329E-01  0.60853123987E-01 -0.33882035006E-01  0.79433627970E-01  0.51100000000E-03 0.  1.
</event>
<event>
 8    1  0.1064884E+005  0.1043930E+01  0.7957747E-01            NaN
         13   -1    0    0    0    0  0.00000000000E+00  0.00000000000E+00  0.74505805969E-08  0.10566000000E+00  0.10566000000E+00 0. -1.
     999900   -1    0    0    0    0 -0.00000000000E+00 -0.00000000000E+00 -0.74505805969E-08  0.93827000000E+00  0.93827000000E+00 0. -1.
     999902    2    1    2    0    0 -0.15321606055E-02 -0.23344078254E-01 -0.12388166070E-02  0.10205029180E+01  0.10202339817E+01 0.  0.
     999903    2    3    3    0    0 -0.76309473349E-01  0.10033915469E+00 -0.15014374291E-01  0.12860664901E+00  0.20570781385E-01 0.  0.
         14    1    1    2    0    0  0.15321606055E-02  0.23344078254E-01  0.12388166070E-02  0.23427082025E-01  0.00000000000E+00 0. -1.
     999901    1    3    3    0    0  0.74777312744E-01 -0.12368323294E+00  0.13775557684E-01  0.89189626897E+00  0.88000000000E+00 0.  1.
        -11    1    4    4    0    0 -0.45963767620E-01  0.75606759755E-01 -0.81459927535E-02  0.88857573529E-01  0.51100000000E-03 0.  1.
         11    1    4    4    0    0 -0.30345705729E-01  0.24732394933E-01 -0.68683815379E-02  0.39749075477E-01  0.51100000000E-03 0. -1.
</event>
<event>
 8    1  0.1064884E+005  0.1043930E+01  0.7957747E-01            NaN
         13   -1    0    0    0    0  0.00000000000E+00  0.00000000000E+00  0.74505805969E-08  0.10566000000E+00  0.10566000000E+00 0. -1.
     999900   -1    0    0    0    0 -0.00000000000E+00 -0.00000000000E+00 -0.74505805969E-08  0.93827000000E+00  0.93827000000E+00 0. -1.
     999902    2    1    2    0    0 -0.88140796359E-03 -0.18350615125E-02 -0.23868980059E-01  0.10199743631E+01  0.10196930071E+01 0.  0.
     999903    2    3    3    0    0  0.85570237640E-01  0.64456423789E-01 -0.74225421159E-01  0.13182785535E+00  0.19805912305E-01 0.  0.
         14    1    1    2    0    0  0.88140796359E-03  0.18350615125E-02  0.23868980059E-01  0.23955636911E-01  0.00000000000E+00 0. -1.
     999901    1    3    3    0    0 -0.86451645604E-01 -0.66291485302E-01  0.50356441100E-01  0.88814650774E+00  0.88000000000E+00 0. -1.
        -11    1    4    4    0    0  0.73656796781E-01  0.58892530072E-01 -0.57157401087E-01  0.11027639562E+00  0.51100000000E-03 0.  1.
         11    1    4    4    0    0  0.11913440859E-01  0.55638937172E-02 -0.17068020071E-01  0.21551459732E-01  0.51100000000E-03 0. -1.
</event>
<event>
 8    1  0.1064884E+005  0.1043930E+01  0.7957747E-01            NaN
         13   -1    0    0    0    0  0.00000000000E+00  0.00000000000E+00  0.74505805969E-08  0.10566000000E+00  0.10566000000E+00 0. -1.
     999900   -1    0    0    0    0 -0.00000000000E+00 -0.00000000000E+00 -0.74505805969E-08  0.93827000000E+00  0.93827000000E+00 0.  1.
     999902    2    1    2    0    0  0.67052616422E-02  0.31095431544E-02  0.23744034584E-01  0.10190621700E+01  0.10187587042E+01 0.  0.
     999903    2    3    3    0    0  0.80154532801E-01 -0.93879151209E-01  0.37729392645E-01  0.13058189865E+00  0.19750469021E-01 0.  0.
         14    1    1    2    0    0 -0.67052616422E-02 -0.31095431544E-02 -0.23744034584E-01  0.24867830035E-01  0.00000000000E+00 0.  1.
     999901    1    3    3    0    0 -0.73449271159E-01  0.96988694363E-01 -0.13985358060E-01  0.88848027131E+00  0.88000000000E+00 0.  1.
        -11    1    4    4    0    0  0.35941711729E-01 -0.44364524671E-01  0.27637742812E-01  0.63435980642E-01  0.51100000000E-03 0. -1.
         11    1    4    4    0    0  0.44212821072E-01 -0.49514626537E-01  0.10091649833E-01  0.67145918012E-01  0.51100000000E-03 0.  1.
</event>
<event>
 8    1  0.1064884E+005  0.1043930E+01  0.7957747E-01            NaN
         13   -1    0    0    0    0  0.00000000000E+00  0.00000000000E+00  0.74505805969E-08  0.10566000000E+00  0.10566000000E+00 0. -1.
     999900   -1    0    0    0    0 -0.00000000000E+00 -0.00000000000E+00 -0.74505805969E-08  0.93827000000E+00  0.93827000000E+00 0.  1.
     999902    2    1    2    0    0  0.18415813866E-01  0.11212032602E-01 -0.10040803682E-01  0.10201461901E+01  0.10198689031E+01 0.  0.
     999903    2    3    3    0    0  0.79037024763E-01 -0.10203151924E+00 -0.56745799394E-02  0.13081042832E+00  0.20539841733E-01 0.  0.
         14    1    1    2    0    0 -0.18415813866E-01 -0.11212032602E-01  0.10040803682E-01  0.23783809913E-01  0.00000000000E+00 0. -1.
     999901    1    3    3    0    0 -0.60621210897E-01  0.11324355184E+00 -0.43662237421E-02  0.88933576177E+00  0.88000000000E+00 0.  1.
        -11    1    4    4    0    0  0.24452427070E-01 -0.17741274246E-01 -0.28461623616E-02  0.30348571015E-01  0.51100000000E-03 0.  1.
         11    1    4    4    0    0  0.54584597693E-01 -0.84290244995E-01 -0.28284175778E-02  0.10046185731E+00  0.51100000000E-03 0. -1.
</event>
<event>
 8    1  0.1064884E+005  0.1043930E+01  0.7957747E-01            NaN
         13   -1    0    0    0    0  0.00000000000E+00  0.00000000000E+00  0.74505805969E-08  0.10566000000E+00  0.10566000000E+00 0.  1.
     999900   -1    0    0    0    0 -0.00000000000E+00 -0.00000000000E+00 -0.74505805969E-08  0.93827000000E+00  0.93827000000E+00 0. -1.
     999902    2    1    2    0    0  0.10503767640E-01 -0.17418760493E-01  0.12049268091E-01  0.10202883585E+01  0.10200144152E+01 0.  0.
     999903    2    3    3    0    0  0.69111841471E-01 -0.78647816534E-01  0.80472916612E-01  0.13357211340E+00  0.20092125179E-01 0.  0.
         14    1    1    2    0    0 -0.10503767640E-01  0.17418760493E-01 -0.12049268091E-01  0.23641641510E-01  0.00000000000E+00 0.  1.
     999901    1    3    3    0    0 -0.58608073831E-01  0.61229056041E-01 -0.68423648520E-01  0.88671624509E+00  0.88000000000E+00 0. -1.
        -11    1    4    4    0    0  0.19941799541E-01 -0.14618072556E-01  0.11017536421E-01  0.27074169313E-01  0.51100000000E-03 0. -1.
         11    1    4    4    0    0  0.49170041929E-01 -0.64029743979E-01  0.69455380190E-01  0.10649794409E+00  0.51100000000E-03 0.  1.
</event>
<event>
 8    1  0.1064884E+005  0.1043930E+01  0.7957747E-01            NaN
         13   -1    0    0    0    0  0.00000000000E+00  0.00000000000E+00  0.74505805969E-08  0.10566000000E+00  0.10566000000E+00 0.  1.
     999900   -1    0    0    0    0 -0.00000000000E+00 -0.00000000000E+00 -0.74505805969E-08  0.93827000000E+00  0.93827000000E+00 0.  1.
     999902    2    1    2    0    0 -0.15162436579E-01  0.17836430730E-01  0.34611438057E-02  0.10202653162E+01  0.10199908324E+01 0.  0.
     999903    2    3    3    0    0 -0.11901376784E+00  0.55724126320E-01 -0.10188904270E-01  0.13324395212E+00  0.19511069081E-01 0.  0.
         14    1    1    2    0    0  0.15162436579E-01 -0.17836430730E-01 -0.34611438057E-02  0.23664683827E-01  0.00000000000E+00 0.  1.
     999901    1    3    3    0    0  0.10385133126E+00 -0.37887695590E-01  0.13650048075E-01  0.88702136406E+00  0.88000000000E+00 0.  1.
        -11    1    4    4    0    0 -0.84526558105E-01  0.39935828598E-01  0.16650251319E-02  0.93502100835E-01  0.51100000000E-03 0.  1.
         11    1    4    4    0    0 -0.34487209731E-01  0.15788297722E-01 -0.11853929402E-01  0.39741851281E-01  0.51100000000E-03 0. -1.
</event>
<event>
 8    1  0.1064884E+005  0.1043930E+01  0.7957747E-01            NaN
         13   -1    0    0    0    0  0.00000000000E+00  0.00000000000E+00  0.74505805969E-08  0.10566000000E+00  0.10566000000E+00 0.  1.
     999900   -1    0    0    0    0 -0.00000000000E+00 -0.00000000000E+00 -0.74505805969E-08  0.93827000000E+00  0.93827000000E+00 0.  1.
     999902    2    1    2    0    0  0.20787561911E-02 -0.19062714755E-01 -0.11961193303E-01  0.10213295915E+01  0.10210795052E+01 0.  0.
     999903    2    3    3    0    0  0.12728851566E+00 -0.50512702754E-02  0.26013226993E-01  0.13154542603E+00  0.19990737407E-01 0.  0.
         14    1    1    2    0    0 -0.20787561911E-02  0.19062714755E-01  0.11961193303E-01  0.22600408544E-01  0.00000000000E+00 0.  1.
     999901    1    3    3    0    0 -0.12520975946E+00 -0.14011444480E-01 -0.37974420296E-01  0.88978416542E+00  0.88000000000E+00 0.  1.
        -11    1    4    4    0    0  0.48531914928E-01 -0.11644256052E-01  0.10433764330E-01  0.50990783723E-01  0.51100000000E-03 0. -1.
         11    1    4    4    0    0  0.78756600728E-01  0.65929857769E-02  0.15579462663E-01  0.80554642309E-01  0.51100000000E-03 0.  1.
</event>
<event>
 8    1  0.1064884E+005  0.1043930E+01  0.7957747E-01            NaN
         13   -1    0    0    0    0  0.00000000000E+00  0.00000000000E+00  0.74505805969E-08  0.10566000000E+00  0.10566000000E+00 0. -1.
     999900   -1    0    0    0    0 -0.00000000000E+00 -0.00000000000E+00 -0.74505805969E-08  0.93827000000E+00  0.93827000000E+00 0.  1.
     999902    2    1    2    0    0  0.21619001158E-01  0.91195499530E-02  0.11113943142E-01  0.10179671971E+01  0.10176360583E+01 0.  0.
     999903    2    3    3    0    0 -0.83132319041E-01  0.22342346394E-01 -0.90389248277E-01  0.12586261842E+00  0.16156101010E-01 0.  0.
         14    1    1    2    0    0 -0.21619001158E-01 -0.91195499530E-02 -0.11113943142E-01  0.25962802903E-01  0.00000000000E+00 0.  1.
     999901    1    3    3    0    0  0.10475132020E+00 -0.13222796441E-01  0.10150319142E+00  0.89210457868E+00  0.88000000000E+00 0. -1.
        -11    1    4    4    0    0 -0.31917118837E-01  0.57626138237E-02 -0.44848705895E-01  0.55349595612E-01  0.51100000000E-03 0.  1.
         11    1    4    4    0    0 -0.51215200204E-01  0.16579732570E-01 -0.45540542381E-01  0.70513022808E-01  0.51100000000E-03 0. -1.
</event>
<event>
 8    1  0.1064884E+005  0.1043930E+01  0.7957747E-01            NaN
         13   -1    0    0    0    0  0.00000000000E+00  0.00000000000E+00  0.74505805969E-08  0.10566000000E+00  0.10566000000E+00 0. -1.
     999900   -1    0    0    0    0 -0.00000000000E+00 -0.00000000000E+00 -0.74505805969E-08  0.93827000000E+00  0.93827000000E+00 0.  1.
     999902    2    1    2    0    0 -0.40981919325E-02 -0.14951264243E-01  0.19687344281E-01  0.10188715283E+01  0.10185633334E+01 0.  0.
     999903    2    3    3    0    0  0.46020304216E-01 -0.65425320552E-01 -0.98116030286E-01  0.12817678312E+00  0.20104510991E-01 0.  0.
         14    1    1    2    0    0  0.40981919325E-02  0.14951264243E-01 -0.19687344281E-01  0.25058471710E-01  0.00000000000E+00 0.  1.
     999901    1    3    3    0    0 -0.50118496148E-01  0.50474056308E-01  0.11780337457E+00  0.89069474517E+00  0.88000000000E+00 0. -1.
        -11    1    4    4    0    0  0.36173155846E-01 -0.35459602676E-01 -0.55309610144E-01  0.75001964781E-01  0.51100000000E-03 0. -1.
         11    1    4    4    0    0  0.98471483698E-02 -0.29965717876E-01 -0.42806420142E-01  0.53174818337E-01  0.51100000000E-03 0.  1.
</event>
<event>
 8    1  0.1064884E+005  0.1043930E+01  0.7957747E-01            NaN
         13   -1    0    0    0    0  0.00000000000E+00  0.00000000000E+00  0.74505805969E-08  0.10566000000E+00  0.10566000000E+00 0. -1.
     999900   -1    0    0    0    0 -0.00000000000E+00 -0.00000000000E+00 -0.74505805969E-08  0.93827000000E+00  0.93827000000E+00 0. -1.
     999902    2    1    2    0    0 -0.22741710001E-01 -0.30774680142E-02  0.84949463061E-02  0.10194591950E+01  0.10191654576E+01 0.  0.
     999903    2    3    3    0    0  0.62034420330E-01 -0.10573403148E+00  0.34916822445E-01  0.12905283957E+00  0.20186534950E-01 0.  0.
         14    1    1    2    0    0  0.22741710001E-01  0.30774680142E-02 -0.84949463061E-02  0.24470804970E-01  0.00000000000E+00 0.  1.
     999901    1    3    3    0    0 -0.84776130331E-01  0.10265656347E+00 -0.26421876139E-01  0.89040635546E+00  0.88000000000E+00 0.  1.
        -11    1    4    4    0    0  0.47139630488E-01 -0.83288257475E-01  0.18421240205E-01  0.97461181028E-01  0.51100000000E-03 0.  1.
         11    1    4    4    0    0  0.14894789842E-01 -0.22445774008E-01  0.16495582240E-01  0.31591658546E-01  0.51100000000E-03 0. -1.
</event>
<event>
 8    1  0.1064884E+005  0.1043930E+01  0.7957747E-01            NaN
         13   -1    0    0    0    0  0.00000000000E+00  0.00000000000E+00  0.74505805969E-08  0.10566000000E+00  0.10566000000E+00 0. -1.
     999900   -1    0    0    0    0 -0.00000000000E+00 -0.00000000000E+00 -0.74505805969E-08  0.93827000000E+00  0.93827000000E+00 0.  1.
     999902    2    1    2    0    0  0.73960879875E-02 -0.21725873300E-01 -0.55058872323E-02  0.10203285068E+01  0.10200555040E+01 0.  0.
     999903    2    3    3    0    0 -0.85055189702E-01  0.77295953602E-01  0.53000133758E-01  0.12804182894E+00  0.19407370819E-01 0.  0.
         14    1    1    2    0    0 -0.73960879875E-02  0.21725873300E-01  0.55058872323E-02  0.23601493223E-01  0.00000000000E+00 0.  1.
     999901    1    3    3    0    0  0.92451277689E-01 -0.99021826901E-01 -0.58506020990E-01  0.89228667783E+00  0.88000000000E+00 0.  1.
        -11    1    4    4    0    0 -0.46344819892E-01  0.45998187539E-01  0.19916296461E-01  0.68268554792E-01  0.51100000000E-03 0.  1.
         11    1    4    4    0    0 -0.38710369809E-01  0.31297766063E-01  0.33083837297E-01  0.59773274150E-01  0.51100000000E-03 0. -1.
</event>
<event>
 8    1  0.1163862E+005  0.1043930E+01  0.7957747E-01            NaN
         13   -1    0    0    0    0  0.00000000000E+00  0.00000000000E+00  0.74505805969E-08  0.10566000000E+00  0.10566000000E+00 0.  1.
     999900   -1    0    0    0    0 -0.00000000000E+00 -0.00000000000E+00 -0.74505805969E-08  0.93827000000E+00  0.93827000000E+00 0. -1.
     999902    2    1    2    0    0  0.47005243796E-03  0.18328260683E-02  0.24173200307E-01  0.10196828597E+01  0.10193945313E+01 0.  0.
     999903    2    3    3    0    0  0.12643222908E+00  0.11004543370E-01  0.24128772573E-01  0.13066621624E+00  0.19627885105E-01 0.  0.
         14    1    1    2    0    0 -0.47005243796E-03 -0.18328260683E-02 -0.24173200307E-01  0.24247140322E-01  0.00000000000E+00 0. -1.
     999901    1    3    3    0    0 -0.12596217665E+00 -0.91717173018E-02  0.44427734233E-04  0.88901664344E+00  0.88000000000E+00 0.  1.
        -11    1    4    4    0    0  0.36147526658E-01 -0.56801675634E-02  0.61569548998E-02  0.37108990847E-01  0.51100000000E-03 0. -1.
         11    1    4    4    0    0  0.90284702425E-01  0.16684710933E-01  0.17971817673E-01  0.93557225389E-01  0.51100000000E-03 0.  1.
</event>
<event>
 8    1  0.1064884E+005  0.1043930E+01  0.7957747E-01            NaN
         13   -1    0    0    0    0  0.00000000000E+00  0.00000000000E+00  0.74505805969E-08  0.10566000000E+00  0.10566000000E+00 0.  1.
     999900   -1    0    0    0    0 -0.00000000000E+00 -0.00000000000E+00 -0.74505805969E-08  0.93827000000E+00  0.93827000000E+00 0. -1.
     999902    2    1    2    0    0  0.10302306734E-01  0.43618768266E-02 -0.19578908652E-01  0.10213801185E+01  0.10211311616E+01 0.  0.
     999903    2    3    3    0    0  0.23339953637E-02  0.12647371447E+00  0.30101100560E-01  0.13152456940E+00  0.19788585464E-01 0.  0.
         14    1    1    2    0    0 -0.10302306734E-01 -0.43618768266E-02  0.19578908652E-01  0.22549881540E-01  0.00000000000E+00 0.  1.
     999901    1    3    3    0    0  0.79683113700E-02 -0.12211183764E+00 -0.49680009212E-01  0.88985554906E+00  0.88000000000E+00 0. -1.
        -11    1    4    4    0    0  0.60888918159E-03  0.84792304406E-01  0.10547789934E-01  0.85449532626E-01  0.51100000000E-03 0. -1.
         11    1    4    4    0    0  0.17251061821E-02  0.41681410063E-01  0.19553310626E-01  0.46075036773E-01  0.51100000000E-03 0.  1.
</event>
<event>
 8    1  0.1064884E+005  0.1043930E+01  0.7957747E-01            NaN
         13   -1    0    0    0    0  0.00000000000E+00  0.00000000000E+00  0.74505805969E-08  0.10566000000E+00  0.10566000000E+00 0.  1.
     999900   -1    0    0    0    0 -0.00000000000E+00 -0.00000000000E+00 -0.74505805969E-08  0.93827000000E+00  0.93827000000E+00 0. -1.
     999902    2    1    2    0    0  0.19943455927E-01 -0.23237641426E-02 -0.11442104390E-01  0.10208201954E+01  0.10205585766E+01 0.  0.
     999903    2    3    3    0    0 -0.14176674139E-01  0.56541020868E-01 -0.11677750433E+00  0.13193055512E+00  0.19256705962E-01 0.  0.
         14    1    1    2    0    0 -0.19943455927E-01  0.23237641426E-02  0.11442104390E-01  0.23109804563E-01  0.00000000000E+00 0. -1.
     999901    1    3    3    0    0  0.34120130065E-01 -0.58864785011E-01  0.10533539994E+00  0.88888964032E+00  0.88000000000E+00 0.  1.
        -11    1    4    4    0    0  0.17506206889E-02  0.32446792293E-01 -0.62610989824E-01  0.70542584094E-01  0.51100000000E-03 0. -1.
         11    1    4    4    0    0 -0.15927294828E-01  0.24094228575E-01 -0.54166514508E-01  0.61387971021E-01  0.51100000000E-03 0.  1.
</event>
<event>
 8    1  0.1064884E+005  0.1043930E+01  0.7957747E-01            NaN
         13   -1    0    0    0    0  0.00000000000E+00  0.00000000000E+00  0.74505805969E-08  0.10566000000E+00  0.10566000000E+00 0.  1.
     999900   -1    0    0    0    0 -0.00000000000E+00 -0.00000000000E+00 -0.74505805969E-08  0.93827000000E+00  0.93827000000E+00 0. -1.
     999902    2    1    2    0    0 -0.23896698564E-01 -0.45939454296E-02  0.28073892255E-03  0.10195941139E+01  0.10193036455E+01 0.  0.
     999903    2    3    3    0    0 -0.72114841089E-01  0.17469539710E-01 -0.10714919545E+00  0.13147645424E+00  0.17302393185E-01 0.  0.
         14    1    1    2    0    0  0.23896698564E-01  0.45939454296E-02 -0.28073892255E-03  0.24335886078E-01  0.00000000000E+00 0.  1.
     999901    1    3    3    0    0  0.48218142525E-01 -0.22063485139E-01  0.10742993437E+00  0.88811765969E+00  0.88000000000E+00 0.  1.
        -11    1    4    4    0    0 -0.63435081095E-01  0.92704846734E-02 -0.92980954463E-01  0.11294100413E+00  0.51100000000E-03 0. -1.
         11    1    4    4    0    0 -0.86797599942E-02  0.81990550362E-02 -0.14168240988E-01  0.18535450109E-01  0.51100000000E-03 0.  1.
</event>
<event>
 8    1  0.1064884E+005  0.1043930E+01  0.7957747E-01            NaN
         13   -1    0    0    0    0  0.00000000000E+00  0.00000000000E+00  0.74505805969E-08  0.10566000000E+00  0.10566000000E+00 0. -1.
     999900   -1    0    0    0    0 -0.00000000000E+00 -0.00000000000E+00 -0.74505805969E-08  0.93827000000E+00  0.93827000000E+00 0. -1.
     999902    2    1    2    0    0  0.31166104581E-01  0.83105615297E-03  0.32465854133E-02  0.10125842340E+01  0.10120989447E+01 0.  0.
     999903    2    3    3    0    0 -0.10977183265E-01 -0.11409080745E+00 -0.39432281491E-01  0.12308742281E+00  0.21410229624E-01 0.  0.
         14    1    1    2    0    0 -0.31166104581E-01 -0.83105615297E-03 -0.32465854133E-02  0.31345765997E-01  0.00000000000E+00 0.  1.
     999901    1    3    3    0    0  0.42143287846E-01  0.11492186361E+00  0.42678866904E-01  0.88949681119E+00  0.88000000000E+00 0.  1.
        -11    1    4    4    0    0 -0.11698295440E-01 -0.31706802315E-01 -0.68326959076E-02  0.34483594412E-01  0.51100000000E-03 0. -1.
         11    1    4    4    0    0  0.72111217495E-03 -0.82384005138E-01 -0.32599585583E-01  0.88603828396E-01  0.51100000000E-03 0.  1.
</event>
<event>
 8    1  0.1064884E+005  0.1043930E+01  0.7957747E-01            NaN
         13   -1    0    0    0    0  0.00000000000E+00  0.00000000000E+00  0.74505805969E-08  0.10566000000E+00  0.10566000000E+00 0. -1.
     999900   -1    0    0    0    0 -0.00000000000E+00 -0.00000000000E+00 -0.74505805969E-08  0.93827000000E+00  0.93827000000E+00 0. -1.
     999902    2    1    2    0    0 -0.12449893253E-01  0.15464203486E-01  0.12450984188E-01  0.10204956569E+01  0.10202265519E+01 0.  0.
     999903    2    3    3    0    0  0.10390481367E+00  0.69192765091E-01  0.34893842548E-01  0.13092898816E+00  0.18465390575E-01 0.  0.
         14    1    1    2    0    0  0.12449893253E-01 -0.15464203486E-01 -0.12450984188E-01  0.23434343147E-01  0.00000000000E+00 0.  1.
     999901    1    3    3    0    0 -0.11635470692E+00 -0.53728561605E-01 -0.22442858360E-01  0.88956666869E+00  0.88000000000E+00 0. -1.
        -11    1    4    4    0    0  0.28118713015E-01  0.17221098099E-01  0.17739655065E-01  0.37445757092E-01  0.51100000000E-03 0. -1.
         11    1    4    4    0    0  0.75786100653E-01  0.51971666992E-01  0.17154187482E-01  0.93483231070E-01  0.51100000000E-03 0.  1.
</event>
<event>
 8    1  0.1064884E+005  0.1043930E+01  0.7957747E-01            NaN
         13   -1    0    0    0    0  0.00000000000E+00  0.00000000000E+00  0.74505805969E-08  0.10566000000E+00  0.10566000000E+00 0. -1.
     999900   -1    0    0    0    0 -0.00000000000E+00 -0.00000000000E+00 -0.74505805969E-08  0.93827000000E+00  0.93827000000E+00 0. -1.
     999902    2    1    2    0    0  0.10973239885E-01  0.40223502518E-02  0.20710003916E-01  0.10201498495E+01  0.10198726489E+01 0.  0.
     999903    2    3    3    0    0  0.58099915642E-01  0.72831651968E-01  0.93210423879E-01  0.13323838016E+00  0.19601864760E-01 0.  0.
         14    1    1    2    0    0 -0.10973239885E-01 -0.40223502518E-02 -0.20710003916E-01  0.23780150489E-01  0.00000000000E+00 0.  1.
     999901    1    3    3    0    0 -0.47126675757E-01 -0.68809301716E-01 -0.72500419963E-01  0.88691146935E+00  0.88000000000E+00 0.  1.
        -11    1    4    4    0    0  0.24566551983E-01  0.16374906429E-01  0.29881688387E-01  0.42009873349E-01  0.51100000000E-03 0. -1.
         11    1    4    4    0    0  0.33533363659E-01  0.56456745539E-01  0.63328735492E-01  0.91228506811E-01  0.51100000000E-03 0.  1.
</event>
<event>
 8    1  0.1064884E+005  0.1043930E+01  0.7957747E-01            NaN
         13   -1    0    0    0    0  0.00000000000E+00  0.00000000000E+00  0.74505805969E-08  0.10566000000E+00  0.10566000000E+00 0. -1.
     999900   -1    0    0    0    0 -0.00000000000E+00 -0.00000000000E+00 -0.74505805969E-08  0.93827000000E+00  0.93827000000E+00 0.  1.
     999902    2    1    2    0    0  0.22931574691E-01  0.18862775421E-02 -0.60296131651E-02  0.10201440505E+01  0.10198667130E+01 0.  0.
     999903    2    3    3    0    0 -0.70645284760E-01 -0.11107284081E-01 -0.10604904859E+00  0.12945367287E+00  0.19943036185E-01 0.  0.
         14    1    1    2    0    0 -0.22931574691E-01 -0.18862775421E-02  0.60296131651E-02  0.23785949544E-01  0.00000000000E+00 0.  1.
     999901    1    3    3    0    0  0.93576859451E-01  0.12993561623E-01  0.10001943543E+00  0.89069037759E+00  0.88000000000E+00 0.  1.
        -11    1    4    4    0    0 -0.17719926292E-01 -0.54015511380E-02 -0.43718557812E-01  0.47484165368E-01  0.51100000000E-03 0.  1.
         11    1    4    4    0    0 -0.52925358468E-01 -0.57057329429E-02 -0.62330490782E-01  0.81969507498E-01  0.51100000000E-03 0. -1.
</event>
<event>
 8    1  0.1064884E+005  0.1043930E+01  0.7957747E-01            NaN
         13   -1    0    0    0    0  0.00000000000E+00  0.00000000000E+00  0.74505805969E-08  0.10566000000E+00  0.10566000000E+00 0. -1.
     999900   -1    0    0    0    0 -0.00000000000E+00 -0.00000000000E+00 -0.74505805969E-08  0.93827000000E+00  0.93827000000E+00 0.  1.
     999902    2    1    2    0    0  0.23112276453E-02 -0.20994366385E-01  0.83496398441E-02  0.10212182920E+01  0.10209657087E+01 0.  0.
     999903    2    3    3    0    0 -0.10745125870E-01  0.11889347936E+00  0.45274582542E-01  0.12930880720E+00  0.20490549743E-01 0.  0.
         14    1    1    2    0    0 -0.23112276453E-02  0.20994366385E-01 -0.83496398441E-02  0.22711707964E-01  0.00000000000E+00 0.  1.
     999901    1    3    3    0    0  0.13056353516E-01 -0.13988784575E+00 -0.36924942697E-01  0.89190948484E+00  0.88000000000E+00 0. -1.
        -11    1    4    4    0    0  0.46591691546E-02  0.54957150621E-01  0.16963963380E-01  0.57706441895E-01  0.51100000000E-03 0. -1.
         11    1    4    4    0    0 -0.15404295025E-01  0.63936328743E-01  0.28310619162E-01  0.71602365300E-01  0.51100000000E-03 0.  1.
</event>
<event>
 8    1  0.1064884E+005  0.1043930E+01  0.7957747E-01            NaN
         13   -1    0    0    0    0  0.00000000000E+00  0.00000000000E+00  0.74505805969E-08  0.10566000000E+00  0.10566000000E+00 0.  1.
     999900   -1    0    0    0    0 -0.00000000000E+00 -0.00000000000E+00 -0.74505805969E-08  0.93827000000E+00  0.93827000000E+00 0. -1.
     999902    2    1    2    0    0 -0.12369587639E-01  0.17047360505E-01  0.11274460577E-01  0.10200399883E+01  0.10197601900E+01 0.  0.
     999903    2    3    3    0    0  0.67650051480E-01  0.86410983129E-01  0.70255337390E-01  0.13173080865E+00  0.19334064384E-01 0.  0.
         14    1    1    2    0    0  0.12369587639E-01 -0.17047360505E-01 -0.11274460577E-01  0.23890011717E-01  0.00000000000E+00 0. -1.
     999901    1    3    3    0    0 -0.80019639119E-01 -0.69363622624E-01 -0.58980876813E-01  0.88830917963E+00  0.88000000000E+00 0.  1.
        -11    1    4    4    0    0  0.38917398289E-01  0.39923777178E-01  0.44380804733E-01  0.71262815153E-01  0.51100000000E-03 0. -1.
         11    1    4    4    0    0  0.28732653191E-01  0.46487205951E-01  0.25874532656E-01  0.60467993498E-01  0.51100000000E-03 0.  1.
</event>
<event>
 8    1  0.1064884E+005  0.1043930E+01  0.7957747E-01            NaN
         13   -1    0    0    0    0  0.00000000000E+00  0.00000000000E+00  0.74505805969E-08  0.10566000000E+00  0.10566000000E+00 0.  1.
     999900   -1    0    0    0    0 -0.00000000000E+00 -0.00000000000E+00 -0.74505805969E-08  0.93827000000E+00  0.93827000000E+00 0.  1.
     999902    2    1    2    0    0  0.18784516112E-01 -0.13059326174E-01  0.80513203481E-02  0.10196765919E+01  0.10193881127E+01 0.  0.
     999903    2    3    3    0    0 -0.10586003694E+00 -0.49076166426E-01  0.51546777278E-01  0.12910074887E+00  0.19877514443E-01 0.  0.
         14    1    1    2    0    0 -0.18784516112E-01  0.13059326174E-01 -0.80513203481E-02  0.24253408112E-01  0.00000000000E+00 0. -1.
     999901    1    3    3    0    0  0.12464455305E+00  0.36016840252E-01 -0.43495456930E-01  0.89057584301E+00  0.88000000000E+00 0.  1.
        -11    1    4    4    0    0 -0.51668874529E-01 -0.14143347440E-01  0.18720695665E-01  0.56748854077E-01  0.51100000000E-03 0.  1.
         11    1    4    4    0    0 -0.54191162409E-01 -0.34932818987E-01  0.32826081613E-01  0.72351894797E-01  0.51100000000E-03 0. -1.
</event>
<event>
 8    1  0.1064884E+005  0.1043930E+01  0.7957747E-01            NaN
         13   -1    0    0    0    0  0.00000000000E+00  0.00000000000E+00  0.74505805969E-08  0.10566000000E+00  0.10566000000E+00 0.  1.
     999900   -1    0    0    0    0 -0.00000000000E+00 -0.00000000000E+00 -0.74505805969E-08  0.93827000000E+00  0.93827000000E+00 0.  1.
     999902    2    1    2    0    0 -0.89916444793E-02 -0.15859271484E-01  0.15808718429E-01  0.10197994853E+01  0.10195139570E+01 0.  0.
     999903    2    3    3    0    0 -0.45045475705E-01 -0.12082722150E+00 -0.18703487327E-01  0.13215696623E+00  0.22075573525E-01 0.  0.
         14    1    1    2    0    0  0.89916444793E-02  0.15859271484E-01 -0.15808718429E-01  0.24130514723E-01  0.00000000000E+00 0. -1.
     999901    1    3    3    0    0  0.36053831225E-01  0.10496795002E+00  0.34512205755E-01  0.88764251905E+00  0.88000000000E+00 0. -1.
        -11    1    4    4    0    0 -0.37479026182E-02 -0.38531798979E-01 -0.68755239207E-02  0.39322770207E-01  0.51100000000E-03 0.  1.
         11    1    4    4    0    0 -0.41297573086E-01 -0.82295422525E-01 -0.11827963406E-01  0.92834196020E-01  0.51100000000E-03 0. -1.
</event>
<event>
 8    1  0.1108528E+005  0.1043930E+01  0.7957747E-01            NaN
         13   -1    0    0    0    0  0.00000000000E+00  0.00000000000E+00  0.74505805969E-08  0.10566000000E+00  0.10566000000E+00 0. -1.
     999900   -1    0    0    0    0 -0.00000000000E+00 -0.00000000000E+00 -0.74505805969E-08  0.93827000000E+00  0.93827000000E+00 0. -1.
     999902    2    1    2    0    0 -0.48646104033E-02  0.12090149860E-02 -0.23401066028E-01  0.10199980957E+01  0.10197173036E+01 0.  0.
     999903    2    3    3    0    0  0.43454179524E-01 -0.10887277800E+00 -0.55369320394E-01  0.13124915709E+00  0.20470273297E-01 0.  0.
         14    1    1    2    0    0  0.48646104033E-02 -0.12090149860E-02  0.23401066028E-01  0.23931904288E-01  0.00000000000E+00 0. -1.
     999901    1    3    3    0    0 -0.48318789928E-01  0.11008179299E+00  0.31968254366E-01  0.88874893862E+00  0.88000000000E+00 0. -1.
        -11    1    4    4    0    0  0.25201149664E-01 -0.49809476339E-01 -0.16451979250E-01  0.58198029346E-01  0.51100000000E-03 0. -1.
         11    1    4    4    0    0  0.18253029860E-01 -0.59063301663E-01 -0.38917341144E-01  0.73051127747E-01  0.51100000000E-03 0.  1.
</event>
<event>
 8    1  0.1064884E+005  0.1043930E+01  0.7957747E-01            NaN
         13   -1    0    0    0    0  0.00000000000E+00  0.00000000000E+00  0.74505805969E-08  0.10566000000E+00  0.10566000000E+00 0. -1.
     999900   -1    0    0    0    0 -0.00000000000E+00 -0.00000000000E+00 -0.74505805969E-08  0.93827000000E+00  0.93827000000E+00 0.  1.
     999902    2    1    2    0    0  0.76159885084E-02 -0.21725514057E-01 -0.27664337241E-02  0.10207426242E+01  0.10204792259E+01 0.  0.
     999903    2    3    3    0    0 -0.69162871060E-01  0.50434505477E-01  0.94519291161E-01  0.12913364376E+00  0.20358277747E-01 0.  0.
         14    1    1    2    0    0 -0.76159885084E-02  0.21725514057E-01  0.27664337241E-02  0.23187375823E-01  0.00000000000E+00 0.  1.
     999901    1    3    3    0    0  0.76778859568E-01 -0.72160019534E-01 -0.97285724886E-01  0.89160898042E+00  0.88000000000E+00 0. -1.
        -11    1    4    4    0    0 -0.40342296117E-01  0.39498735206E-01  0.68666161364E-01  0.88898558910E-01  0.51100000000E-03 0.  1.
         11    1    4    4    0    0 -0.28820574942E-01  0.10935770271E-01  0.25853129798E-01  0.40235084848E-01  0.51100000000E-03 0. -1.
</event>
<event>
 8    1  0.1064884E+005  0.1043930E+01  0.7957747E-01            NaN
         13   -1    0    0    0    0  0.00000000000E+00  0.00000000000E+00  0.74505805969E-08  0.10566000000E+00  0.10566000000E+00 0. -1.
     999900   -1    0    0    0    0 -0.00000000000E+00 -0.00000000000E+00 -0.74505805969E-08  0.93827000000E+00  0.93827000000E+00 0. -1.
     999902    2    1    2    0    0  0.14291560576E-02 -0.10641829631E-01 -0.20890873427E-01  0.10204412874E+01  0.10201709178E+01 0.  0.
     999903    2    3    3    0    0 -0.57237473827E-01  0.83232326544E-01  0.76379401639E-01  0.12818816357E+00  0.19865640988E-01 0.  0.
         14    1    1    2    0    0 -0.14291560576E-02  0.10641829631E-01  0.20890873427E-01  0.23488712554E-01  0.00000000000E+00 0. -1.
     999901    1    3    3    0    0  0.58666629884E-01 -0.93874156175E-01 -0.97270275066E-01  0.89225312388E+00  0.88000000000E+00 0. -1.
        -11    1    4    4    0    0 -0.21712992453E-01  0.16715632303E-01  0.17540787609E-01  0.32539310925E-01  0.51100000000E-03 0.  1.
         11    1    4    4    0    0 -0.35524481374E-01  0.66516694241E-01  0.58838614030E-01  0.95648852642E-01  0.51100000000E-03 0. -1.
</event>
<event>
 8    1  0.1064884E+005  0.1043930E+01  0.7957747E-01            NaN
         13   -1    0    0    0    0  0.00000000000E+00  0.00000000000E+00  0.74505805969E-08  0.10566000000E+00  0.10566000000E+00 0. -1.
     999900   -1    0    0    0    0 -0.00000000000E+00 -0.00000000000E+00 -0.74505805969E-08  0.93827000000E+00  0.93827000000E+00 0.  1.
     999902    2    1    2    0    0 -0.90273072029E-02 -0.23806314312E-02  0.21415428656E-01  0.10205680595E+01  0.10203006340E+01 0.  0.
     999903    2    3    3    0    0  0.46648889092E-01  0.89676696899E-01 -0.77545496732E-01  0.12850995861E+00  0.16836762717E-01 0.  0.
         14    1    1    2    0    0  0.90273072029E-02  0.23806314312E-02 -0.21415428656E-01  0.23361940541E-01  0.00000000000E+00 0.  1.
     999901    1    3    3    0    0 -0.55676196295E-01 -0.92057328330E-01  0.98960925388E-01  0.89205810085E+00  0.88000000000E+00 0. -1.
        -11    1    4    4    0    0  0.41857800008E-01  0.87120017009E-01 -0.75633371885E-01  0.12272995090E+00  0.51100000000E-03 0. -1.
         11    1    4    4    0    0  0.47910890843E-02  0.25566798897E-02 -0.19121248464E-02  0.57800077076E-02  0.51100000000E-03 0.  1.
</event>
<event>
 8    1  0.1064884E+005  0.1043930E+01  0.7957747E-01            NaN
         13   -1    0    0    0    0  0.00000000000E+00  0.00000000000E+00  0.74505805969E-08  0.10566000000E+00  0.10566000000E+00 0.  1.
     999900   -1    0    0    0    0 -0.00000000000E+00 -0.00000000000E+00 -0.74505805969E-08  0.93827000000E+00  0.93827000000E+00 0.  1.
     999902    2    1    2    0    0 -0.44777283731E-02  0.13297148044E-01 -0.20186154498E-01  0.10193465700E+01  0.10190500894E+01 0.  0.
     999903    2    3    3    0    0  0.10114663300E+00 -0.21484381312E-01  0.71785048997E-01  0.12759270105E+00  0.20846680678E-01 0.  0.
         14    1    1    2    0    0  0.44777283731E-02 -0.13297148044E-01  0.20186154498E-01  0.24583430007E-01  0.00000000000E+00 0. -1.
     999901    1    3    3    0    0 -0.10562436137E+00  0.34781529355E-01 -0.91971203495E-01  0.89175386894E+00  0.88000000000E+00 0. -1.
        -11    1    4    4    0    0  0.22297494897E-01 -0.13353226959E-01  0.21353979375E-01  0.33641351118E-01  0.51100000000E-03 0.  1.
         11    1    4    4    0    0  0.78849138100E-01 -0.81311543526E-02  0.50431069622E-01  0.93951349934E-01  0.51100000000E-03 0. -1.
</event>
<event>
 8    1  0.1064884E+005  0.1043930E+01  0.7957747E-01            NaN
         13   -1    0    0    0    0  0.00000000000E+00  0.00000000000E+00  0.74505805969E-08  0.10566000000E+00  0.10566000000E+00 0. -1.
     999900   -1    0    0    0    0 -0.00000000000E+00 -0.00000000000E+00 -0.74505805969E-08  0.93827000000E+00  0.93827000000E+00 0. -1.
     999902    2    1    2    0    0  0.18021406685E-01 -0.12989529600E-01  0.11869206970E-01  0.10187431572E+01  0.10184317568E+01 0.  0.
     999903    2    3    3    0    0  0.52874551140E-01  0.11287108457E+00 -0.22481125052E-01  0.12844231970E+00  0.21364190026E-01 0.  0.
         14    1    1    2    0    0 -0.18021406685E-01  0.12989529600E-01 -0.11869206970E-01  0.25186842840E-01  0.00000000000E+00 0.  1.
     999901    1    3    3    0    0 -0.34853144455E-01 -0.12586061417E+00  0.34350332022E-01  0.89030083746E+00  0.88000000000E+00 0.  1.
        -11    1    4    4    0    0  0.31219290274E-01  0.67427826254E-01 -0.27052126905E-02  0.74355464730E-01  0.51100000000E-03 0. -1.
         11    1    4    4    0    0  0.21655260866E-01  0.45443258315E-01 -0.19775912361E-01  0.54086854967E-01  0.51100000000E-03 0.  1.
</event>
<event>
 8    1  0.1064884E+005  0.1043930E+01  0.7957747E-01            NaN
         13   -1    0    0    0    0  0.00000000000E+00  0.00000000000E+00  0.74505805969E-08  0.10566000000E+00  0.10566000000E+00 0.  1.
     999900   -1    0    0    0    0 -0.00000000000E+00 -0.00000000000E+00 -0.74505805969E-08  0.93827000000E+00  0.93827000000E+00 0. -1.
     999902    2    1    2    0    0 -0.60803108813E-02  0.12338409290E-01 -0.22477016532E-01  0.10175780969E+01  0.10172368262E+01 0.  0.
     999903    2    3    3    0    0 -0.76600976569E-01 -0.38993464163E-01 -0.95848154238E-01  0.13022729291E+00  0.19597940912E-01 0.  0.
         14    1    1    2    0    0  0.60803108813E-02 -0.12338409290E-01  0.22477016532E-01  0.26351903089E-01  0.00000000000E+00 0.  1.
     999901    1    3    3    0    0  0.70520665688E-01  0.51331873452E-01  0.73371137706E-01  0.88735080401E+00  0.88000000000E+00 0.  1.
        -11    1    4    4    0    0 -0.60348374265E-01 -0.28867831287E-01 -0.61366273291E-01  0.90781928698E-01  0.51100000000E-03 0. -1.
         11    1    4    4    0    0 -0.16252602305E-01 -0.10125632876E-01 -0.34481880947E-01  0.39445364208E-01  0.51100000000E-03 0.  1.
</event>
<event>
 8    1  0.1064884E+005  0.1043930E+01  0.7957747E-01            NaN
         13   -1    0    0    0    0  0.00000000000E+00  0.00000000000E+00  0.74505805969E-08  0.10566000000E+00  0.10566000000E+00 0. -1.
     999900   -1    0    0    0    0 -0.00000000000E+00 -0.00000000000E+00 -0.74505805969E-08  0.93827000000E+00  0.93827000000E+00 0.  1.
     999902    2    1    2    0    0  0.16961347662E-01 -0.29126752094E-02  0.15531464432E-01  0.10207481671E+01  0.10204848961E+01 0.  0.
     999903    2    3    3    0    0 -0.10511034026E+00  0.71855015811E-01 -0.19193885587E-02  0.12901040466E+00  0.20704432635E-01 0.  0.
         14    1    1    2    0    0 -0.16961347662E-01  0.29126752094E-02 -0.15531464432E-01  0.23181832947E-01  0.00000000000E+00 0.  1.
     999901    1    3    3    0    0  0.12207168792E+00 -0.74767691020E-01  0.17450852991E-01  0.89173776240E+00  0.88000000000E+00 0. -1.
        -11    1    4    4    0    0 -0.43964150545E-01  0.18151130310E-01  0.96191297409E-03  0.47576217401E-01  0.51100000000E-03 0.  1.
         11    1    4    4    0    0 -0.61146189715E-01  0.53703885501E-01 -0.28813015328E-02  0.81434187256E-01  0.51100000000E-03 0. -1.
</event>
<event>
 8    1  0.1064884E+005  0.1043930E+01  0.7957747E-01            NaN
         13   -1    0    0    0    0  0.00000000000E+00  0.00000000000E+00  0.74505805969E-08  0.10566000000E+00  0.10566000000E+00 0.  1.
     999900   -1    0    0    0    0 -0.00000000000E+00 -0.00000000000E+00 -0.74505805969E-08  0.93827000000E+00  0.93827000000E+00 0. -1.
     999902    2    1    2    0    0 -0.14893350620E-03  0.21968419311E-01 -0.96218109041E-02  0.10199464041E+01  0.10196643832E+01 0.  0.
     999903    2    3    3    0    0  0.41856040451E-01  0.12343549496E+00  0.13821546500E-01  0.13281080211E+00  0.21434189263E-01 0.  0.
         14    1    1    2    0    0  0.14893350620E-03 -0.21968419311E-01  0.96218109041E-02  0.23983595921E-01  0.00000000000E+00 0. -1.
     999901    1    3    3    0    0 -0.42004973957E-01 -0.10146707565E+00 -0.23443357404E-01  0.88713560197E+00  0.88000000000E+00 0.  1.
        -11    1    4    4    0    0  0.20055099050E-01  0.30004088616E-01  0.54731507761E-02  0.36505736974E-01  0.51100000000E-03 0. -1.
         11    1    4    4    0    0  0.21800941401E-01  0.93431406348E-01  0.83483957237E-02  0.96305065133E-01  0.51100000000E-03 0.  1.
</event>
<event>
 8    1  0.1064884E+005  0.1043930E+01  0.7957747E-01            NaN
         13   -1    0    0    0    0  0.00000000000E+00  0.00000000000E+00  0.74505805969E-08  0.10566000000E+00  0.10566000000E+00 0.  1.
     999900   -1    0    0    0    0 -0.00000000000E+00 -0.00000000000E+00 -0.74505805969E-08  0.93827000000E+00  0.93827000000E+00 0.  1.
     999902    2    1    2    0    0  0.13752633431E-01 -0.77250441452E-02 -0.17512549159E-01  0.10203609395E+01  0.10200886953E+01 0.  0.
     999903    2    3    3    0    0  0.90754083945E-01  0.45434262666E-01 -0.83646265926E-01  0.13293274313E+00  0.19334953188E-01 0.  0.
         14    1    1    2    0    0 -0.13752633431E-01  0.77250441452E-02  0.17512549159E-01  0.23569060469E-01  0.00000000000E+00 0. -1.
     999901    1    3    3    0    0 -0.77001450514E-01 -0.53159306811E-01  0.66133716767E-01  0.88742819641E+00  0.88000000000E+00 0. -1.
        -11    1    4    4    0    0  0.25952104142E-01  0.20117482483E-01 -0.35279195658E-01  0.48198626309E-01  0.51100000000E-03 0. -1.
         11    1    4    4    0    0  0.64801979804E-01  0.25316780182E-01 -0.48367070268E-01  0.84734116816E-01  0.51100000000E-03 0.  1.
</event>
<event>
 8    1  0.1064884E+005  0.1043930E+01  0.7957747E-01            NaN
         13   -1    0    0    0    0  0.00000000000E+00  0.00000000000E+00  0.74505805969E-08  0.10566000000E+00  0.10566000000E+00 0. -1.
     999900   -1    0    0    0    0 -0.00000000000E+00 -0.00000000000E+00 -0.74505805969E-08  0.93827000000E+00  0.93827000000E+00 0. -1.
     999902    2    1    2    0    0 -0.11156159467E-01 -0.16432263052E-01 -0.12363215331E-01  0.10205349523E+01  0.10202667595E+01 0.  0.
     999903    2    3    3    0    0  0.38703530276E-01 -0.61463428278E-02 -0.12442625550E+00  0.13196873993E+00  0.19952806200E-01 0.  0.
         14    1    1    2    0    0  0.11156159467E-01  0.16432263052E-01  0.12363215331E-01  0.23395047690E-01  0.00000000000E+00 0.  1.
     999901    1    3    3    0    0 -0.49859689743E-01 -0.10285920224E-01  0.11206304017E+00  0.88856621238E+00  0.88000000000E+00 0.  1.
        -11    1    4    4    0    0  0.10447089470E-01  0.36184239358E-04 -0.12181870653E-01  0.16056216282E-01  0.51100000000E-03 0. -1.
         11    1    4    4    0    0  0.28256440806E-01 -0.61825270671E-02 -0.11224438484E+00  0.11591252365E+00  0.51100000000E-03 0.  1.
</event>
<event>
 8    1  0.1064884E+005  0.1043930E+01  0.7957747E-01            NaN
         13   -1    0    0    0    0  0.00000000000E+00  0.00000000000E+00  0.74505805969E-08  0.10566000000E+00  0.10566000000E+00 0.  1.
     999900   -1    0    0    0    0 -0.00000000000E+00 -0.00000000000E+00 -0.74505805969E-08  0.93827000000E+00  0.93827000000E+00 0. -1.
     999902    2    1    2    0    0  0.52419854573E-02  0.43834838935E-02  0.22741803751E-01  0.10201837797E+01  0.10199073788E+01 0.  0.
     999903    2    3    3    0    0 -0.10877734212E+00 -0.67486811150E-01 -0.33157412288E-03  0.12962321062E+00  0.20373682808E-01 0.  0.
         14    1    1    2    0    0 -0.52419854573E-02 -0.43834838935E-02 -0.22741803751E-01  0.23746220340E-01  0.00000000000E+00 0. -1.
     999901    1    3    3    0    0  0.11401932758E+00  0.71870295043E-01  0.23073377874E-01  0.89056056904E+00  0.88000000000E+00 0.  1.
        -11    1    4    4    0    0 -0.67232117897E-01 -0.30617075275E-01 -0.37262803067E-02  0.73971002840E-01  0.51100000000E-03 0.  1.
         11    1    4    4    0    0 -0.41545224223E-01 -0.36869735875E-01  0.33947061838E-02  0.55652207775E-01  0.51100000000E-03 0. -1.
</event>
<event>
 8    1  0.1064884E+005  0.1043930E+01  0.7957747E-01            NaN
         13   -1    0    0    0    0  0.00000000000E+00  0.00000000000E+00  0.74505805969E-08  0.10566000000E+00  0.10566000000E+00 0. -1.
     999900   -1    0    0    0    0 -0.00000000000E+00 -0.00000000000E+00 -0.74505805969E-08  0.93827000000E+00  0.93827000000E+00 0.  1.
     999902    2    1    2    0    0  0.18055802076E-01  0.10422018642E-01 -0.10208094954E-01  0.10207171660E+01  0.10204531823E+01 0.  0.
     999903    2    3    3    0    0 -0.11245821340E+00 -0.36029844979E-01  0.45331936897E-01  0.12814986934E+00  0.20552494223E-01 0.  0.
         14    1    1    2    0    0 -0.18055802076E-01 -0.10422018642E-01  0.10208094954E-01  0.23212834032E-01  0.00000000000E+00 0. -1.
     999901    1    3    3    0    0  0.13051401548E+00  0.46451863621E-01 -0.55540031851E-01  0.89256729663E+00  0.88000000000E+00 0.  1.
        -11    1    4    4    0    0 -0.60138989623E-01 -0.17714884562E-01  0.34857300829E-01  0.71734285735E-01  0.51100000000E-03 0. -1.
         11    1    4    4    0    0 -0.52319223779E-01 -0.18314960417E-01  0.10474636068E-01  0.56415583606E-01  0.51100000000E-03 0.  1.
</event>
<event>
 8    1  0.1064884E+005  0.1043930E+01  0.7957747E-01            NaN
         13   -1    0    0    0    0  0.00000000000E+00  0.00000000000E+00  0.74505805969E-08  0.10566000000E+00  0.10566000000E+00 0. -1.
     999900   -1    0    0    0    0 -0.00000000000E+00 -0.00000000000E+00 -0.74505805969E-08  0.93827000000E+00  0.93827000000E+00 0.  1.
     999902    2    1    2    0    0 -0.25527510676E-02 -0.18406334697E-01  0.14313168547E-01  0.10204741587E+01  0.10202045541E+01 0.  0.
     999903    2    3    3    0    0  0.94177633190E-01 -0.51401155869E-01 -0.71530030855E-01  0.13040984627E+00  0.19459631861E-01 0.  0.
         14    1    1    2    0    0  0.25527510676E-02  0.18406334697E-01 -0.14313168547E-01  0.23455841253E-01  0.00000000000E+00 0.  1.
     999901    1    3    3    0    0 -0.96730384258E-01  0.32994821171E-01  0.85843199402E-01  0.89006431248E+00  0.88000000000E+00 0. -1.
        -11    1    4    4    0    0  0.40285568080E-01 -0.22659045116E-01 -0.19479928112E-01  0.50160622418E-01  0.51100000000E-03 0. -1.
         11    1    4    4    0    0  0.53892065110E-01 -0.28742110752E-01 -0.52050102742E-01  0.80249223852E-01  0.51100000000E-03 0.  1.
</event>
<event>
 8    1  0.1064884E+005  0.1043930E+01  0.7957747E-01            NaN
         13   -1    0    0    0    0  0.00000000000E+00  0.00000000000E+00  0.74505805969E-08  0.10566000000E+00  0.10566000000E+00 0. -1.
     999900   -1    0    0    0    0 -0.00000000000E+00 -0.00000000000E+00 -0.74505805969E-08  0.93827000000E+00  0.93827000000E+00 0. -1.
     999902    2    1    2    0    0 -0.56997890643E-02 -0.22301002027E-01 -0.16428111488E-02  0.10208535810E+01  0.10205927261E+01 0.  0.
     999903    2    3    3    0    0  0.59787079800E-01 -0.11630278662E+00 -0.15255896204E-01  0.13332319750E+00  0.21011890353E-01 0.  0.
         14    1    1    2    0    0  0.56997890643E-02  0.22301002027E-01  0.16428111488E-02  0.23076419030E-01  0.00000000000E+00 0.  1.
     999901    1    3    3    0    0 -0.65486868865E-01  0.94001784591E-01  0.13613085055E-01  0.88753038347E+00  0.88000000000E+00 0.  1.
        -11    1    4    4    0    0  0.36988310892E-02 -0.62117310991E-02 -0.60206109022E-02  0.94220927245E-02  0.51100000000E-03 0.  1.
         11    1    4    4    0    0  0.56088248711E-01 -0.11009105552E+00 -0.92352853021E-02  0.12390110477E+00  0.51100000000E-03 0. -1.
</event>
<event>
 8    1  0.1064884E+005  0.1043930E+01  0.7957747E-01            NaN
         13   -1    0    0    0    0  0.00000000000E+00  0.00000000000E+00  0.74505805969E-08  0.10566000000E+00  0.10566000000E+00 0.  1.
     999900   -1    0    0    0    0 -0.00000000000E+00 -0.00000000000E+00 -0.74505805969E-08  0.93827000000E+00  0.93827000000E+00 0.  1.
     999902    2    1    2    0    0 -0.19717198264E-01 -0.65639542610E-02 -0.11708736145E-01  0.10200773711E+01  0.10197984581E+01 0.  0.
     999903    2    3    3    0    0  0.54872122337E-01 -0.81636180943E-01 -0.83694081659E-01  0.13081852469E+00  0.20817570657E-01 0.  0.
         14    1    1    2    0    0  0.19717198264E-01  0.65639542610E-02  0.11708736145E-01  0.23852628892E-01  0.00000000000E+00 0.  1.
     999901    1    3    3    0    0 -0.74589320602E-01  0.75072226682E-01  0.71985345514E-01  0.88925884642E+00  0.88000000000E+00 0. -1.
        -11    1    4    4    0    0  0.32587500786E-02 -0.19265083491E-01 -0.17720440607E-01  0.26382532674E-01  0.51100000000E-03 0. -1.
         11    1    4    4    0    0  0.51613372259E-01 -0.62371097452E-01 -0.65973641053E-01  0.10443599201E+00  0.51100000000E-03 0.  1.
</event>
<event>
 8    1  0.1064884E+005  0.1043930E+01  0.7957747E-01            NaN
         13   -1    0    0    0    0  0.00000000000E+00  0.00000000000E+00  0.74505805969E-08  0.10566000000E+00  0.10566000000E+00 0.  1.
     999900   -1    0    0    0    0 -0.00000000000E+00 -0.00000000000E+00 -0.74505805969E-08  0.93827000000E+00  0.93827000000E+00 0. -1.
     999902    2    1    2    0    0 -0.11971207117E-01 -0.15369642431E-01 -0.20415010989E-01  0.10157110634E+01  0.10153189922E+01 0.  0.
     999903    2    3    3    0    0 -0.51397106276E-01 -0.87703771923E-01 -0.78857745751E-01  0.12993333675E+00  0.18180038236E-01 0.  0.
         14    1    1    2    0    0  0.11971207117E-01  0.15369642431E-01  0.20415010989E-01  0.28218936585E-01  0.00000000000E+00 0.  1.
     999901    1    3    3    0    0  0.39425899160E-01  0.72334129491E-01  0.58442734762E-01  0.88577772667E+00  0.88000000000E+00 0.  1.
        -11    1    4    4    0    0 -0.12348745306E-01 -0.26308185578E-01 -0.13189573911E-01  0.31919243725E-01  0.51100000000E-03 0.  1.
         11    1    4    4    0    0 -0.39048360970E-01 -0.61395586345E-01 -0.65668171840E-01  0.98014093022E-01  0.51100000000E-03 0. -1.
</event>
<event>
 8    1  0.1064884E+005  0.1043930E+01  0.7957747E-01            NaN
         13   -1    0    0    0    0  0.00000000000E+00  0.00000000000E+00  0.74505805969E-08  0.10566000000E+00  0.10566000000E+00 0.  1.
     999900   -1    0    0    0    0 -0.00000000000E+00 -0.00000000000E+00 -0.74505805969E-08  0.93827000000E+00  0.93827000000E+00 0.  1.
     999902    2    1    2    0    0  0.22951625483E-01  0.18264938024E-03  0.71420063272E-02  0.10198921397E+01  0.10196088259E+01 0.  0.
     999903    2    3    3    0    0  0.12976549980E+00 -0.66869685012E-02  0.21990081451E-01  0.13328238297E+00  0.19920578372E-01 0.  0.
         14    1    1    2    0    0 -0.22951625483E-01 -0.18264938024E-03 -0.71420063272E-02  0.24037860294E-01  0.00000000000E+00 0.  1.
     999901    1    3    3    0    0 -0.10681387432E+00  0.68696178815E-02 -0.14848075124E-01  0.88660975673E+00  0.88000000000E+00 0.  1.
        -11    1    4    4    0    0  0.51358158150E-01  0.43090561330E-02  0.15592343001E-01  0.53848032968E-01  0.51100000000E-03 0. -1.
         11    1    4    4    0    0  0.78407341652E-01 -0.10996024634E-01  0.63977384506E-02  0.79434350007E-01  0.51100000000E-03 0.  1.
</event>
<event>
 8    1  0.1064884E+005  0.1043930E+01  0.7957747E-01            NaN
         13   -1    0    0    0    0  0.00000000000E+00  0.00000000000E+00  0.74505805969E-08  0.10566000000E+00  0.10566000000E+00 0.  1.
     999900   -1    0    0    0    0 -0.00000000000E+00 -0.00000000000E+00 -0.74505805969E-08  0.93827000000E+00  0.93827000000E+00 0. -1.
     999902    2    1    2    0    0 -0.26419993292E-02 -0.21606367307E-01 -0.16793136425E-01  0.10164377338E+01  0.10160658650E+01 0.  0.
     999903    2    3    3    0    0 -0.46859227338E-01 -0.15644545712E-02 -0.11857323446E+00  0.12924213539E+00  0.21111203755E-01 0.  0.
         14    1    1    2    0    0  0.26419993292E-02  0.21606367307E-01  0.16793136425E-01  0.27492266179E-01  0.00000000000E+00 0.  1.
     999901    1    3    3    0    0  0.44217228009E-01 -0.20041912736E-01  0.10178009804E+00  0.88719559843E+00  0.88000000000E+00 0.  1.
        -11    1    4    4    0    0 -0.19914717512E-01  0.29867847099E-02 -0.76212447343E-01  0.78829658806E-01  0.51100000000E-03 0.  1.
         11    1    4    4    0    0 -0.26944509826E-01 -0.45512392810E-02 -0.42360787121E-01  0.50412476584E-01  0.51100000000E-03 0. -1.
</event>
<event>
 8    1  0.1064884E+005  0.1043930E+01  0.7957747E-01            NaN
         13   -1    0    0    0    0  0.00000000000E+00  0.00000000000E+00  0.74505805969E-08  0.10566000000E+00  0.10566000000E+00 0.  1.
     999900   -1    0    0    0    0 -0.00000000000E+00 -0.00000000000E+00 -0.74505805969E-08  0.93827000000E+00  0.93827000000E+00 0.  1.
     999902    2    1    2    0    0  0.10128368761E-01  0.19129556413E-01 -0.90802132316E-02  0.10204571635E+01  0.10201871634E+01 0.  0.
     999903    2    3    3    0    0 -0.45916249391E-01  0.66088759226E-01  0.10089133920E+00  0.13060329440E+00  0.20053232373E-01 0.  0.
         14    1    1    2    0    0 -0.10128368761E-01 -0.19129556413E-01  0.90802132316E-02  0.23472836528E-01  0.00000000000E+00 0.  1.
     999901    1    3    3    0    0  0.56044618152E-01 -0.46959202813E-01 -0.10997155243E+00  0.88985386907E+00  0.88000000000E+00 0.  1.
        -11    1    4    4    0    0 -0.95496856712E-02  0.25137964253E-01  0.44468090220E-01  0.51969086119E-01  0.51100000000E-03 0. -1.
         11    1    4    4    0    0 -0.36366563720E-01  0.40950794973E-01  0.56423248982E-01  0.78634208284E-01  0.51100000000E-03 0.  1.
</event>
<event>
 8    1  0.1064884E+005  0.1043930E+01  0.7957747E-01            NaN
         13   -1    0    0    0    0  0.00000000000E+00  0.00000000000E+00  0.74505805969E-08  0.10566000000E+00  0.10566000000E+00 0.  1.
     999900   -1    0    0    0    0 -0.00000000000E+00 -0.00000000000E+00 -0.74505805969E-08  0.93827000000E+00  0.93827000000E+00 0. -1.
     999902    2    1    2    0    0 -0.19605546293E-01  0.13318307354E-01 -0.79773057758E-03  0.10202152128E+01  0.10199395518E+01 0.  0.
     999903    2    3    3    0    0  0.59088670938E-02 -0.10091371748E+00 -0.77849102596E-01  0.12912775657E+00  0.19874648552E-01 0.  0.
         14    1    1    2    0    0  0.19605546293E-01 -0.13318307354E-01  0.79773057758E-03  0.23714787166E-01  0.00000000000E+00 0.  1.
     999901    1    3    3    0    0 -0.25514413387E-01  0.11423202483E+00  0.77051372018E-01  0.89108745627E+00  0.88000000000E+00 0.  1.
        -11    1    4    4    0    0 -0.54801814719E-02 -0.51527265005E-01 -0.32896612685E-01  0.61380287348E-01  0.51100000000E-03 0.  1.
         11    1    4    4    0    0  0.11389048566E-01 -0.49386452475E-01 -0.44952489911E-01  0.67747469218E-01  0.51100000000E-03 0. -1.
</event>
<event>
 8    1  0.1064884E+005  0.1043930E+01  0.7957747E-01            NaN
         13   -1    0    0    0    0  0.00000000000E+00  0.00000000000E+00  0.74505805969E-08  0.10566000000E+00  0.10566000000E+00 0. -1.
     999900   -1    0    0    0    0 -0.00000000000E+00 -0.00000000000E+00 -0.74505805969E-08  0.93827000000E+00  0.93827000000E+00 0. -1.
     999902    2    1    2    0    0  0.10975312862E-01  0.90606173513E-02 -0.18818890918E-01  0.10203354469E+01  0.10200626066E+01 0.  0.
     999903    2    3    3    0    0 -0.74368462769E-02 -0.12024482748E+00 -0.46483087781E-01  0.13026566683E+00  0.17156377412E-01 0.  0.
         14    1    1    2    0    0 -0.10975312862E-01 -0.90606173513E-02  0.18818890918E-01  0.23594553070E-01  0.00000000000E+00 0. -1.
     999901    1    3    3    0    0  0.18412159138E-01  0.12930544483E+00  0.27664196863E-01  0.89006978010E+00  0.88000000000E+00 0.  1.
        -11    1    4    4    0    0  0.52642187303E-02 -0.51686453132E-01 -0.19162877442E-01  0.55377598622E-01  0.51100000000E-03 0. -1.
         11    1    4    4    0    0 -0.12701065007E-01 -0.68558374347E-01 -0.27320210338E-01  0.74888068204E-01  0.51100000000E-03 0.  1.
</event>
<event>
 8    1  0.1064884E+005  0.1043930E+01  0.7957747E-01            NaN
         13   -1    0    0    0    0  0.00000000000E+00  0.00000000000E+00  0.74505805969E-08  0.10566000000E+00  0.10566000000E+00 0.  1.
     999900   -1    0    0    0    0 -0.00000000000E+00 -0.00000000000E+00 -0.74505805969E-08  0.93827000000E+00  0.93827000000E+00 0.  1.
     999902    2    1    2    0    0  0.18934505060E-01 -0.14045221736E-01 -0.68060691066E-02  0.10193921453E+01  0.10190967764E+01 0.  0.
     999903    2    3    3    0    0 -0.59472025406E-01 -0.21044538473E-02  0.11136082878E+00  0.12795870321E+00  0.20756806325E-01 0.  0.
         14    1    1    2    0    0 -0.18934505060E-01  0.14045221736E-01  0.68060691066E-02  0.24537854677E-01  0.00000000000E+00 0.  1.
     999901    1    3    3    0    0  0.78406530466E-01 -0.11940767889E-01 -0.11816689789E+00  0.89143344211E+00  0.88000000000E+00 0.  1.
        -11    1    4    4    0    0 -0.31400243968E-01  0.77676358594E-02  0.68777028005E-01  0.76005606308E-01  0.51100000000E-03 0. -1.
         11    1    4    4    0    0 -0.28071781438E-01 -0.98720897067E-02  0.42583800777E-01  0.51953096904E-01  0.51100000000E-03 0.  1.
</event>
<event>
 8    1  0.1064884E+005  0.1043930E+01  0.7957747E-01            NaN
         13   -1    0    0    0    0  0.00000000000E+00  0.00000000000E+00  0.74505805969E-08  0.10566000000E+00  0.10566000000E+00 0.  1.
     999900   -1    0    0    0    0 -0.00000000000E+00 -0.00000000000E+00 -0.74505805969E-08  0.93827000000E+00  0.93827000000E+00 0.  1.
     999902    2    1    2    0    0 -0.62726583566E-02 -0.29618329854E-02  0.22969667745E-01  0.10199357437E+01  0.10196534691E+01 0.  0.
     999903    2    3    3    0    0 -0.19811843523E-01  0.57580573964E-01 -0.11031590366E+00  0.12773972484E+00  0.20971577442E-01 0.  0.
         14    1    1    2    0    0  0.62726583566E-02  0.29618329854E-02 -0.22969667745E-01  0.23994256267E-01  0.00000000000E+00 0. -1.
     999901    1    3    3    0    0  0.13539185167E-01 -0.60542406949E-01  0.13328557141E+00  0.89219601889E+00  0.88000000000E+00 0. -1.
        -11    1    4    4    0    0 -0.87757668828E-02  0.41141010416E-01 -0.56852731926E-01  0.70725462677E-01  0.51100000000E-03 0.  1.
         11    1    4    4    0    0 -0.11036076640E-01  0.16439563548E-01 -0.53463171738E-01  0.57014262168E-01  0.51100000000E-03 0. -1.
</event>
<event>
 8    1  0.1064884E+005  0.1043930E+01  0.7957747E-01            NaN
         13   -1    0    0    0    0  0.00000000000E+00  0.00000000000E+00  0.74505805969E-08  0.10566000000E+00  0.10566000000E+00 0. -1.
     999900   -1    0    0    0    0 -0.00000000000E+00 -0.00000000000E+00 -0.74505805969E-08  0.93827000000E+00  0.93827000000E+00 0.  1.
     999902    2    1    2    0    0  0.17493028094E-01  0.77965604758E-03  0.12800906442E-01  0.10222395159E+01  0.10220093692E+01 0.  0.
     999903    2    3    3    0    0 -0.77048617114E-01 -0.95740237581E-01 -0.38860578533E-01  0.13043061170E+00  0.19982928069E-01 0.  0.
         14    1    1    2    0    0 -0.17493028094E-01 -0.77965604758E-03 -0.12800906442E-01  0.21690484116E-01  0.00000000000E+00 0.  1.
     999901    1    3    3    0    0  0.94541645208E-01  0.96519893629E-01  0.51661484975E-01  0.89180890418E+00  0.88000000000E+00 0. -1.
        -11    1    4    4    0    0 -0.60886461403E-01 -0.62449088839E-01 -0.23272546556E-01  0.90271382084E-01  0.51100000000E-03 0. -1.
         11    1    4    4    0    0 -0.16162155711E-01 -0.33291148742E-01 -0.15588031977E-01  0.40159229620E-01  0.51100000000E-03 0.  1.
</event>
<event>
 8    1  0.1064884E+005  0.1043930E+01  0.7957747E-01            NaN
         13   -1    0    0    0    0  0.00000000000E+00  0.00000000000E+00  0.74505805969E-08  0.10566000000E+00  0.10566000000E+00 0. -1.
     999900   -1    0    0    0    0 -0.00000000000E+00 -0.00000000000E+00 -0.74505805969E-08  0.93827000000E+00  0.93827000000E+00 0.  1.
     999902    2    1    2    0    0  0.12724011728E-01 -0.16327290434E-01  0.12042226828E-01  0.10199822211E+01  0.10197010519E+01 0.  0.
     999903    2    3    3    0    0  0.12975084463E+00 -0.34952119459E-02 -0.11489893824E-01  0.13183037453E+00  0.19993293882E-01 0.  0.
         14    1    1    2    0    0 -0.12724011728E-01  0.16327290434E-01 -0.12042226828E-01  0.23947778902E-01  0.00000000000E+00 0. -1.
     999901    1    3    3    0    0 -0.11702683290E+00 -0.12832078488E-01  0.23532120652E-01  0.88815184657E+00  0.88000000000E+00 0.  1.
        -11    1    4    4    0    0  0.63609087533E-01 -0.31844672304E-02  0.42718103754E-02  0.63833896428E-01  0.51100000000E-03 0. -1.
         11    1    4    4    0    0  0.66141757097E-01 -0.31074471556E-03 -0.15761704200E-01  0.67996478104E-01  0.51100000000E-03 0.  1.
</event>
<event>
 8    1  0.1064884E+005  0.1043930E+01  0.7957747E-01            NaN
         13   -1    0    0    0    0  0.00000000000E+00  0.00000000000E+00  0.74505805969E-08  0.10566000000E+00  0.10566000000E+00 0. -1.
     999900   -1    0    0    0    0 -0.00000000000E+00 -0.00000000000E+00 -0.74505805969E-08  0.93827000000E+00  0.93827000000E+00 0.  1.
     999902    2    1    2    0    0 -0.22998740346E-01 -0.99424205208E-02  0.58635332578E-02  0.10181972426E+01  0.10178720204E+01 0.  0.
     999903    2    3    3    0    0 -0.38808225605E-01 -0.83598542742E-01 -0.89253426741E-01  0.12987162644E+00  0.20141262302E-01 0.  0.
         14    1    1    2    0    0  0.22998740346E-01  0.99424205208E-02 -0.58635332578E-02  0.25732757442E-01  0.00000000000E+00 0. -1.
     999901    1    3    3    0    0  0.15809485259E-01  0.73656122221E-01  0.95116959999E-01  0.88832561611E+00  0.88000000000E+00 0. -1.
        -11    1    4    4    0    0 -0.61917421317E-02 -0.36130867906E-01 -0.32040320516E-01  0.48689018741E-01  0.51100000000E-03 0.  1.
         11    1    4    4    0    0 -0.32616483473E-01 -0.47467674836E-01 -0.57213106225E-01  0.81182607703E-01  0.51100000000E-03 0. -1.
</event>
<event>
 8    1  0.1064884E+005  0.1043930E+01  0.7957747E-01            NaN
         13   -1    0    0    0    0  0.00000000000E+00  0.00000000000E+00  0.74505805969E-08  0.10566000000E+00  0.10566000000E+00 0. -1.
     999900   -1    0    0    0    0 -0.00000000000E+00 -0.00000000000E+00 -0.74505805969E-08  0.93827000000E+00  0.93827000000E+00 0. -1.
     999902    2    1    2    0    0 -0.83626701216E-02 -0.21748662357E-01  0.31541698356E-02  0.10204164432E+01  0.10201454946E+01 0.  0.
     999903    2    3    3    0    0 -0.25406806777E-01 -0.84044305533E-01  0.97853842332E-01  0.13298234552E+00  0.19999465960E-01 0.  0.
         14    1    1    2    0    0  0.83626701216E-02  0.21748662357E-01 -0.31541698356E-02  0.23513556796E-01  0.00000000000E+00 0.  1.
     999901    1    3    3    0    0  0.17044136655E-01  0.62295643177E-01 -0.94699672497E-01  0.88743409768E+00  0.88000000000E+00 0.  1.
        -11    1    4    4    0    0 -0.16081760041E-01 -0.67661443001E-01  0.65514124418E-01  0.95546090941E-01  0.51100000000E-03 0. -1.
         11    1    4    4    0    0 -0.93250467362E-02 -0.16382862533E-01  0.32339717914E-01  0.37436254583E-01  0.51100000000E-03 0.  1.
</event>
<event>
 8    1  0.1064884E+005  0.1043930E+01  0.7957747E-01            NaN
         13   -1    0    0    0    0  0.00000000000E+00  0.00000000000E+00  0.74505805969E-08  0.10566000000E+00  0.10566000000E+00 0. -1.
     999900   -1    0    0    0    0 -0.00000000000E+00 -0.00000000000E+00 -0.74505805969E-08  0.93827000000E+00  0.93827000000E+00 0. -1.
     999902    2    1    2    0    0 -0.15143975616E-01 -0.27464517666E-02  0.15189627633E-01  0.10223057594E+01  0.10220770313E+01 0.  0.
     999903    2    3    3    0    0  0.64705502764E-01  0.10746750079E+00  0.34588645632E-01  0.13163220727E+00  0.19864485104E-01 0.  0.
         14    1    1    2    0    0  0.15143975616E-01  0.27464517666E-02 -0.15189627633E-01  0.21624240620E-01  0.00000000000E+00 0.  1.
     999901    1    3    3    0    0 -0.79849478380E-01 -0.11021395256E+00 -0.19399017999E-01  0.89067355211E+00  0.88000000000E+00 0.  1.
        -11    1    4    4    0    0  0.20065671104E-01  0.42297920150E-01  0.42455298975E-02  0.47010965221E-01  0.51100000000E-03 0.  1.
         11    1    4    4    0    0  0.44639831659E-01  0.65169580642E-01  0.30343115735E-01  0.84621242045E-01  0.51100000000E-03 0. -1.
</event>
<event>
 8    1  0.1064884E+005  0.1043930E+01  0.7957747E-01            NaN
         13   -1    0    0    0    0  0.00000000000E+00  0.00000000000E+00  0.74505805969E-08  0.10566000000E+00  0.10566000000E+00 0. -1.
     999900   -1    0    0    0    0 -0.00000000000E+00 -0.00000000000E+00 -0.74505805969E-08  0.93827000000E+00  0.93827000000E+00 0.  1.
     999902    2    1    2    0    0 -0.94064494930E-02 -0.23275817869E-01  0.15174634000E-01  0.10145954725E+01  0.10141713160E+01 0.  0.
     999903    2    3    3    0    0  0.10468928731E+00 -0.14319083116E-01  0.65130959810E-01  0.12577957771E+00  0.20336598137E-01 0.  0.
         14    1    1    2    0    0  0.94064494930E-02  0.23275817869E-01 -0.15174634000E-01  0.29334527550E-01  0.00000000000E+00 0. -1.
     999901    1    3    3    0    0 -0.11409573681E+00 -0.89567347534E-02 -0.49956325810E-01  0.88881589474E+00  0.88000000000E+00 0.  1.
        -11    1    4    4    0    0  0.10335940845E+00 -0.16518883977E-01  0.64874384489E-01  0.12314620468E+00  0.51100000000E-03 0.  1.
         11    1    4    4    0    0  0.13298788594E-02  0.21998008614E-02  0.25657532097E-03  0.26333730282E-02  0.51100000000E-03 0. -1.
</event>
<event>
 8    1  0.1064884E+005  0.1043930E+01  0.7957747E-01            NaN
         13   -1    0    0    0    0  0.00000000000E+00  0.00000000000E+00  0.74505805969E-08  0.10566000000E+00  0.10566000000E+00 0. -1.
     999900   -1    0    0    0    0 -0.00000000000E+00 -0.00000000000E+00 -0.74505805969E-08  0.93827000000E+00  0.93827000000E+00 0. -1.
     999902    2    1    2    0    0  0.20561107756E-01 -0.37651094995E-02  0.11402881701E-01  0.10201190590E+01  0.10198411315E+01 0.  0.
     999903    2    3    3    0    0  0.10517891036E+00 -0.41143672795E-01 -0.65390972695E-01  0.13194417440E+00  0.19439157658E-01 0.  0.
         14    1    1    2    0    0 -0.20561107756E-01  0.37651094995E-02 -0.11402881701E-01  0.23810941032E-01  0.00000000000E+00 0.  1.
     999901    1    3    3    0    0 -0.84617802608E-01  0.37378563296E-01  0.76793854396E-01  0.88817488457E+00  0.88000000000E+00 0.  1.
        -11    1    4    4    0    0  0.47888766914E-01 -0.28331715569E-01 -0.36166998138E-01  0.66365148828E-01  0.51100000000E-03 0. -1.
         11    1    4    4    0    0  0.57290143451E-01 -0.12811957226E-01 -0.29223974556E-01  0.65579025568E-01  0.51100000000E-03 0.  1.
</event>
<event>
 8    1  0.1064884E+005  0.1043930E+01  0.7957747E-01            NaN
         13   -1    0    0    0    0  0.00000000000E+00  0.00000000000E+00  0.74505805969E-08  0.10566000000E+00  0.10566000000E+00 0.  1.
     999900   -1    0    0    0    0 -0.00000000000E+00 -0.00000000000E+00 -0.74505805969E-08  0.93827000000E+00  0.93827000000E+00 0. -1.
     999902    2    1    2    0    0  0.74557761829E-02  0.17621790407E-01  0.15108649836E-01  0.10195499386E+01  0.10192584019E+01 0.  0.
     999903    2    3    3    0    0 -0.85596736946E-01  0.64382517065E-01 -0.69705157041E-01  0.12935966812E+00  0.20079963626E-01 0.  0.
         14    1    1    2    0    0 -0.74557761829E-02 -0.17621790407E-01 -0.15108649836E-01  0.24380061433E-01  0.00000000000E+00 0. -1.
     999901    1    3    3    0    0  0.93052513129E-01 -0.46760726658E-01  0.84813806876E-01  0.89019027044E+00  0.88000000000E+00 0.  1.
        -11    1    4    4    0    0 -0.29110376791E-01  0.23706881793E-01 -0.36012296444E-01  0.52024771959E-01  0.51100000000E-03 0.  1.
         11    1    4    4    0    0 -0.56486360155E-01  0.40675635273E-01 -0.33692860597E-01  0.77334896163E-01  0.51100000000E-03 0. -1.
</event>
<event>
 7    1  0.1064884E+005  0.1043930E+01  0.7957747E-01            NaN
         13   -1    0    0    0    0  0.00000000000E+00  0.00000000000E+00  0.74505805969E-08  0.10566000000E+00  0.10566000000E+00 0.  1.
     999900   -1    0    0    0    0 -0.00000000000E+00 -0.00000000000E+00 -0.74505805969E-08  0.93827000000E+00  0.93827000000E+00 0.  1.
     999903    2    1    2    0    0 -0.77639665928E-01 -0.42960417960E-01 -0.62013536263E-01  0.10864125689E+00  0.91503432588E-02 0.  0.
         14    1    1    2    0    0 -0.33134560029E-01 -0.22886018822E-03 -0.27136537850E-01  0.42829232210E-01  0.00000000000E+00 0. -1.
     999901    1    1    2    0    0  0.11077422596E+00  0.43189278148E-01  0.89150074113E-01  0.89245951090E+00  0.88000000000E+00 0. -1.
        -11    1    3    3    0    0 -0.37514329068E-01 -0.16674798981E-01 -0.32005268836E-01  0.52057392950E-01  0.51100000000E-03 0.  1.
         11    1    3    3    0    0 -0.40125336860E-01 -0.26285618979E-01 -0.30008267427E-01  0.56583863939E-01  0.51100000000E-03 0. -1.
</event>
<event>
 8    1  0.1064884E+005  0.1043930E+01  0.7957747E-01            NaN
         13   -1    0    0    0    0  0.00000000000E+00  0.00000000000E+00  0.74505805969E-08  0.10566000000E+00  0.10566000000E+00 0. -1.
     999900   -1    0    0    0    0 -0.00000000000E+00 -0.00000000000E+00 -0.74505805969E-08  0.93827000000E+00  0.93827000000E+00 0.  1.
     999902    2    1    2    0    0  0.54540770611E-02 -0.75836097958E-02  0.20045999929E-01  0.10218143900E+01  0.10215750326E+01 0.  0.
     999903    2    3    3    0    0  0.59149185955E-01 -0.11175625541E+00 -0.33618637016E-01  0.13242415049E+00  0.20441527731E-01 0.  0.
         14    1    1    2    0    0 -0.54540770611E-02  0.75836097958E-02 -0.20045999929E-01  0.22115610036E-01  0.00000000000E+00 0.  1.
     999901    1    3    3    0    0 -0.53695108894E-01  0.10417264561E+00  0.53664636945E-01  0.88939023947E+00  0.88000000000E+00 0. -1.
        -11    1    4    4    0    0  0.57602361150E-01 -0.10578920913E+00 -0.27157324855E-01  0.12347943226E+00  0.51100000000E-03 0.  1.
         11    1    4    4    0    0  0.15468248048E-02 -0.59670462813E-02 -0.64613121611E-02  0.89447182260E-02  0.51100000000E-03 0. -1.
</event>
<event>
 8    1  0.1064884E+005  0.1043930E+01  0.7957747E-01            NaN
         13   -1    0    0    0    0  0.00000000000E+00  0.00000000000E+00  0.74505805969E-08  0.10566000000E+00  0.10566000000E+00 0. -1.
     999900   -1    0    0    0    0 -0.00000000000E+00 -0.00000000000E+00 -0.74505805969E-08  0.93827000000E+00  0.93827000000E+00 0. -1.
     999902    2    1    2    0    0  0.13016248502E-01  0.93699886884E-02  0.19455067763E-01  0.10187165299E+01  0.10184044625E+01 0.  0.
     999903    2    3    3    0    0  0.27152766770E-01  0.74879773544E-01  0.10358059125E+00  0.13216789797E+00  0.19878660456E-01 0.  0.
         14    1    1    2    0    0 -0.13016248502E-01 -0.93699886884E-02 -0.19455067763E-01  0.25213470105E-01  0.00000000000E+00 0.  1.
     999901    1    3    3    0    0 -0.14136518267E-01 -0.65509784856E-01 -0.84125523488E-01  0.88654863192E+00  0.88000000000E+00 0. -1.
        -11    1    4    4    0    0  0.24968964342E-01  0.40262313619E-01  0.58183079914E-01  0.75033559075E-01  0.51100000000E-03 0.  1.
         11    1    4    4    0    0  0.21838024282E-02  0.34617459925E-01  0.45397511337E-01  0.57134338898E-01  0.51100000000E-03 0. -1.
</event>
<event>
 8    1  0.1064884E+005  0.1043930E+01  0.7957747E-01            NaN
         13   -1    0    0    0    0  0.00000000000E+00  0.00000000000E+00  0.74505805969E-08  0.10566000000E+00  0.10566000000E+00 0.  1.
     999900   -1    0    0    0    0 -0.00000000000E+00 -0.00000000000E+00 -0.74505805969E-08  0.93827000000E+00  0.93827000000E+00 0.  1.
     999902    2    1    2    0    0 -0.76581043399E-02 -0.91457342105E-02  0.20695418743E-01  0.10200429455E+01  0.10197632173E+01 0.  0.
     999903    2    3    3    0    0 -0.99721127493E-01 -0.56807109425E-01  0.63872507464E-01  0.13290627737E+00  0.20323149515E-01 0.  0.
         14    1    1    2    0    0  0.76581043399E-02  0.91457342105E-02 -0.20695418743E-01  0.23887054513E-01  0.00000000000E+00 0. -1.
     999901    1    3    3    0    0  0.92063023153E-01  0.47661375215E-01 -0.43177088720E-01  0.88713666811E+00  0.88000000000E+00 0.  1.
        -11    1    4    4    0    0 -0.21774853771E-01 -0.81788872806E-02  0.21706608881E-01  0.31819435005E-01  0.51100000000E-03 0.  1.
         11    1    4    4    0    0 -0.77946273722E-01 -0.48628222145E-01  0.42165898583E-01  0.10108684237E+00  0.51100000000E-03 0. -1.
</event>
<event>
 8    1  0.1064884E+005  0.1043930E+01  0.7957747E-01            NaN
         13   -1    0    0    0    0  0.00000000000E+00  0.00000000000E+00  0.74505805969E-08  0.10566000000E+00  0.10566000000E+00 0.  1.
     999900   -1    0    0    0    0 -0.00000000000E+00 -0.00000000000E+00 -0.74505805969E-08  0.93827000000E+00  0.93827000000E+00 0.  1.
     999902    2    1    2    0    0 -0.16161930705E-01  0.16380546931E-01 -0.78556353140E-02  0.10196145455E+01  0.10193245705E+01 0.  0.
     999903    2    3    3    0    0 -0.16896501925E-01  0.12908370033E+00 -0.13351521105E-01  0.13240952683E+00  0.20147610558E-01 0.  0.
         14    1    1    2    0    0  0.16161930705E-01 -0.16380546931E-01  0.78556353140E-02  0.24315454511E-01  0.00000000000E+00 0.  1.
     999901    1    3    3    0    0  0.73457122033E-03 -0.11270315340E+00  0.54958857913E-02  0.88720501866E+00  0.88000000000E+00 0.  1.
        -11    1    4    4    0    0 -0.40842527244E-02  0.86663807647E-01 -0.15070822182E-01  0.88060703372E-01  0.51100000000E-03 0.  1.
         11    1    4    4    0    0 -0.12812249201E-01  0.42419892679E-01  0.17193010770E-02  0.44348823454E-01  0.51100000000E-03 0. -1.
</event>
<event>
 8    1  0.1064884E+005  0.1043930E+01  0.7957747E-01            NaN
         13   -1    0    0    0    0  0.00000000000E+00  0.00000000000E+00  0.74505805969E-08  0.10566000000E+00  0.10566000000E+00 0.  1.
     999900   -1    0    0    0    0 -0.00000000000E+00 -0.00000000000E+00 -0.74505805969E-08  0.93827000000E+00  0.93827000000E+00 0.  1.
     999902    2    1    2    0    0 -0.14105754036E-02 -0.53205410238E-02 -0.22236427934E-01  0.10210224334E+01  0.10207654250E+01 0.  0.
     999903    2    3    3    0    0  0.62241304913E-01  0.17838036511E-02 -0.11645424472E+00  0.13367862711E+00  0.20765891235E-01 0.  0.
         14    1    1    2    0    0  0.14105754036E-02  0.53205410238E-02  0.22236427934E-01  0.22907566589E-01  0.00000000000E+00 0.  1.
     999901    1    3    3    0    0 -0.63651880317E-01 -0.71043446748E-02  0.94217816790E-01  0.88734380630E+00  0.88000000000E+00 0. -1.
        -11    1    4    4    0    0  0.26291060642E-01  0.36813238018E-03 -0.70950494230E-01  0.75667622822E-01  0.51100000000E-03 0.  1.
         11    1    4    4    0    0  0.35950244272E-01  0.14156712709E-02 -0.45503750494E-01  0.58011004287E-01  0.51100000000E-03 0. -1.
</event>
<event>
 8    1  0.1064884E+005  0.1043930E+01  0.7957747E-01            NaN
         13   -1    0    0    0    0  0.00000000000E+00  0.00000000000E+00  0.74505805969E-08  0.10566000000E+00  0.10566000000E+00 0.  1.
     999900   -1    0    0    0    0 -0.00000000000E+00 -0.00000000000E+00 -0.74505805969E-08  0.93827000000E+00  0.93827000000E+00 0.  1.
     999902    2    1    2    0    0  0.88593503203E-02 -0.21843276241E-01 -0.29823143348E-02  0.10201705597E+01  0.10198938473E+01 0.  0.
     999903    2    3    3    0    0  0.78513307779E-01  0.67635425774E-01 -0.76663942734E-01  0.12984079254E+00  0.15568589368E-01 0.  0.
         14    1    1    2    0    0 -0.88593503203E-02  0.21843276241E-01  0.29823143348E-02  0.23759440309E-01  0.00000000000E+00 0.  1.
     999901    1    3    3    0    0 -0.69653957459E-01 -0.89478702015E-01  0.73681628399E-01  0.89032976715E+00  0.88000000000E+00 0. -1.
        -11    1    4    4    0    0  0.95035208629E-02  0.59206046544E-02 -0.32089140123E-02  0.11658847216E-01  0.51100000000E-03 0.  1.
         11    1    4    4    0    0  0.69009786916E-01  0.61714821120E-01 -0.73455028721E-01  0.11818194533E+00  0.51100000000E-03 0. -1.
</event>
<event>
 8    1  0.1064884E+005  0.1043930E+01  0.7957747E-01            NaN
         13   -1    0    0    0    0  0.00000000000E+00  0.00000000000E+00  0.74505805969E-08  0.10566000000E+00  0.10566000000E+00 0.  1.
     999900   -1    0    0    0    0 -0.00000000000E+00 -0.00000000000E+00 -0.74505805969E-08  0.93827000000E+00  0.93827000000E+00 0. -1.
     999902    2    1    2    0    0  0.38026105860E-02 -0.10375694701E-01  0.21013438709E-01  0.10201880646E+01  0.10199117647E+01 0.  0.
     999903    2    3    3    0    0 -0.34018783924E-01 -0.14600255503E-01  0.12629145889E+00  0.13309631836E+00  0.19865856467E-01 0.  0.
         14    1    1    2    0    0 -0.38026105860E-02  0.10375694701E-01 -0.21013438709E-01  0.23741935351E-01  0.00000000000E+00 0. -1.
     999901    1    3    3    0    0  0.37821394510E-01  0.42245608015E-02 -0.10527802018E+00  0.88709174629E+00  0.88000000000E+00 0. -1.
        -11    1    4    4    0    0 -0.10769787326E-02 -0.95741257008E-04  0.34178171403E-01  0.34199087283E-01  0.51100000000E-03 0. -1.
         11    1    4    4    0    0 -0.32941805191E-01 -0.14504514246E-01  0.92113287486E-01  0.98897231079E-01  0.51100000000E-03 0.  1.
</event>
<event>
 8    1  0.1083044E+005  0.1043930E+01  0.7957747E-01            NaN
         13   -1    0    0    0    0  0.00000000000E+00  0.00000000000E+00  0.74505805969E-08  0.10566000000E+00  0.10566000000E+00 0. -1.
     999900   -1    0    0    0    0 -0.00000000000E+00 -0.00000000000E+00 -0.74505805969E-08  0.93827000000E+00  0.93827000000E+00 0. -1.
     999902    2    1    2    0    0 -0.55636988217E-02 -0.14442766933E-01 -0.17745684832E-01  0.10203830768E+01  0.10201113497E+01 0.  0.
     999903    2    3    3    0    0 -0.12588274895E+00 -0.13711268421E-01  0.27347756821E-01  0.13105151469E+00  0.19802382054E-01 0.  0.
         14    1    1    2    0    0  0.55636988217E-02  0.14442766933E-01  0.17745684832E-01  0.23546923184E-01  0.00000000000E+00 0. -1.
     999901    1    3    3    0    0  0.12031905013E+00 -0.73149851200E-03 -0.45093441653E-01  0.88933156213E+00  0.88000000000E+00 0. -1.
        -11    1    4    4    0    0 -0.74801995659E-01  0.16215601656E-02  0.15151505686E-01  0.76340010856E-01  0.51100000000E-03 0.  1.
         11    1    4    4    0    0 -0.51080753289E-01 -0.15332828587E-01  0.12196251135E-01  0.54711503834E-01  0.51100000000E-03 0. -1.
</event>
<event>
 8    1  0.1064884E+005  0.1043930E+01  0.7957747E-01            NaN
         13   -1    0    0    0    0  0.00000000000E+00  0.00000000000E+00  0.74505805969E-08  0.10566000000E+00  0.10566000000E+00 0.  1.
     999900   -1    0    0    0    0 -0.00000000000E+00 -0.00000000000E+00 -0.74505805969E-08  0.93827000000E+00  0.93827000000E+00 0.  1.
     999902    2    1    2    0    0  0.51322246273E-02 -0.14398044476E-01 -0.19026503098E-01  0.10195240328E+01  0.10192318687E+01 0.  0.
     999903    2    3    3    0    0 -0.11000302219E+00  0.12585598206E-01  0.60831597404E-01  0.12803002933E+00  0.20788049272E-01 0.  0.
         14    1    1    2    0    0 -0.51322246273E-02  0.14398044476E-01  0.19026503098E-01  0.24405967190E-01  0.00000000000E+00 0.  1.
     999901    1    3    3    0    0  0.11513524682E+00 -0.26983642682E-01 -0.79858100502E-01  0.89149400348E+00  0.88000000000E+00 0. -1.
        -11    1    4    4    0    0 -0.85984438754E-01  0.15446276982E-01  0.39917917182E-01  0.96050051607E-01  0.51100000000E-03 0. -1.
         11    1    4    4    0    0 -0.24018583439E-01 -0.28606787760E-02  0.20913680222E-01  0.31979977719E-01  0.51100000000E-03 0.  1.
</event>
<event>
 8    1  0.1064884E+005  0.1043930E+01  0.7957747E-01            NaN
         13   -1    0    0    0    0  0.00000000000E+00  0.00000000000E+00  0.74505805969E-08  0.10566000000E+00  0.10566000000E+00 0. -1.
     999900   -1    0    0    0    0 -0.00000000000E+00 -0.00000000000E+00 -0.74505805969E-08  0.93827000000E+00  0.93827000000E+00 0.  1.
     999902    2    1    2    0    0 -0.82818417387E-02  0.17756972400E-02  0.21992892282E-01  0.10203624521E+01  0.10200902432E+01 0.  0.
     999903    2    3    3    0    0  0.42350767482E-01  0.12188706025E+00  0.11371161594E-02  0.13051675534E+00  0.19577727848E-01 0.  0.
         14    1    1    2    0    0  0.82818417387E-02 -0.17756972400E-02 -0.21992892282E-01  0.23567547904E-01  0.00000000000E+00 0.  1.
     999901    1    3    3    0    0 -0.50632609221E-01 -0.12011136301E+00  0.20855776123E-01  0.88984569676E+00  0.88000000000E+00 0. -1.
        -11    1    4    4    0    0  0.98872312969E-02  0.48039412767E-01 -0.65373080543E-02  0.49482724656E-01  0.51100000000E-03 0. -1.
         11    1    4    4    0    0  0.32463536185E-01  0.73847647484E-01  0.76744242137E-02  0.81034030682E-01  0.51100000000E-03 0.  1.
</event>
<event>
 8    1  0.1064884E+005  0.1043930E+01  0.7957747E-01            NaN
         13   -1    0    0    0    0  0.00000000000E+00  0.00000000000E+00  0.74505805969E-08  0.10566000000E+00  0.10566000000E+00 0. -1.
     999900   -1    0    0    0    0 -0.00000000000E+00 -0.00000000000E+00 -0.74505805969E-08  0.93827000000E+00  0.93827000000E+00 0.  1.
     999902    2    1    2    0    0 -0.14626854469E-01  0.10450789646E-01  0.15852969747E-01  0.10199616766E+01  0.10196800190E+01 0.  0.
     999903    2    3    3    0    0 -0.93642772624E-01 -0.78326901520E-01 -0.39709647973E-01  0.13023576475E+00  0.21918620177E-01 0.  0.
         14    1    1    2    0    0  0.14626854469E-01 -0.10450789646E-01 -0.15852969747E-01  0.23968323380E-01  0.00000000000E+00 0.  1.
     999901    1    3    3    0    0  0.79015918155E-01  0.88777691166E-01  0.55562617719E-01  0.88972591187E+00  0.88000000000E+00 0. -1.
        -11    1    4    4    0    0 -0.79575552689E-01 -0.55611710135E-01 -0.34344797680E-01  0.10297940153E+00  0.51100000000E-03 0. -1.
         11    1    4    4    0    0 -0.14067219936E-01 -0.22715191385E-01 -0.53648502928E-02  0.27256363221E-01  0.51100000000E-03 0.  1.
</event>
<event>
 8    1  0.1064884E+005  0.1043930E+01  0.7957747E-01            NaN
         13   -1    0    0    0    0  0.00000000000E+00  0.00000000000E+00  0.74505805969E-08  0.10566000000E+00  0.10566000000E+00 0. -1.
     999900   -1    0    0    0    0 -0.00000000000E+00 -0.00000000000E+00 -0.74505805969E-08  0.93827000000E+00  0.93827000000E+00 0. -1.
     999902    2    1    2    0    0  0.43332236346E-02  0.20503548180E-02 -0.24333428141E-01  0.10191288608E+01  0.10188270404E+01 0.  0.
     999903    2    3    3    0    0 -0.44085576437E-01 -0.71407480105E-01  0.93134526608E-01  0.12697463974E+00  0.20148271039E-01 0.  0.
         14    1    1    2    0    0 -0.43332236346E-02 -0.20503548180E-02  0.24333428141E-01  0.24801139229E-01  0.00000000000E+00 0. -1.
     999901    1    3    3    0    0  0.48418800072E-01  0.73457834923E-01 -0.11746795475E+00  0.89215422103E+00  0.88000000000E+00 0. -1.
        -11    1    4    4    0    0 -0.43296845899E-02 -0.13371030587E-01  0.68417988824E-02  0.15639755770E-01  0.51100000000E-03 0. -1.
         11    1    4    4    0    0 -0.39755891847E-01 -0.58036449518E-01  0.86292727725E-01  0.11133488397E+00  0.51100000000E-03 0.  1.
</event>
<event>
 8    1  0.1064884E+005  0.1043930E+01  0.7957747E-01            NaN
         13   -1    0    0    0    0  0.00000000000E+00  0.00000000000E+00  0.74505805969E-08  0.10566000000E+00  0.10566000000E+00 0.  1.
     999900   -1    0    0    0    0 -0.00000000000E+00 -0.00000000000E+00 -0.74505805969E-08  0.93827000000E+00  0.93827000000E+00 0. -1.
     999902    2    1    2    0    0  0.19063889890E-01  0.10765774524E-02  0.13351460459E-01  0.10206308066E+01  0.10203648323E+01 0.  0.
     999903    2    3    3    0    0 -0.12214555386E+00 -0.34533773730E-01  0.22313722717E-02  0.12859276902E+00  0.20469571719E-01 0.  0.
         14    1    1    2    0    0 -0.19063889890E-01 -0.10765774524E-02 -0.13351460459E-01  0.23299193402E-01  0.00000000000E+00 0. -1.
     999901    1    3    3    0    0  0.14120944376E+00  0.35610351182E-01  0.11120088188E-01  0.89203803757E+00  0.88000000000E+00 0. -1.
        -11    1    4    4    0    0 -0.42033046145E-01 -0.21037680478E-02  0.25057423212E-02  0.42163285852E-01  0.51100000000E-03 0. -1.
         11    1    4    4    0    0 -0.80112507719E-01 -0.32430005682E-01 -0.27437004956E-03  0.86429483173E-01  0.51100000000E-03 0.  1.
</event>
<event>
 8    1  0.1064884E+005  0.1043930E+01  0.7957747E-01            NaN
         13   -1    0    0    0    0  0.00000000000E+00  0.00000000000E+00  0.74505805969E-08  0.10566000000E+00  0.10566000000E+00 0. -1.
     999900   -1    0    0    0    0 -0.00000000000E+00 -0.00000000000E+00 -0.74505805969E-08  0.93827000000E+00  0.93827000000E+00 0. -1.
     999902    2    1    2    0    0  0.14949667394E-01  0.11154777202E-01  0.14312846619E-01  0.10204187434E+01  0.10201478484E+01 0.  0.
     999903    2    3    3    0    0 -0.47452002295E-01 -0.69034361925E-01 -0.94704193027E-01  0.12788920250E+00  0.19217915859E-01 0.  0.
         14    1    1    2    0    0 -0.14949667394E-01 -0.11154777202E-01 -0.14312846619E-01  0.23511256622E-01  0.00000000000E+00 0.  1.
     999901    1    3    3    0    0  0.62401669688E-01  0.80189139127E-01  0.10901703965E+00  0.89252954088E+00  0.88000000000E+00 0. -1.
        -11    1    4    4    0    0 -0.27352376388E-02 -0.15792775916E-01 -0.22707813731E-01  0.27799266565E-01  0.51100000000E-03 0.  1.
         11    1    4    4    0    0 -0.44716764656E-01 -0.53241586009E-01 -0.71996379296E-01  0.10008993593E+00  0.51100000000E-03 0. -1.
</event>
<event>
 8    1  0.1064884E+005  0.1043930E+01  0.7957747E-01            NaN
         13   -1    0    0    0    0  0.00000000000E+00  0.00000000000E+00  0.74505805969E-08  0.10566000000E+00  0.10566000000E+00 0.  1.
     999900   -1    0    0    0    0 -0.00000000000E+00 -0.00000000000E+00 -0.74505805969E-08  0.93827000000E+00  0.93827000000E+00 0. -1.
     999902    2    1    2    0    0  0.22475944306E-01 -0.10386700552E-03  0.10783216753E-01  0.10190009682E+01  0.10186959883E+01 0.  0.
     999903    2    3    3    0    0  0.47716408070E-01 -0.11961469035E+00 -0.45929994252E-02  0.13043113647E+00  0.20165712788E-01 0.  0.
         14    1    1    2    0    0 -0.22475944306E-01  0.10386700552E-03 -0.10783216753E-01  0.24929031757E-01  0.00000000000E+00 0.  1.
     999901    1    3    3    0    0 -0.25240463764E-01  0.11951082334E+00  0.15376216179E-01  0.88856983177E+00  0.88000000000E+00 0. -1.
        -11    1    4    4    0    0  0.34802771122E-01 -0.68368870294E-01 -0.97221103138E-02  0.77332501918E-01  0.51100000000E-03 0. -1.
         11    1    4    4    0    0  0.12913636948E-01 -0.51245820053E-01  0.51291108886E-02  0.53098634555E-01  0.51100000000E-03 0.  1.
</event>
<event>
 8    1  0.1064884E+005  0.1043930E+01  0.7957747E-01            NaN
         13   -1    0    0    0    0  0.00000000000E+00  0.00000000000E+00  0.74505805969E-08  0.10566000000E+00  0.10566000000E+00 0. -1.
     999900   -1    0    0    0    0 -0.00000000000E+00 -0.00000000000E+00 -0.74505805969E-08  0.93827000000E+00  0.93827000000E+00 0. -1.
     999902    2    1    2    0    0 -0.21893769160E-01 -0.54741494055E-02  0.11750024604E-01  0.10184866017E+01  0.10181687440E+01 0.  0.
     999903    2    3    3    0    0  0.48405308939E-01  0.93904558718E-01 -0.67024832658E-01  0.12662138421E+00  0.19480930769E-01 0.  0.
         14    1    1    2    0    0  0.21893769160E-01  0.54741494055E-02 -0.11750024604E-01  0.25443398317E-01  0.00000000000E+00 0. -1.
     999901    1    3    3    0    0 -0.70299078099E-01 -0.99378708123E-01  0.78774857262E-01  0.89186521748E+00  0.88000000000E+00 0.  1.
        -11    1    4    4    0    0  0.43147681958E-01  0.91770220322E-01 -0.65502507847E-01  0.12072421237E+00  0.51100000000E-03 0.  1.
         11    1    4    4    0    0  0.52576269807E-02  0.21343383955E-02 -0.15223248110E-02  0.58971718378E-02  0.51100000000E-03 0. -1.
</event>
<event>
 8    1  0.1064884E+005  0.1043930E+01  0.7957747E-01            NaN
         13   -1    0    0    0    0  0.00000000000E+00  0.00000000000E+00  0.74505805969E-08  0.10566000000E+00  0.10566000000E+00 0.  1.
     999900   -1    0    0    0    0 -0.00000000000E+00 -0.00000000000E+00 -0.74505805969E-08  0.93827000000E+00  0.93827000000E+00 0.  1.
     999902    2    1    2    0    0  0.17368299061E-01  0.95612873928E-02 -0.12910172639E-01  0.10202709935E+01  0.10199966430E+01 0.  0.
     999903    2    3    3    0    0 -0.75567704384E-01 -0.98112394172E-01  0.25053042355E-01  0.12804236358E+00  0.20752640885E-01 0.  0.
         14    1    1    2    0    0 -0.17368299061E-01 -0.95612873928E-02  0.12910172639E-01  0.23659006455E-01  0.00000000000E+00 0.  1.
     999901    1    3    3    0    0  0.92936003445E-01  0.10767368156E+00 -0.37963214994E-01  0.89222862997E+00  0.88000000000E+00 0. -1.
        -11    1    4    4    0    0 -0.29149793212E-01 -0.54828463934E-01  0.12498103260E-01  0.63342991781E-01  0.51100000000E-03 0. -1.
         11    1    4    4    0    0 -0.46417911171E-01 -0.43283930237E-01  0.12554939095E-01  0.64699371797E-01  0.51100000000E-03 0.  1.
</event>
<event>
 8    1  0.1064884E+005  0.1043930E+01  0.7957747E-01            NaN
         13   -1    0    0    0    0  0.00000000000E+00  0.00000000000E+00  0.74505805969E-08  0.10566000000E+00  0.10566000000E+00 0.  1.
     999900   -1    0    0    0    0 -0.00000000000E+00 -0.00000000000E+00 -0.74505805969E-08  0.93827000000E+00  0.93827000000E+00 0.  1.
     999902    2    1    2    0    0 -0.14515603108E-01  0.17294845290E-02  0.19786390636E-01  0.10193292865E+01  0.10190323838E+01 0.  0.
     999903    2    3    3    0    0  0.14460275526E-01 -0.79648789313E-01 -0.96350566149E-01  0.12750541503E+00  0.20522428143E-01 0.  0.
         14    1    1    2    0    0  0.14515603108E-01 -0.17294845290E-02 -0.19786390636E-01  0.24600713500E-01  0.00000000000E+00 0.  1.
     999901    1    3    3    0    0 -0.28975878634E-01  0.81378273842E-01  0.11613695678E+00  0.89182387147E+00  0.88000000000E+00 0. -1.
        -11    1    4    4    0    0  0.84874537365E-02 -0.10473063567E-01 -0.21729329844E-01  0.25576294256E-01  0.51100000000E-03 0. -1.
         11    1    4    4    0    0  0.59728217892E-02 -0.69175725746E-01 -0.74621236305E-01  0.10192912077E+00  0.51100000000E-03 0.  1.
</event>
<event>
 8    1  0.1064884E+005  0.1043930E+01  0.7957747E-01            NaN
         13   -1    0    0    0    0  0.00000000000E+00  0.00000000000E+00  0.74505805969E-08  0.10566000000E+00  0.10566000000E+00 0.  1.
     999900   -1    0    0    0    0 -0.00000000000E+00 -0.00000000000E+00 -0.74505805969E-08  0.93827000000E+00  0.93827000000E+00 0.  1.
     999902    2    1    2    0    0 -0.25561502360E-01 -0.38694955262E-02 -0.44878609310E-02  0.10176906346E+01  0.10173523104E+01 0.  0.
     999903    2    3    3    0    0  0.12503261934E-01 -0.80148257693E-02  0.12502946623E+00  0.12738683926E+00  0.19351237670E-01 0.  0.
         14    1    1    2    0    0  0.25561502360E-01  0.38694955262E-02  0.44878609310E-02  0.26239365356E-01  0.00000000000E+00 0. -1.
     999901    1    3    3    0    0 -0.38064764294E-01  0.41453302430E-02 -0.12951732716E+00  0.89030379539E+00  0.88000000000E+00 0.  1.
        -11    1    4    4    0    0  0.51326620058E-02 -0.13753224060E-01  0.65500280829E-01  0.67127068318E-01  0.51100000000E-03 0.  1.
         11    1    4    4    0    0  0.73705999282E-02  0.57383982908E-02  0.59529185401E-01  0.60259770940E-01  0.51100000000E-03 0. -1.
</event>
<event>
 8    1  0.1064884E+005  0.1043930E+01  0.7957747E-01            NaN
         13   -1    0    0    0    0  0.00000000000E+00  0.00000000000E+00  0.74505805969E-08  0.10566000000E+00  0.10566000000E+00 0.  1.
     999900   -1    0    0    0    0 -0.00000000000E+00 -0.00000000000E+00 -0.74505805969E-08  0.93827000000E+00  0.93827000000E+00 0.  1.
     999902    2    1    2    0    0  0.10989583125E-01  0.11916348183E-01  0.16073836406E-01  0.10211015417E+01  0.10208463253E+01 0.  0.
     999903    2    3    3    0    0 -0.96798001026E-01 -0.72779404972E-01 -0.38786040375E-01  0.12880050507E+00  0.20457721964E-01 0.  0.
         14    1    1    2    0    0 -0.10989583125E-01 -0.11916348183E-01 -0.16073836406E-01  0.22828458294E-01  0.00000000000E+00 0. -1.
     999901    1    3    3    0    0  0.10778758415E+00  0.84695753155E-01  0.54859876781E-01  0.89230103664E+00  0.88000000000E+00 0.  1.
        -11    1    4    4    0    0 -0.53622981653E-01 -0.27657171556E-01 -0.20519573183E-01  0.63731132929E-01  0.51100000000E-03 0.  1.
         11    1    4    4    0    0 -0.43175019373E-01 -0.45122233416E-01 -0.18266467192E-01  0.65069372142E-01  0.51100000000E-03 0. -1.
</event>
<event>
 7    1  0.1079786E+005  0.1043930E+01  0.7957747E-01            NaN
         13   -1    0    0    0    0  0.00000000000E+00  0.00000000000E+00  0.74505805969E-08  0.10566000000E+00  0.10566000000E+00 0.  1.
     999900   -1    0    0    0    0 -0.00000000000E+00 -0.00000000000E+00 -0.74505805969E-08  0.93827000000E+00  0.93827000000E+00 0. -1.
     999902    2    1    2    0    0 -0.80579146264E-02 -0.24057802060E-01  0.31785539066E-03  0.10185566112E+01  0.10182405223E+01 0.  0.
         14    1    1    2    0    0  0.80579146264E-02  0.24057802060E-01 -0.31785539066E-03  0.25373388819E-01  0.00000000000E+00 0.  1.
     999901    1    3    3    0    0 -0.43490666936E-02 -0.14526699253E+00 -0.60383526866E-02  0.89194051102E+00  0.88000000000E+00 0. -1.
        -11    1    3    3    0    0 -0.16928890348E-01  0.36226029724E-01 -0.29992284871E-02  0.40101983124E-01  0.51100000000E-03 0.  1.
         11    1    3    3    0    0  0.13220042415E-01  0.84983160747E-01  0.93554365643E-02  0.86514117035E-01  0.51100000000E-03 0. -1.
</event>
